<event>
 7    1  0.2991278E-011  0.5052886E+02  0.7816164E-02  0.1300439E+00
        -11   -1    0    0    0    0  0.00000000000E+00  0.00000000000E+00  0.45593999997E+02  0.45594000000E+02  0.51100000000E-03 0. -1.
         11   -1    0    0    0    0 -0.00000000000E+00 -0.00000000000E+00 -0.45593999997E+02  0.45594000000E+02  0.51100000000E-03 0.  1.
    9900012    2    1    2    0    0 -0.12691157818E+02  0.11065373763E+02 -0.37008887148E+02  0.50528859439E+02  0.29999998749E+02 0.  0.
         12    1    1    2    0    0  0.12691157818E+02 -0.11065373763E+02  0.37008887148E+02  0.40659140561E+02  0.00000000000E+00 0. -1.
         11    1    3    3    0    0  0.41852120056E+01  0.89434267012E+01 -0.74412937203E+01  0.12364211790E+02  0.51100000000E-03 0. -1.
        -11    1    3    3    0    0 -0.11832252241E+02 -0.36412388894E+01 -0.27611767740E+02  0.30260048442E+02  0.51100000000E-03 0.  1.
        -12    1    3    3    0    0 -0.50441175829E+01  0.57631859510E+01 -0.19558256877E+01  0.79045992065E+01  0.00000000000E+00 0.  1.
</event>
<event>
 7    1  0.2991278E-011  0.5052886E+02  0.7816164E-02  0.1300439E+00
        -11   -1    0    0    0    0  0.00000000000E+00  0.00000000000E+00  0.45593999997E+02  0.45594000000E+02  0.51100000000E-03 0.  1.
         11   -1    0    0    0    0 -0.00000000000E+00 -0.00000000000E+00 -0.45593999997E+02  0.45594000000E+02  0.51100000000E-03 0. -1.
    9900012    2    1    2    0    0  0.25035443307E+02  0.26133625086E+02  0.18531746059E+02  0.50528863343E+02  0.30000010617E+02 0.  0.
         12    1    1    2    0    0 -0.25035443307E+02 -0.26133625086E+02 -0.18531746059E+02  0.40659136657E+02  0.00000000000E+00 0. -1.
         11    1    3    3    0    0  0.95573770339E+00 -0.30827701283E+01  0.11745851395E+01  0.34346115840E+01  0.51100000000E-03 0. -1.
        -11    1    3    3    0    0  0.20896244321E+02  0.32468504658E+02  0.17809376427E+02  0.42520944374E+02  0.51100000000E-03 0.  1.
        -12    1    3    3    0    0  0.31834612827E+01 -0.32521094440E+01 -0.45221550715E+00  0.45733073852E+01  0.00000000000E+00 0.  1.
</event>
<event>
 7    1  0.2991278E-011  0.5052886E+02  0.7816164E-02  0.1300439E+00
        -11   -1    0    0    0    0  0.00000000000E+00  0.00000000000E+00  0.45593999997E+02  0.45594000000E+02  0.51100000000E-03 0.  1.
         11   -1    0    0    0    0 -0.00000000000E+00 -0.00000000000E+00 -0.45593999997E+02  0.45594000000E+02  0.51100000000E-03 0. -1.
    9900012    2    1    2    0    0 -0.40401117913E+02 -0.17022084477E+00 -0.45701755992E+01  0.50528858239E+02  0.29999995102E+02 0.  0.
         12    1    1    2    0    0  0.40401117913E+02  0.17022084477E+00  0.45701755992E+01  0.40659141761E+02  0.00000000000E+00 0. -1.
         11    1    3    3    0    0 -0.19701455938E+02 -0.34065150196E+01 -0.11696343561E+02  0.23163681996E+02  0.51100000000E-03 0. -1.
        -11    1    3    3    0    0 -0.21383503448E+02 -0.11793476126E+00  0.92908231762E+01  0.23314963519E+02  0.51100000000E-03 0.  1.
        -12    1    3    3    0    0  0.68384147244E+00  0.33542289361E+01 -0.21646552143E+01  0.40502127242E+01  0.00000000000E+00 0.  1.
</event>
<event>
 7    1  0.2991278E-011  0.5052886E+02  0.7816164E-02  0.1300439E+00
        -11   -1    0    0    0    0  0.00000000000E+00  0.00000000000E+00  0.45593999997E+02  0.45594000000E+02  0.51100000000E-03 0. -1.
         11   -1    0    0    0    0 -0.00000000000E+00 -0.00000000000E+00 -0.45593999997E+02  0.45594000000E+02  0.51100000000E-03 0.  1.
    9900012    2    1    2    0    0 -0.87507267791E+01 -0.37239831015E+02 -0.13776275207E+02  0.50528855988E+02  0.29999988262E+02 0.  0.
         12    1    1    2    0    0  0.87507267791E+01  0.37239831015E+02  0.13776275207E+02  0.40659144012E+02  0.00000000000E+00 0. -1.
         11    1    3    3    0    0 -0.54615005435E+01 -0.77072993259E+01  0.52764060178E+00  0.94609120042E+01  0.51100000000E-03 0. -1.
        -11    1    3    3    0    0  0.27313713712E+01 -0.31872837940E+02 -0.12650799723E+02  0.34400304095E+02  0.51100000000E-03 0.  1.
        -12    1    3    3    0    0 -0.60205976068E+01  0.23403062513E+01 -0.16531160859E+01  0.66676398888E+01  0.00000000000E+00 0.  1.
</event>
<event>
 7    1  0.2991278E-011  0.5052886E+02  0.7816164E-02  0.1300439E+00
        -11   -1    0    0    0    0  0.00000000000E+00  0.00000000000E+00  0.45593999997E+02  0.45594000000E+02  0.51100000000E-03 0.  1.
         11   -1    0    0    0    0 -0.00000000000E+00 -0.00000000000E+00 -0.45593999997E+02  0.45594000000E+02  0.51100000000E-03 0. -1.
    9900012    2    1    2    0    0 -0.23169099716E+02  0.29081029770E+02  0.16451513906E+02  0.50528858544E+02  0.29999996030E+02 0.  0.
         12    1    1    2    0    0  0.23169099716E+02 -0.29081029770E+02 -0.16451513906E+02  0.40659141456E+02  0.00000000000E+00 0. -1.
         11    1    3    3    0    0  0.10240178951E+01 -0.26972630578E+01 -0.56709994156E+00  0.29403134624E+01  0.51100000000E-03 0. -1.
        -11    1    3    3    0    0 -0.23070388775E+02  0.34476018159E+02  0.16365034213E+02  0.44594315909E+02  0.51100000000E-03 0.  1.
         12    1    3    3    0    0 -0.11227288361E+01 -0.26977253308E+01  0.65357963503E+00  0.29942291728E+01  0.00000000000E+00 0. -1.
</event>
<event>
 7    1  0.2991278E-011  0.5052886E+02  0.7816164E-02  0.1300439E+00
        -11   -1    0    0    0    0  0.00000000000E+00  0.00000000000E+00  0.45593999997E+02  0.45594000000E+02  0.51100000000E-03 0.  1.
         11   -1    0    0    0    0 -0.00000000000E+00 -0.00000000000E+00 -0.45593999997E+02  0.45594000000E+02  0.51100000000E-03 0. -1.
    9900012    2    1    2    0    0 -0.16520055845E+01  0.40623076404E+02  0.44952756552E+00  0.50528861617E+02  0.30000005371E+02 0.  0.
         12    1    1    2    0    0  0.16520055845E+01 -0.40623076404E+02 -0.44952756552E+00  0.40659138383E+02  0.00000000000E+00 0. -1.
         11    1    3    3    0    0 -0.79698587205E+01  0.45116140458E+01 -0.53092707814E+01  0.10585918279E+02  0.51100000000E-03 0. -1.
        -11    1    3    3    0    0  0.57402704999E+01  0.10344724145E+02  0.76693089381E+01  0.14099018508E+02  0.51100000000E-03 0.  1.
         12    1    3    3    0    0  0.57758263606E+00  0.25766738214E+02 -0.19105105913E+01  0.25843924830E+02  0.00000000000E+00 0. -1.
</event>
<event>
 7    1  0.2991278E-011  0.5052876E+02  0.7816164E-02  0.1300439E+00
        -11   -1    0    0    0    0  0.00000000000E+00  0.00000000000E+00  0.45593999997E+02  0.45594000000E+02  0.51100000000E-03 0. -1.
         11   -1    0    0    0    0 -0.00000000000E+00 -0.00000000000E+00 -0.45593999997E+02  0.45594000000E+02  0.51100000000E-03 0.  1.
    9900012    2    1    2    0    0 -0.38447068123E+02 -0.13076466172E+02 -0.20007387815E+01  0.50528757871E+02  0.29999690023E+02 0.  0.
         12    1    1    2    0    0  0.38447068123E+02  0.13076466172E+02  0.20007387815E+01  0.40659242129E+02  0.00000000000E+00 0. -1.
         11    1    3    3    0    0 -0.18694576482E+02 -0.27880340980E+01  0.55437722230E+01  0.19697556566E+02  0.51100000000E-03 0. -1.
        -11    1    3    3    0    0 -0.91913037347E+01 -0.66653421778E+01 -0.13928424808E+02  0.17969637409E+02  0.51100000000E-03 0.  1.
        -12    1    3    3    0    0 -0.10561187907E+02 -0.36230898966E+01  0.63839138039E+01  0.12861563896E+02  0.00000000000E+00 0.  1.
</event>
<event>
 7    1  0.2991278E-011  0.5052886E+02  0.7816164E-02  0.1300439E+00
        -11   -1    0    0    0    0  0.00000000000E+00  0.00000000000E+00  0.45593999997E+02  0.45594000000E+02  0.51100000000E-03 0.  1.
         11   -1    0    0    0    0 -0.00000000000E+00 -0.00000000000E+00 -0.45593999997E+02  0.45594000000E+02  0.51100000000E-03 0. -1.
    9900012    2    1    2    0    0 -0.14203724544E+01 -0.52989900625E+01  0.40287329144E+02  0.50528860276E+02  0.30000001294E+02 0.  0.
         12    1    1    2    0    0  0.14203724544E+01  0.52989900625E+01 -0.40287329144E+02  0.40659139724E+02  0.00000000000E+00 0. -1.
         11    1    3    3    0    0 -0.90525227840E+01 -0.11776997501E+02  0.13839161992E+02  0.20301927095E+02  0.51100000000E-03 0. -1.
        -11    1    3    3    0    0  0.36222991610E+01  0.82172742952E+01  0.22897941951E+02  0.24595942631E+02  0.51100000000E-03 0.  1.
        -12    1    3    3    0    0  0.40098511685E+01 -0.17392668567E+01  0.35502252010E+01  0.56309905496E+01  0.00000000000E+00 0.  1.
</event>
<event>
 7    1  0.2991278E-011  0.5052878E+02  0.7816164E-02  0.1300439E+00
        -11   -1    0    0    0    0  0.00000000000E+00  0.00000000000E+00  0.45593999997E+02  0.45594000000E+02  0.51100000000E-03 0. -1.
         11   -1    0    0    0    0 -0.00000000000E+00 -0.00000000000E+00 -0.45593999997E+02  0.45594000000E+02  0.51100000000E-03 0.  1.
    9900012    2    1    2    0    0  0.33191362658E+02  0.11229006807E+02 -0.20625586080E+02  0.50528782717E+02  0.29999765545E+02 0.  0.
         12    1    1    2    0    0 -0.33191362658E+02 -0.11229006807E+02  0.20625586080E+02  0.40659217283E+02  0.00000000000E+00 0. -1.
         11    1    3    3    0    0  0.12027152677E+02 -0.34181218074E+01  0.42118939795E+01  0.13193786771E+02  0.51100000000E-03 0. -1.
        -11    1    3    3    0    0  0.70436483806E+01  0.77920171195E+01 -0.16505091285E+02  0.19563909423E+02  0.51100000000E-03 0.  1.
        -12    1    3    3    0    0  0.14120561600E+02  0.68551114953E+01 -0.83323887743E+01  0.17771086523E+02  0.00000000000E+00 0.  1.
</event>
<event>
 7    1  0.2991278E-011  0.5052891E+02  0.7816164E-02  0.1300439E+00
        -11   -1    0    0    0    0  0.00000000000E+00  0.00000000000E+00  0.45593999997E+02  0.45594000000E+02  0.51100000000E-03 0.  1.
         11   -1    0    0    0    0 -0.00000000000E+00 -0.00000000000E+00 -0.45593999997E+02  0.45594000000E+02  0.51100000000E-03 0. -1.
    9900012    2    1    2    0    0 -0.28439995431E+02 -0.11766513121E+02  0.26568349580E+02  0.50528912817E+02  0.30000160999E+02 0.  0.
         12    1    1    2    0    0  0.28439995431E+02  0.11766513121E+02 -0.26568349580E+02  0.40659087183E+02  0.00000000000E+00 0. -1.
         11    1    3    3    0    0 -0.82934910077E+01  0.48904644802E+00 -0.51255525193E+01  0.97617851038E+01  0.51100000000E-03 0. -1.
        -11    1    3    3    0    0 -0.20043416150E+02 -0.10794696912E+02  0.31999328626E+02  0.39271122280E+02  0.51100000000E-03 0.  1.
        -12    1    3    3    0    0 -0.10308827326E+00 -0.14608626563E+01 -0.30542652683E+00  0.14960054331E+01  0.00000000000E+00 0.  1.
</event>
<event>
 7    1  0.2991278E-011  0.5052885E+02  0.7816164E-02  0.1300439E+00
        -11   -1    0    0    0    0  0.00000000000E+00  0.00000000000E+00  0.45593999997E+02  0.45594000000E+02  0.51100000000E-03 0.  1.
         11   -1    0    0    0    0 -0.00000000000E+00 -0.00000000000E+00 -0.45593999997E+02  0.45594000000E+02  0.51100000000E-03 0. -1.
    9900012    2    1    2    0    0  0.69206207936E+01  0.29534110825E+01  0.39956837754E+02  0.50528849585E+02  0.29999968797E+02 0.  0.
         12    1    1    2    0    0 -0.69206207936E+01 -0.29534110825E+01 -0.39956837754E+02  0.40659150415E+02  0.00000000000E+00 0. -1.
         11    1    3    3    0    0  0.11239783386E+01 -0.94129490381E+01  0.14258671094E+01  0.95864505514E+01  0.51100000000E-03 0. -1.
        -11    1    3    3    0    0  0.54271660230E+01  0.10614539870E+02  0.31310764463E+02  0.33503530548E+02  0.51100000000E-03 0.  1.
         12    1    3    3    0    0  0.36947643200E+00  0.17518202504E+01  0.72202061819E+01  0.74388684847E+01  0.00000000000E+00 0. -1.
</event>
<event>
 7    1  0.2991278E-011  0.5052887E+02  0.7816164E-02  0.1300439E+00
        -11   -1    0    0    0    0  0.00000000000E+00  0.00000000000E+00  0.45593999997E+02  0.45594000000E+02  0.51100000000E-03 0. -1.
         11   -1    0    0    0    0 -0.00000000000E+00 -0.00000000000E+00 -0.45593999997E+02  0.45594000000E+02  0.51100000000E-03 0.  1.
    9900012    2    1    2    0    0 -0.32152580376E+02  0.19632593380E+02 -0.15295021646E+02  0.50528870216E+02  0.30000031507E+02 0.  0.
         12    1    1    2    0    0  0.32152580376E+02 -0.19632593380E+02  0.15295021646E+02  0.40659129784E+02  0.00000000000E+00 0. -1.
         11    1    3    3    0    0 -0.87328126887E+01  0.18537903926E+02 -0.13773397245E+02  0.24690532018E+02  0.51100000000E-03 0. -1.
        -11    1    3    3    0    0 -0.11661640709E+02  0.59238212265E+01 -0.94605183214E+00  0.13114134980E+02  0.51100000000E-03 0.  1.
         12    1    3    3    0    0 -0.11758126979E+02 -0.48291317727E+01 -0.57557256872E+00  0.12724203217E+02  0.00000000000E+00 0. -1.
</event>
<event>
 7    1  0.2991278E-011  0.5052878E+02  0.7816164E-02  0.1300439E+00
        -11   -1    0    0    0    0  0.00000000000E+00  0.00000000000E+00  0.45593999997E+02  0.45594000000E+02  0.51100000000E-03 0.  1.
         11   -1    0    0    0    0 -0.00000000000E+00 -0.00000000000E+00 -0.45593999997E+02  0.45594000000E+02  0.51100000000E-03 0. -1.
    9900012    2    1    2    0    0 -0.12828849987E+02 -0.10379610482E+02  0.37159878486E+02  0.50528778723E+02  0.29999753405E+02 0.  0.
         12    1    1    2    0    0  0.12828849987E+02  0.10379610482E+02 -0.37159878486E+02  0.40659221277E+02  0.00000000000E+00 0. -1.
         11    1    3    3    0    0  0.64472608990E+01 -0.83233789144E+01  0.12197494626E+02  0.16112873271E+02  0.51100000000E-03 0. -1.
        -11    1    3    3    0    0 -0.14997098281E+02 -0.45389761024E+01  0.24957846321E+02  0.29468786099E+02  0.51100000000E-03 0.  1.
        -12    1    3    3    0    0 -0.42790126047E+01  0.24827445345E+01  0.45375389899E-02  0.49471193521E+01  0.00000000000E+00 0.  1.
</event>
<event>
 7    1  0.2991278E-011  0.5052884E+02  0.7816164E-02  0.1300439E+00
        -11   -1    0    0    0    0  0.00000000000E+00  0.00000000000E+00  0.45593999997E+02  0.45594000000E+02  0.51100000000E-03 0.  1.
         11   -1    0    0    0    0 -0.00000000000E+00 -0.00000000000E+00 -0.45593999997E+02  0.45594000000E+02  0.51100000000E-03 0. -1.
    9900012    2    1    2    0    0 -0.16091453991E+02  0.15525544378E+02  0.33958649348E+02  0.50528840080E+02  0.29999939908E+02 0.  0.
         12    1    1    2    0    0  0.16091453991E+02 -0.15525544378E+02 -0.33958649348E+02  0.40659159920E+02  0.00000000000E+00 0. -1.
         11    1    3    3    0    0 -0.20891395758E+02  0.65971441962E+01  0.28743285698E+02  0.36140686231E+02  0.51100000000E-03 0. -1.
        -11    1    3    3    0    0  0.39324093439E+01  0.23562766970E+01  0.61742013772E+01  0.76900355024E+01  0.51100000000E-03 0.  1.
         12    1    3    3    0    0  0.86753242274E+00  0.65721234853E+01 -0.95883772661E+00  0.66981183475E+01  0.00000000000E+00 0. -1.
</event>
<event>
 7    1  0.2991278E-011  0.5052884E+02  0.7816164E-02  0.1300439E+00
        -11   -1    0    0    0    0  0.00000000000E+00  0.00000000000E+00  0.45593999997E+02  0.45594000000E+02  0.51100000000E-03 0. -1.
         11   -1    0    0    0    0 -0.00000000000E+00 -0.00000000000E+00 -0.45593999997E+02  0.45594000000E+02  0.51100000000E-03 0.  1.
    9900012    2    1    2    0    0 -0.28851864937E+02  0.16529292143E+02  0.23399138973E+02  0.50528839732E+02  0.29999938848E+02 0.  0.
         12    1    1    2    0    0  0.28851864937E+02 -0.16529292143E+02 -0.23399138973E+02  0.40659160268E+02  0.00000000000E+00 0. -1.
         11    1    3    3    0    0 -0.45394011437E+01 -0.19263305938E+01  0.87113493896E+01  0.10010220814E+02  0.51100000000E-03 0. -1.
        -11    1    3    3    0    0 -0.91803135350E+00 -0.65450235861E+00 -0.45617785185E+01  0.46990401591E+01  0.51100000000E-03 0.  1.
        -12    1    3    3    0    0 -0.23394432440E+02  0.19110125095E+02  0.19249568102E+02  0.35819578758E+02  0.00000000000E+00 0.  1.
</event>
<event>
 7    1  0.2991278E-011  0.5052884E+02  0.7816164E-02  0.1300439E+00
        -11   -1    0    0    0    0  0.00000000000E+00  0.00000000000E+00  0.45593999997E+02  0.45594000000E+02  0.51100000000E-03 0.  1.
         11   -1    0    0    0    0 -0.00000000000E+00 -0.00000000000E+00 -0.45593999997E+02  0.45594000000E+02  0.51100000000E-03 0. -1.
    9900012    2    1    2    0    0 -0.31972415619E+02  0.12619505388E+02  0.21718198990E+02  0.50528838128E+02  0.29999933974E+02 0.  0.
         12    1    1    2    0    0  0.31972415619E+02 -0.12619505388E+02 -0.21718198990E+02  0.40659161872E+02  0.00000000000E+00 0. -1.
         11    1    3    3    0    0  0.35964188468E+01  0.87082900770E+00 -0.11414092408E+01  0.38723877645E+01  0.51100000000E-03 0. -1.
        -11    1    3    3    0    0 -0.37013958491E+02  0.99906839730E+01  0.20972156791E+02  0.43699865562E+02  0.51100000000E-03 0.  1.
        -12    1    3    3    0    0  0.14451240249E+01  0.17579924072E+01  0.18874514398E+01  0.29565848015E+01  0.00000000000E+00 0.  1.
</event>
<event>
 7    1  0.2991278E-011  0.5052886E+02  0.7816164E-02  0.1300439E+00
        -11   -1    0    0    0    0  0.00000000000E+00  0.00000000000E+00  0.45593999997E+02  0.45594000000E+02  0.51100000000E-03 0. -1.
         11   -1    0    0    0    0 -0.00000000000E+00 -0.00000000000E+00 -0.45593999997E+02  0.45594000000E+02  0.51100000000E-03 0.  1.
    9900012    2    1    2    0    0 -0.12661581730E+02  0.38636465947E+02  0.27113511777E+00  0.50528859981E+02  0.30000000400E+02 0.  0.
         12    1    1    2    0    0  0.12661581730E+02 -0.38636465947E+02 -0.27113511777E+00  0.40659140019E+02  0.00000000000E+00 0. -1.
         11    1    3    3    0    0 -0.97895080649E+01  0.35922964372E+02  0.56760644353E+01  0.37663132439E+02  0.51100000000E-03 0. -1.
        -11    1    3    3    0    0  0.39619956119E+01  0.27540505033E+01 -0.19065186069E+01  0.51881612218E+01  0.51100000000E-03 0.  1.
         12    1    3    3    0    0 -0.68340692774E+01 -0.40548927929E-01 -0.34984107106E+01  0.76775663204E+01  0.00000000000E+00 0. -1.
</event>
<event>
 7    1  0.2991278E-011  0.5052886E+02  0.7816164E-02  0.1300439E+00
        -11   -1    0    0    0    0  0.00000000000E+00  0.00000000000E+00  0.45593999997E+02  0.45594000000E+02  0.51100000000E-03 0.  1.
         11   -1    0    0    0    0 -0.00000000000E+00 -0.00000000000E+00 -0.45593999997E+02  0.45594000000E+02  0.51100000000E-03 0. -1.
    9900012    2    1    2    0    0  0.17026699183E+02  0.19285049958E+02  0.31485621011E+02  0.50528856288E+02  0.29999989172E+02 0.  0.
         12    1    1    2    0    0 -0.17026699183E+02 -0.19285049958E+02 -0.31485621011E+02  0.40659143712E+02  0.00000000000E+00 0. -1.
         11    1    3    3    0    0 -0.39484507614E+01  0.64744891741E+01  0.81764683329E+01  0.11151856713E+02  0.51100000000E-03 0. -1.
        -11    1    3    3    0    0  0.24126119040E+02  0.12457517833E+02  0.23874953065E+02  0.36156227052E+02  0.51100000000E-03 0.  1.
        -12    1    3    3    0    0 -0.31509690955E+01  0.35304295095E+00 -0.56580038702E+00  0.32207725228E+01  0.00000000000E+00 0.  1.
</event>
<event>
 7    1  0.2991278E-011  0.5052887E+02  0.7816164E-02  0.1300439E+00
        -11   -1    0    0    0    0  0.00000000000E+00  0.00000000000E+00  0.45593999997E+02  0.45594000000E+02  0.51100000000E-03 0. -1.
         11   -1    0    0    0    0 -0.00000000000E+00 -0.00000000000E+00 -0.45593999997E+02  0.45594000000E+02  0.51100000000E-03 0.  1.
    9900012    2    1    2    0    0  0.32839129847E+02 -0.19744932368E+02  0.13597582892E+02  0.50528867399E+02  0.30000022947E+02 0.  0.
         12    1    1    2    0    0 -0.32839129847E+02  0.19744932368E+02 -0.13597582892E+02  0.40659132601E+02  0.00000000000E+00 0. -1.
         11    1    3    3    0    0  0.48233112451E+01  0.29762659574E+01  0.57540498965E+01  0.80766070159E+01  0.51100000000E-03 0. -1.
        -11    1    3    3    0    0  0.25852251273E+02 -0.26105679224E+02  0.41121432401E+01  0.36969651147E+02  0.51100000000E-03 0.  1.
        -12    1    3    3    0    0  0.21635673289E+01  0.33844808983E+01  0.37313897550E+01  0.54826092366E+01  0.00000000000E+00 0.  1.
</event>
<event>
 7    1  0.2991278E-011  0.5052886E+02  0.7816164E-02  0.1300439E+00
        -11   -1    0    0    0    0  0.00000000000E+00  0.00000000000E+00  0.45593999997E+02  0.45594000000E+02  0.51100000000E-03 0. -1.
         11   -1    0    0    0    0 -0.00000000000E+00 -0.00000000000E+00 -0.45593999997E+02  0.45594000000E+02  0.51100000000E-03 0.  1.
    9900012    2    1    2    0    0  0.11364085097E+02  0.27075053698E+02 -0.28124088498E+02  0.50528864290E+02  0.30000013495E+02 0.  0.
         12    1    1    2    0    0 -0.11364085097E+02 -0.27075053698E+02  0.28124088498E+02  0.40659135710E+02  0.00000000000E+00 0. -1.
         11    1    3    3    0    0  0.62707515547E+01 -0.20907717572E+01  0.20430504399E+01  0.69186492151E+01  0.51100000000E-03 0. -1.
        -11    1    3    3    0    0 -0.28752698325E+01  0.90521898349E+01 -0.12371952700E+02  0.15597260378E+02  0.51100000000E-03 0.  1.
         12    1    3    3    0    0  0.79686033753E+01  0.20113635620E+02 -0.17795186238E+02  0.28012954697E+02  0.00000000000E+00 0. -1.
</event>
<event>
 7    1  0.2991278E-011  0.5052886E+02  0.7816164E-02  0.1300439E+00
        -11   -1    0    0    0    0  0.00000000000E+00  0.00000000000E+00  0.45593999997E+02  0.45594000000E+02  0.51100000000E-03 0. -1.
         11   -1    0    0    0    0 -0.00000000000E+00 -0.00000000000E+00 -0.45593999997E+02  0.45594000000E+02  0.51100000000E-03 0.  1.
    9900012    2    1    2    0    0 -0.19727311232E+02  0.34118924414E+02 -0.99948816073E+01  0.50528862405E+02  0.30000007765E+02 0.  0.
         12    1    1    2    0    0  0.19727311232E+02 -0.34118924414E+02  0.99948816073E+01  0.40659137595E+02  0.00000000000E+00 0. -1.
         11    1    3    3    0    0 -0.65142503497E+01  0.21538207510E+02  0.38582013096E+01  0.22830145816E+02  0.51100000000E-03 0. -1.
        -11    1    3    3    0    0  0.54894059915E+00  0.29061565143E+01 -0.10017118021E+02  0.10444603160E+02  0.51100000000E-03 0.  1.
        -12    1    3    3    0    0 -0.13762001482E+02  0.96745603901E+01 -0.38359648961E+01  0.17254113429E+02  0.00000000000E+00 0.  1.
</event>
<event>
 7    1  0.2991278E-011  0.5052889E+02  0.7816164E-02  0.1300439E+00
        -11   -1    0    0    0    0  0.00000000000E+00  0.00000000000E+00  0.45593999997E+02  0.45594000000E+02  0.51100000000E-03 0. -1.
         11   -1    0    0    0    0 -0.00000000000E+00 -0.00000000000E+00 -0.45593999997E+02  0.45594000000E+02  0.51100000000E-03 0.  1.
    9900012    2    1    2    0    0 -0.13655204571E+02  0.80230895721E+01 -0.37447675676E+02  0.50528892882E+02  0.30000100403E+02 0.  0.
         12    1    1    2    0    0  0.13655204571E+02 -0.80230895721E+01  0.37447675676E+02  0.40659107118E+02  0.00000000000E+00 0. -1.
         11    1    3    3    0    0 -0.34591554731E+01  0.73369438731E+01 -0.38121697339E+00  0.81204574149E+01  0.51100000000E-03 0. -1.
        -11    1    3    3    0    0 -0.11585421922E+02  0.34029531383E+00 -0.38604635358E+02  0.40307017670E+02  0.51100000000E-03 0.  1.
        -12    1    3    3    0    0  0.13893728243E+01  0.34585038509E+00  0.15381766558E+01  0.21014177971E+01  0.00000000000E+00 0.  1.
</event>
<event>
 7    1  0.2991278E-011  0.5052886E+02  0.7816164E-02  0.1300439E+00
        -11   -1    0    0    0    0  0.00000000000E+00  0.00000000000E+00  0.45593999997E+02  0.45594000000E+02  0.51100000000E-03 0.  1.
         11   -1    0    0    0    0 -0.00000000000E+00 -0.00000000000E+00 -0.45593999997E+02  0.45594000000E+02  0.51100000000E-03 0. -1.
    9900012    2    1    2    0    0 -0.23558047941E+02  0.22089347094E+02  0.24703139046E+02  0.50528856421E+02  0.29999989578E+02 0.  0.
         12    1    1    2    0    0  0.23558047941E+02 -0.22089347094E+02 -0.24703139046E+02  0.40659143579E+02  0.00000000000E+00 0. -1.
         11    1    3    3    0    0 -0.39528294999E+01  0.27807070851E+01 -0.60471522032E+01  0.77411396434E+01  0.51100000000E-03 0. -1.
        -11    1    3    3    0    0 -0.13640946413E+02  0.10325491981E+02  0.11161316003E+02  0.20427094235E+02  0.51100000000E-03 0.  1.
         12    1    3    3    0    0 -0.59642720276E+01  0.89831480284E+01  0.19588975246E+02  0.22360622543E+02  0.00000000000E+00 0. -1.
</event>
<event>
 7    1  0.2991278E-011  0.5052887E+02  0.7816164E-02  0.1300439E+00
        -11   -1    0    0    0    0  0.00000000000E+00  0.00000000000E+00  0.45593999997E+02  0.45594000000E+02  0.51100000000E-03 0. -1.
         11   -1    0    0    0    0 -0.00000000000E+00 -0.00000000000E+00 -0.45593999997E+02  0.45594000000E+02  0.51100000000E-03 0.  1.
    9900012    2    1    2    0    0 -0.15622577529E+02 -0.37511518067E+02 -0.14093726566E+01  0.50528865139E+02  0.30000016076E+02 0.  0.
         12    1    1    2    0    0  0.15622577529E+02  0.37511518067E+02  0.14093726566E+01  0.40659134861E+02  0.00000000000E+00 0. -1.
         11    1    3    3    0    0 -0.74220006479E+01 -0.24754271080E+02  0.93405637267E+01  0.27479195063E+02  0.51100000000E-03 0. -1.
        -11    1    3    3    0    0 -0.77805054483E+01 -0.14169382989E+02 -0.12734149901E+02  0.20578295685E+02  0.51100000000E-03 0.  1.
        -12    1    3    3    0    0 -0.42007143264E+00  0.14121360019E+01  0.19842135178E+01  0.24713743910E+01  0.00000000000E+00 0.  1.
</event>
<event>
 7    1  0.2991278E-011  0.5052886E+02  0.7816164E-02  0.1300439E+00
        -11   -1    0    0    0    0  0.00000000000E+00  0.00000000000E+00  0.45593999997E+02  0.45594000000E+02  0.51100000000E-03 0.  1.
         11   -1    0    0    0    0 -0.00000000000E+00 -0.00000000000E+00 -0.45593999997E+02  0.45594000000E+02  0.51100000000E-03 0. -1.
    9900012    2    1    2    0    0  0.25524197011E+02  0.27076304900E+02 -0.16387649890E+02  0.50528856022E+02  0.29999988366E+02 0.  0.
         12    1    1    2    0    0 -0.25524197011E+02 -0.27076304900E+02  0.16387649890E+02  0.40659143978E+02  0.00000000000E+00 0. -1.
         11    1    3    3    0    0  0.10152956099E+02 -0.27757873095E+01 -0.17368065535E+01  0.10667896232E+02  0.51100000000E-03 0. -1.
        -11    1    3    3    0    0  0.10829234219E+02  0.15535570921E+02 -0.83974218828E-01  0.18937616787E+02  0.51100000000E-03 0.  1.
         12    1    3    3    0    0  0.45420066924E+01  0.14316521288E+02 -0.14566869117E+02  0.20923343004E+02  0.00000000000E+00 0. -1.
</event>
<event>
 7    1  0.2991278E-011  0.5052886E+02  0.7816164E-02  0.1300439E+00
        -11   -1    0    0    0    0  0.00000000000E+00  0.00000000000E+00  0.45593999997E+02  0.45594000000E+02  0.51100000000E-03 0.  1.
         11   -1    0    0    0    0 -0.00000000000E+00 -0.00000000000E+00 -0.45593999997E+02  0.45594000000E+02  0.51100000000E-03 0. -1.
    9900012    2    1    2    0    0  0.28459530269E+02  0.25274926539E+02  0.14296818505E+02  0.50528858419E+02  0.29999995651E+02 0.  0.
         12    1    1    2    0    0 -0.28459530269E+02 -0.25274926539E+02 -0.14296818505E+02  0.40659141581E+02  0.00000000000E+00 0. -1.
         11    1    3    3    0    0  0.41675195117E+01  0.63326484823E+01 -0.72468481224E+01  0.10487490818E+02  0.51100000000E-03 0. -1.
        -11    1    3    3    0    0  0.23240173251E+02  0.18427326113E+02  0.23446143647E+02  0.37807322737E+02  0.51100000000E-03 0.  1.
        -12    1    3    3    0    0  0.10518375065E+01  0.51495194432E+00 -0.19024770196E+01  0.22340448641E+01  0.00000000000E+00 0.  1.
</event>
<event>
 7    1  0.2991278E-011  0.5052886E+02  0.7816164E-02  0.1300439E+00
        -11   -1    0    0    0    0  0.00000000000E+00  0.00000000000E+00  0.45593999997E+02  0.45594000000E+02  0.51100000000E-03 0.  1.
         11   -1    0    0    0    0 -0.00000000000E+00 -0.00000000000E+00 -0.45593999997E+02  0.45594000000E+02  0.51100000000E-03 0. -1.
    9900012    2    1    2    0    0 -0.88086359135E+01 -0.25297012368E+02  0.30588148884E+02  0.50528858917E+02  0.29999997166E+02 0.  0.
         12    1    1    2    0    0  0.88086359135E+01  0.25297012368E+02 -0.30588148884E+02  0.40659141083E+02  0.00000000000E+00 0. -1.
         11    1    3    3    0    0 -0.10266656078E+01 -0.18921219645E+02  0.19477915084E+02  0.27174542708E+02  0.51100000000E-03 0. -1.
        -11    1    3    3    0    0 -0.12933488297E+02 -0.57603145029E+01  0.43076148743E+01  0.14799050269E+02  0.51100000000E-03 0.  1.
         12    1    3    3    0    0  0.51515179914E+01 -0.61547822039E+00  0.68026189255E+01  0.85552659398E+01  0.00000000000E+00 0. -1.
</event>
<event>
 7    1  0.2991278E-011  0.5052887E+02  0.7816164E-02  0.1300439E+00
        -11   -1    0    0    0    0  0.00000000000E+00  0.00000000000E+00  0.45593999997E+02  0.45594000000E+02  0.51100000000E-03 0. -1.
         11   -1    0    0    0    0 -0.00000000000E+00 -0.00000000000E+00 -0.45593999997E+02  0.45594000000E+02  0.51100000000E-03 0.  1.
    9900012    2    1    2    0    0  0.39406345697E+02 -0.67981587216E-01 -0.10014983889E+02  0.50528873042E+02  0.30000040099E+02 0.  0.
         12    1    1    2    0    0 -0.39406345697E+02  0.67981587216E-01  0.10014983889E+02  0.40659126958E+02  0.00000000000E+00 0. -1.
         11    1    3    3    0    0  0.81919683221E+01 -0.97231143253E+01 -0.39798701245E+01  0.13322412080E+02  0.51100000000E-03 0. -1.
        -11    1    3    3    0    0  0.19604520168E+02  0.60452445524E+01  0.46324037544E+01  0.21031912836E+02  0.51100000000E-03 0.  1.
         12    1    3    3    0    0  0.11609857207E+02  0.36098881857E+01 -0.10667517519E+02  0.16174548126E+02  0.00000000000E+00 0. -1.
</event>
<event>
 7    1  0.2991278E-011  0.5052886E+02  0.7816164E-02  0.1300439E+00
        -11   -1    0    0    0    0  0.00000000000E+00  0.00000000000E+00  0.45593999997E+02  0.45594000000E+02  0.51100000000E-03 0. -1.
         11   -1    0    0    0    0 -0.00000000000E+00 -0.00000000000E+00 -0.45593999997E+02  0.45594000000E+02  0.51100000000E-03 0.  1.
    9900012    2    1    2    0    0  0.16132045131E+01 -0.36040520237E+02 -0.18752176149E+02  0.50528860338E+02  0.30000001483E+02 0.  0.
         12    1    1    2    0    0 -0.16132045131E+01  0.36040520237E+02  0.18752176149E+02  0.40659139662E+02  0.00000000000E+00 0. -1.
         11    1    3    3    0    0  0.88921934464E+01 -0.16132538240E+02  0.26607741077E+01  0.18612082459E+02  0.51100000000E-03 0. -1.
        -11    1    3    3    0    0 -0.19157722928E+01 -0.16968296720E+02 -0.18386307993E+02  0.25092819669E+02  0.51100000000E-03 0.  1.
        -12    1    3    3    0    0 -0.53632166405E+01 -0.29396852761E+01 -0.30266422643E+01  0.68239582100E+01  0.00000000000E+00 0.  1.
</event>
<event>
 7    1  0.2991278E-011  0.5052888E+02  0.7816164E-02  0.1300439E+00
        -11   -1    0    0    0    0  0.00000000000E+00  0.00000000000E+00  0.45593999997E+02  0.45594000000E+02  0.51100000000E-03 0.  1.
         11   -1    0    0    0    0 -0.00000000000E+00 -0.00000000000E+00 -0.45593999997E+02  0.45594000000E+02  0.51100000000E-03 0. -1.
    9900012    2    1    2    0    0  0.32390208766E+02 -0.21614618398E+02  0.11698149995E+02  0.50528879674E+02  0.30000060257E+02 0.  0.
         12    1    1    2    0    0 -0.32390208766E+02  0.21614618398E+02 -0.11698149995E+02  0.40659120326E+02  0.00000000000E+00 0. -1.
         11    1    3    3    0    0  0.50353212925E+01  0.34912427603E+01 -0.29327168175E+01  0.67929422728E+01  0.51100000000E-03 0. -1.
        -11    1    3    3    0    0  0.27919733134E+02 -0.17103115923E+02  0.14238132288E+02  0.35703676056E+02  0.51100000000E-03 0.  1.
        -12    1    3    3    0    0 -0.56484566072E+00 -0.80027452352E+01  0.39273452389E+00  0.80322613457E+01  0.00000000000E+00 0.  1.
</event>
<event>
 7    1  0.2991278E-011  0.5052887E+02  0.7816164E-02  0.1300439E+00
        -11   -1    0    0    0    0  0.00000000000E+00  0.00000000000E+00  0.45593999997E+02  0.45594000000E+02  0.51100000000E-03 0.  1.
         11   -1    0    0    0    0 -0.00000000000E+00 -0.00000000000E+00 -0.45593999997E+02  0.45594000000E+02  0.51100000000E-03 0. -1.
    9900012    2    1    2    0    0 -0.19477979689E+02  0.24756830332E+02  0.25707436895E+02  0.50528872457E+02  0.30000038320E+02 0.  0.
         12    1    1    2    0    0  0.19477979689E+02 -0.24756830332E+02 -0.25707436895E+02  0.40659127543E+02  0.00000000000E+00 0. -1.
         11    1    3    3    0    0  0.89162366209E+00 -0.42531987009E+01  0.36878899414E+01  0.56995810745E+01  0.51100000000E-03 0. -1.
        -11    1    3    3    0    0 -0.13594418222E+02  0.25074330805E+02  0.23375559391E+02  0.36877459907E+02  0.51100000000E-03 0.  1.
         12    1    3    3    0    0 -0.67751851293E+01  0.39356982278E+01 -0.13560124378E+01  0.79518314751E+01  0.00000000000E+00 0. -1.
</event>
<event>
 7    1  0.2991278E-011  0.5052886E+02  0.7816164E-02  0.1300439E+00
        -11   -1    0    0    0    0  0.00000000000E+00  0.00000000000E+00  0.45593999997E+02  0.45594000000E+02  0.51100000000E-03 0. -1.
         11   -1    0    0    0    0 -0.00000000000E+00 -0.00000000000E+00 -0.45593999997E+02  0.45594000000E+02  0.51100000000E-03 0.  1.
    9900012    2    1    2    0    0 -0.38741018023E+02  0.40199199710E+01 -0.11667882365E+02  0.50528859418E+02  0.29999998686E+02 0.  0.
         12    1    1    2    0    0  0.38741018023E+02 -0.40199199710E+01  0.11667882365E+02  0.40659140582E+02  0.00000000000E+00 0. -1.
         11    1    3    3    0    0 -0.11758372458E+02  0.17021993980E+01  0.17666625594E+01  0.12011573690E+02  0.51100000000E-03 0. -1.
        -11    1    3    3    0    0  0.32882203045E+00 -0.59814291569E+01 -0.70794296639E+01  0.92738311023E+01  0.51100000000E-03 0.  1.
        -12    1    3    3    0    0 -0.27311467595E+02  0.82991497299E+01 -0.63551152600E+01  0.29243454625E+02  0.00000000000E+00 0.  1.
</event>
<event>
 7    1  0.2991278E-011  0.5052886E+02  0.7816164E-02  0.1300439E+00
        -11   -1    0    0    0    0  0.00000000000E+00  0.00000000000E+00  0.45593999997E+02  0.45594000000E+02  0.51100000000E-03 0. -1.
         11   -1    0    0    0    0 -0.00000000000E+00 -0.00000000000E+00 -0.45593999997E+02  0.45594000000E+02  0.51100000000E-03 0.  1.
    9900012    2    1    2    0    0  0.21696015424E+02 -0.23428691597E+01 -0.34306843397E+02  0.50528860499E+02  0.30000001972E+02 0.  0.
         12    1    1    2    0    0 -0.21696015424E+02  0.23428691597E+01  0.34306843397E+02  0.40659139501E+02  0.00000000000E+00 0. -1.
         11    1    3    3    0    0 -0.31871405334E+01  0.64827913412E+01 -0.69243840705E+01  0.10006575007E+02  0.51100000000E-03 0. -1.
        -11    1    3    3    0    0  0.16162427892E+02 -0.79489970304E+01 -0.89508733099E+01  0.20112900398E+02  0.51100000000E-03 0.  1.
         12    1    3    3    0    0  0.87207280646E+01 -0.87666347054E+00 -0.18431586016E+02  0.20409385093E+02  0.00000000000E+00 0. -1.
</event>
<event>
 7    1  0.2991278E-011  0.5052886E+02  0.7816164E-02  0.1300439E+00
        -11   -1    0    0    0    0  0.00000000000E+00  0.00000000000E+00  0.45593999997E+02  0.45594000000E+02  0.51100000000E-03 0. -1.
         11   -1    0    0    0    0 -0.00000000000E+00 -0.00000000000E+00 -0.45593999997E+02  0.45594000000E+02  0.51100000000E-03 0.  1.
    9900012    2    1    2    0    0 -0.43237867583E+01 -0.19522924983E+02 -0.35402343511E+02  0.50528860094E+02  0.30000000741E+02 0.  0.
         12    1    1    2    0    0  0.43237867583E+01  0.19522924983E+02  0.35402343511E+02  0.40659139906E+02  0.00000000000E+00 0. -1.
         11    1    3    3    0    0 -0.81418273236E+01  0.35434593808E+01 -0.18033904098E+02  0.20101421687E+02  0.51100000000E-03 0. -1.
        -11    1    3    3    0    0  0.52237375802E+01 -0.15328639245E+02 -0.76064749558E+01  0.17891704137E+02  0.51100000000E-03 0.  1.
        -12    1    3    3    0    0 -0.14056970149E+01 -0.77377451186E+01 -0.97619644576E+01  0.12535734270E+02  0.00000000000E+00 0.  1.
</event>
<event>
 7    1  0.2991278E-011  0.5052885E+02  0.7816164E-02  0.1300439E+00
        -11   -1    0    0    0    0  0.00000000000E+00  0.00000000000E+00  0.45593999997E+02  0.45594000000E+02  0.51100000000E-03 0. -1.
         11   -1    0    0    0    0 -0.00000000000E+00 -0.00000000000E+00 -0.45593999997E+02  0.45594000000E+02  0.51100000000E-03 0.  1.
    9900012    2    1    2    0    0  0.32101846018E+01 -0.40323608408E+02  0.41070563053E+01  0.50528848610E+02  0.29999965836E+02 0.  0.
         12    1    1    2    0    0 -0.32101846018E+01  0.40323608408E+02 -0.41070563053E+01  0.40659151390E+02  0.00000000000E+00 0. -1.
         11    1    3    3    0    0  0.10460709535E+02 -0.35760806799E+01 -0.28874309395E+01  0.11425937803E+02  0.51100000000E-03 0. -1.
        -11    1    3    3    0    0 -0.55491610729E+01 -0.34463526169E+02  0.42806059255E+01  0.35168898361E+02  0.51100000000E-03 0.  1.
         12    1    3    3    0    0 -0.17013638599E+01 -0.22840015596E+01  0.27138813193E+01  0.39340124458E+01  0.00000000000E+00 0. -1.
</event>
<event>
 7    1  0.2991278E-011  0.5052886E+02  0.7816164E-02  0.1300439E+00
        -11   -1    0    0    0    0  0.00000000000E+00  0.00000000000E+00  0.45593999997E+02  0.45594000000E+02  0.51100000000E-03 0. -1.
         11   -1    0    0    0    0 -0.00000000000E+00 -0.00000000000E+00 -0.45593999997E+02  0.45594000000E+02  0.51100000000E-03 0.  1.
    9900012    2    1    2    0    0  0.10710833714E+02 -0.32011750889E+02 -0.22664757585E+02  0.50528863386E+02  0.30000010748E+02 0.  0.
         12    1    1    2    0    0 -0.10710833714E+02  0.32011750889E+02  0.22664757585E+02  0.40659136614E+02  0.00000000000E+00 0. -1.
         11    1    3    3    0    0 -0.52155197053E+01 -0.82446116077E+00 -0.17996077399E+01  0.55785276086E+01  0.51100000000E-03 0. -1.
        -11    1    3    3    0    0  0.12630343869E+02 -0.12284246860E+02 -0.18614409179E+02  0.25630539138E+02  0.51100000000E-03 0.  1.
        -12    1    3    3    0    0  0.32960095502E+01 -0.18903042868E+02 -0.22507406659E+01  0.19319796639E+02  0.00000000000E+00 0.  1.
</event>
<event>
 7    1  0.2991278E-011  0.5052885E+02  0.7816164E-02  0.1300439E+00
        -11   -1    0    0    0    0  0.00000000000E+00  0.00000000000E+00  0.45593999997E+02  0.45594000000E+02  0.51100000000E-03 0. -1.
         11   -1    0    0    0    0 -0.00000000000E+00 -0.00000000000E+00 -0.45593999997E+02  0.45594000000E+02  0.51100000000E-03 0.  1.
    9900012    2    1    2    0    0 -0.35043735514E+02  0.17893107321E+02  0.10244022663E+02  0.50528847418E+02  0.29999962212E+02 0.  0.
         12    1    1    2    0    0  0.35043735514E+02 -0.17893107321E+02 -0.10244022663E+02  0.40659152582E+02  0.00000000000E+00 0. -1.
         11    1    3    3    0    0 -0.16958199882E+02 -0.34566025870E+00  0.12659840127E+02  0.21165339037E+02  0.51100000000E-03 0. -1.
        -11    1    3    3    0    0 -0.17937891701E+02  0.20182308796E+02 -0.11239443691E+01  0.27025114213E+02  0.51100000000E-03 0.  1.
         12    1    3    3    0    0 -0.14764393072E+00 -0.19435412166E+01 -0.12918730950E+01  0.23383941679E+01  0.00000000000E+00 0. -1.
</event>
<event>
 7    1  0.2991278E-011  0.5052886E+02  0.7816164E-02  0.1300439E+00
        -11   -1    0    0    0    0  0.00000000000E+00  0.00000000000E+00  0.45593999997E+02  0.45594000000E+02  0.51100000000E-03 0. -1.
         11   -1    0    0    0    0 -0.00000000000E+00 -0.00000000000E+00 -0.45593999997E+02  0.45594000000E+02  0.51100000000E-03 0.  1.
    9900012    2    1    2    0    0 -0.66596421090E+00 -0.18993244286E+02 -0.35944111423E+02  0.50528856098E+02  0.29999988596E+02 0.  0.
         12    1    1    2    0    0  0.66596421090E+00  0.18993244286E+02  0.35944111423E+02  0.40659143902E+02  0.00000000000E+00 0. -1.
         11    1    3    3    0    0 -0.33250649234E+01 -0.10713816920E+02 -0.56231600677E+01  0.12548380738E+02  0.51100000000E-03 0. -1.
        -11    1    3    3    0    0  0.21658734552E+01  0.13763518010E+01 -0.27894478410E+02  0.28012270135E+02  0.51100000000E-03 0.  1.
        -12    1    3    3    0    0  0.49322725735E+00 -0.96557791667E+01 -0.24264729453E+01  0.99682052245E+01  0.00000000000E+00 0.  1.
</event>
<event>
 7    1  0.2991278E-011  0.5052886E+02  0.7816164E-02  0.1300439E+00
        -11   -1    0    0    0    0  0.00000000000E+00  0.00000000000E+00  0.45593999997E+02  0.45594000000E+02  0.51100000000E-03 0.  1.
         11   -1    0    0    0    0 -0.00000000000E+00 -0.00000000000E+00 -0.45593999997E+02  0.45594000000E+02  0.51100000000E-03 0. -1.
    9900012    2    1    2    0    0 -0.21718323009E+02 -0.26884358883E+02  0.21417544008E+02  0.50528862058E+02  0.30000006710E+02 0.  0.
         12    1    1    2    0    0  0.21718323009E+02  0.26884358883E+02 -0.21417544008E+02  0.40659137942E+02  0.00000000000E+00 0. -1.
         11    1    3    3    0    0  0.46502941951E+01 -0.14162647455E+02  0.12506457616E+02  0.19458090898E+02  0.51100000000E-03 0. -1.
        -11    1    3    3    0    0 -0.25902339277E+02 -0.11937873529E+02  0.94074822625E+01  0.30032394630E+02  0.51100000000E-03 0.  1.
         12    1    3    3    0    0 -0.46627792715E+00 -0.78383789875E+00 -0.49639587046E+00  0.10383765295E+01  0.00000000000E+00 0. -1.
</event>
<event>
 7    1  0.2991278E-011  0.5052885E+02  0.7816164E-02  0.1300439E+00
        -11   -1    0    0    0    0  0.00000000000E+00  0.00000000000E+00  0.45593999997E+02  0.45594000000E+02  0.51100000000E-03 0.  1.
         11   -1    0    0    0    0 -0.00000000000E+00 -0.00000000000E+00 -0.45593999997E+02  0.45594000000E+02  0.51100000000E-03 0. -1.
    9900012    2    1    2    0    0  0.40088307059E+02 -0.67487933361E+01  0.74005995511E+00  0.50528852651E+02  0.29999978119E+02 0.  0.
         12    1    1    2    0    0 -0.40088307059E+02  0.67487933361E+01 -0.74005995511E+00  0.40659147349E+02  0.00000000000E+00 0. -1.
         11    1    3    3    0    0 -0.68478529748E+00 -0.64237624946E+00 -0.81460977192E+01  0.82000296622E+01  0.51100000000E-03 0. -1.
        -11    1    3    3    0    0  0.30042284301E+02 -0.31874257710E+01  0.74482739678E+01  0.31115515654E+02  0.51100000000E-03 0.  1.
         12    1    3    3    0    0  0.10730808056E+02 -0.29189913156E+01  0.14378837064E+01  0.11213307335E+02  0.00000000000E+00 0. -1.
</event>
<event>
 7    1  0.2991278E-011  0.5052885E+02  0.7816164E-02  0.1300439E+00
        -11   -1    0    0    0    0  0.00000000000E+00  0.00000000000E+00  0.45593999997E+02  0.45594000000E+02  0.51100000000E-03 0. -1.
         11   -1    0    0    0    0 -0.00000000000E+00 -0.00000000000E+00 -0.45593999997E+02  0.45594000000E+02  0.51100000000E-03 0.  1.
    9900012    2    1    2    0    0 -0.17661265807E+02 -0.36530593361E+02 -0.26002966316E+01  0.50528854611E+02  0.29999984076E+02 0.  0.
         12    1    1    2    0    0  0.17661265807E+02  0.36530593361E+02  0.26002966316E+01  0.40659145389E+02  0.00000000000E+00 0. -1.
         11    1    3    3    0    0 -0.12898098500E+02 -0.13552050927E+02 -0.67273156964E+01  0.19881544357E+02  0.51100000000E-03 0. -1.
        -11    1    3    3    0    0  0.28867717713E+01 -0.19947735314E+02 -0.21893336799E+01  0.20274091290E+02  0.51100000000E-03 0.  1.
         12    1    3    3    0    0 -0.76499390779E+01 -0.30308071197E+01  0.63163527446E+01  0.10373218965E+02  0.00000000000E+00 0. -1.
</event>
<event>
 7    1  0.2991278E-011  0.5052886E+02  0.7816164E-02  0.1300439E+00
        -11   -1    0    0    0    0  0.00000000000E+00  0.00000000000E+00  0.45593999997E+02  0.45594000000E+02  0.51100000000E-03 0.  1.
         11   -1    0    0    0    0 -0.00000000000E+00 -0.00000000000E+00 -0.45593999997E+02  0.45594000000E+02  0.51100000000E-03 0. -1.
    9900012    2    1    2    0    0 -0.99320983013E+01  0.30283179356E+02  0.25247732696E+02  0.50528861607E+02  0.30000005340E+02 0.  0.
         12    1    1    2    0    0  0.99320983013E+01 -0.30283179356E+02 -0.25247732696E+02  0.40659138393E+02  0.00000000000E+00 0. -1.
         11    1    3    3    0    0 -0.50849261001E+01  0.68437727175E+01  0.21865467674E+02  0.23468966218E+02  0.51100000000E-03 0. -1.
        -11    1    3    3    0    0  0.21257337415E+01  0.17668030742E+02  0.21491845458E+01  0.17924760771E+02  0.51100000000E-03 0.  1.
         12    1    3    3    0    0 -0.69729059426E+01  0.57713758969E+01  0.12330804757E+01  0.91351346180E+01  0.00000000000E+00 0. -1.
</event>
<event>
 7    1  0.2991278E-011  0.5052887E+02  0.7816164E-02  0.1300439E+00
        -11   -1    0    0    0    0  0.00000000000E+00  0.00000000000E+00  0.45593999997E+02  0.45594000000E+02  0.51100000000E-03 0.  1.
         11   -1    0    0    0    0 -0.00000000000E+00 -0.00000000000E+00 -0.45593999997E+02  0.45594000000E+02  0.51100000000E-03 0. -1.
    9900012    2    1    2    0    0  0.82695054642E+01  0.35914376975E+02  0.17173758752E+02  0.50528865924E+02  0.30000018463E+02 0.  0.
         12    1    1    2    0    0 -0.82695054642E+01 -0.35914376975E+02 -0.17173758752E+02  0.40659134076E+02  0.00000000000E+00 0. -1.
         11    1    3    3    0    0  0.97224633176E+01  0.32242263523E+02  0.15988319245E+02  0.37278897550E+02  0.51100000000E-03 0.  1.
        -11    1    3    3    0    0 -0.55691277207E+01  0.49985936451E+01 -0.21526936014E+01  0.77868614988E+01  0.51100000000E-03 0. -1.
        -12    1    3    3    0    0  0.41161698672E+01 -0.13264801930E+01  0.33381331084E+01  0.54631068750E+01  0.00000000000E+00 0.  1.
</event>
<event>
 7    1  0.2991278E-011  0.5052888E+02  0.7816164E-02  0.1300439E+00
        -11   -1    0    0    0    0  0.00000000000E+00  0.00000000000E+00  0.45593999997E+02  0.45594000000E+02  0.51100000000E-03 0. -1.
         11   -1    0    0    0    0 -0.00000000000E+00 -0.00000000000E+00 -0.45593999997E+02  0.45594000000E+02  0.51100000000E-03 0.  1.
    9900012    2    1    2    0    0 -0.34771965657E+02  0.19501722971E+02 -0.79848329265E+01  0.50528876161E+02  0.30000049580E+02 0.  0.
         12    1    1    2    0    0  0.34771965657E+02 -0.19501722971E+02  0.79848329265E+01  0.40659123839E+02  0.00000000000E+00 0. -1.
         11    1    3    3    0    0 -0.19953371131E+02  0.16941848191E+02  0.84233099121E+01  0.27497552432E+02  0.51100000000E-03 0. -1.
        -11    1    3    3    0    0 -0.36502771727E+01  0.15811351917E+01 -0.82727081877E+01  0.91794451331E+01  0.51100000000E-03 0.  1.
         12    1    3    3    0    0 -0.11168317353E+02  0.97873958815E+00 -0.81354346509E+01  0.13851878596E+02  0.00000000000E+00 0. -1.
</event>
<event>
 7    1  0.2991278E-011  0.5052886E+02  0.7816164E-02  0.1300439E+00
        -11   -1    0    0    0    0  0.00000000000E+00  0.00000000000E+00  0.45593999997E+02  0.45594000000E+02  0.51100000000E-03 0.  1.
         11   -1    0    0    0    0 -0.00000000000E+00 -0.00000000000E+00 -0.45593999997E+02  0.45594000000E+02  0.51100000000E-03 0. -1.
    9900012    2    1    2    0    0 -0.52675877453E+01 -0.36595239547E+01  0.40150046907E+02  0.50528857573E+02  0.29999993080E+02 0.  0.
         12    1    1    2    0    0  0.52675877453E+01  0.36595239547E+01 -0.40150046907E+02  0.40659142427E+02  0.00000000000E+00 0. -1.
         11    1    3    3    0    0  0.25220685207E+01 -0.13210103054E+02  0.17912707093E+02  0.22399391241E+02  0.51100000000E-03 0. -1.
        -11    1    3    3    0    0 -0.10385861118E+02  0.45767660241E+01  0.17090016641E+02  0.20515398301E+02  0.51100000000E-03 0.  1.
         12    1    3    3    0    0  0.25962048519E+01  0.49738130748E+01  0.51473231728E+01  0.76140680310E+01  0.00000000000E+00 0. -1.
</event>
<event>
 7    1  0.2991278E-011  0.5052887E+02  0.7816164E-02  0.1300439E+00
        -11   -1    0    0    0    0  0.00000000000E+00  0.00000000000E+00  0.45593999997E+02  0.45594000000E+02  0.51100000000E-03 0. -1.
         11   -1    0    0    0    0 -0.00000000000E+00 -0.00000000000E+00 -0.45593999997E+02  0.45594000000E+02  0.51100000000E-03 0.  1.
    9900012    2    1    2    0    0 -0.41818245514E+01 -0.36320422253E+02 -0.17790572657E+02  0.50528865667E+02  0.30000017683E+02 0.  0.
         12    1    1    2    0    0  0.41818245514E+01  0.36320422253E+02  0.17790572657E+02  0.40659134333E+02  0.00000000000E+00 0. -1.
         11    1    3    3    0    0  0.86938870569E+01 -0.57824760856E+01 -0.86127924568E+01  0.13535172552E+02  0.51100000000E-03 0. -1.
        -11    1    3    3    0    0 -0.72564178565E+01 -0.21797195021E+02 -0.12410582074E+02  0.26111220932E+02  0.51100000000E-03 0.  1.
        -12    1    3    3    0    0 -0.56192937518E+01 -0.87407511468E+01  0.32328018739E+01  0.10882472184E+02  0.00000000000E+00 0.  1.
</event>
<event>
 7    1  0.2991278E-011  0.5052886E+02  0.7816164E-02  0.1300439E+00
        -11   -1    0    0    0    0  0.00000000000E+00  0.00000000000E+00  0.45593999997E+02  0.45594000000E+02  0.51100000000E-03 0. -1.
         11   -1    0    0    0    0 -0.00000000000E+00 -0.00000000000E+00 -0.45593999997E+02  0.45594000000E+02  0.51100000000E-03 0.  1.
    9900012    2    1    2    0    0 -0.37773352975E+02  0.93312097454E+01 -0.11801187347E+02  0.50528859661E+02  0.29999999425E+02 0.  0.
         12    1    1    2    0    0  0.37773352975E+02 -0.93312097454E+01  0.11801187347E+02  0.40659140339E+02  0.00000000000E+00 0. -1.
         11    1    3    3    0    0  0.22033843287E+01  0.40646419221E+01 -0.82364656620E+01  0.94454001142E+01  0.51100000000E-03 0. -1.
        -11    1    3    3    0    0 -0.33782579254E+02  0.41929182128E+01 -0.39735872173E+00  0.34044105487E+02  0.51100000000E-03 0.  1.
         12    1    3    3    0    0 -0.61941580499E+01  0.10736496104E+01 -0.31673629636E+01  0.70393540596E+01  0.00000000000E+00 0. -1.
</event>
<event>
 7    1  0.2991278E-011  0.5052888E+02  0.7816164E-02  0.1300439E+00
        -11   -1    0    0    0    0  0.00000000000E+00  0.00000000000E+00  0.45593999997E+02  0.45594000000E+02  0.51100000000E-03 0.  1.
         11   -1    0    0    0    0 -0.00000000000E+00 -0.00000000000E+00 -0.45593999997E+02  0.45594000000E+02  0.51100000000E-03 0. -1.
    9900012    2    1    2    0    0  0.36419350607E+02  0.11819582781E+02 -0.13678174680E+02  0.50528879273E+02  0.30000059038E+02 0.  0.
         12    1    1    2    0    0 -0.36419350607E+02 -0.11819582781E+02  0.13678174680E+02  0.40659120727E+02  0.00000000000E+00 0. -1.
         11    1    3    3    0    0  0.33045663298E+02  0.96825318991E+01 -0.20467508113E+02  0.40058534365E+02  0.51100000000E-03 0. -1.
        -11    1    3    3    0    0  0.54729019679E+01  0.11602868585E+01  0.53692322153E+01  0.77541973400E+01  0.51100000000E-03 0.  1.
         12    1    3    3    0    0 -0.20992146597E+01  0.97676402324E+00  0.14201012179E+01  0.27161475685E+01  0.00000000000E+00 0. -1.
</event>
<event>
 7    1  0.2991278E-011  0.5052886E+02  0.7816164E-02  0.1300439E+00
        -11   -1    0    0    0    0  0.00000000000E+00  0.00000000000E+00  0.45593999997E+02  0.45594000000E+02  0.51100000000E-03 0. -1.
         11   -1    0    0    0    0 -0.00000000000E+00 -0.00000000000E+00 -0.45593999997E+02  0.45594000000E+02  0.51100000000E-03 0.  1.
    9900012    2    1    2    0    0  0.36995180296E+02  0.14949485419E+02  0.78125167006E+01  0.50528857158E+02  0.29999991817E+02 0.  0.
         12    1    1    2    0    0 -0.36995180296E+02 -0.14949485419E+02 -0.78125167006E+01  0.40659142842E+02  0.00000000000E+00 0. -1.
         11    1    3    3    0    0  0.10365035262E+02  0.12390417395E+02 -0.63609254491E+01  0.17361387388E+02  0.51100000000E-03 0. -1.
        -11    1    3    3    0    0  0.24998565142E+02  0.62139526418E+01  0.10795323868E+02  0.27929920950E+02  0.51100000000E-03 0.  1.
         12    1    3    3    0    0  0.16315798921E+01 -0.36548846178E+01  0.33781182817E+01  0.52375488197E+01  0.00000000000E+00 0. -1.
</event>
<event>
 7    1  0.2991278E-011  0.5052886E+02  0.7816164E-02  0.1300439E+00
        -11   -1    0    0    0    0  0.00000000000E+00  0.00000000000E+00  0.45593999997E+02  0.45594000000E+02  0.51100000000E-03 0. -1.
         11   -1    0    0    0    0 -0.00000000000E+00 -0.00000000000E+00 -0.45593999997E+02  0.45594000000E+02  0.51100000000E-03 0.  1.
    9900012    2    1    2    0    0 -0.20291714591E+02 -0.34513416127E+02 -0.70877621071E+01  0.50528856558E+02  0.29999989993E+02 0.  0.
         12    1    1    2    0    0  0.20291714591E+02  0.34513416127E+02  0.70877621071E+01  0.40659143442E+02  0.00000000000E+00 0. -1.
         11    1    3    3    0    0 -0.46629784795E+01 -0.96945101900E+01 -0.15676782960E+02  0.19012848823E+02  0.51100000000E-03 0. -1.
        -11    1    3    3    0    0 -0.12248981229E+02 -0.15290778800E+02  0.86242603999E+01  0.21406151573E+02  0.51100000000E-03 0.  1.
         12    1    3    3    0    0 -0.33797548829E+01 -0.95281271364E+01 -0.35239547314E-01  0.10109856162E+02  0.00000000000E+00 0. -1.
</event>
<event>
 7    1  0.2991278E-011  0.5052886E+02  0.7816164E-02  0.1300439E+00
        -11   -1    0    0    0    0  0.00000000000E+00  0.00000000000E+00  0.45593999997E+02  0.45594000000E+02  0.51100000000E-03 0.  1.
         11   -1    0    0    0    0 -0.00000000000E+00 -0.00000000000E+00 -0.45593999997E+02  0.45594000000E+02  0.51100000000E-03 0. -1.
    9900012    2    1    2    0    0 -0.11941136163E+02 -0.36784242857E+02  0.12549686845E+02  0.50528857174E+02  0.29999991865E+02 0.  0.
         12    1    1    2    0    0  0.11941136163E+02  0.36784242857E+02 -0.12549686845E+02  0.40659142826E+02  0.00000000000E+00 0. -1.
         11    1    3    3    0    0 -0.62986234135E+00 -0.84399520094E+01  0.41031339127E+00  0.84733626046E+01  0.51100000000E-03 0. -1.
        -11    1    3    3    0    0 -0.10520052110E+02 -0.16003242580E+01  0.10956900128E+02  0.15273709268E+02  0.51100000000E-03 0.  1.
        -12    1    3    3    0    0 -0.79122171195E+00 -0.26743966590E+02  0.11824733258E+01  0.26781785302E+02  0.00000000000E+00 0.  1.
</event>
<event>
 7    1  0.2991278E-011  0.5052886E+02  0.7816164E-02  0.1300439E+00
        -11   -1    0    0    0    0  0.00000000000E+00  0.00000000000E+00  0.45593999997E+02  0.45594000000E+02  0.51100000000E-03 0. -1.
         11   -1    0    0    0    0 -0.00000000000E+00 -0.00000000000E+00 -0.45593999997E+02  0.45594000000E+02  0.51100000000E-03 0.  1.
    9900012    2    1    2    0    0  0.99950476958E+00  0.37260570175E+02 -0.16242433986E+02  0.50528858822E+02  0.29999996875E+02 0.  0.
         12    1    1    2    0    0 -0.99950476958E+00 -0.37260570175E+02  0.16242433986E+02  0.40659141178E+02  0.00000000000E+00 0. -1.
         11    1    3    3    0    0 -0.90015748208E+01  0.18784770145E+02 -0.16701468173E+02  0.26698969607E+02  0.51100000000E-03 0.  1.
        -11    1    3    3    0    0  0.74911017783E+01  0.31143719068E+01  0.14160598919E+01  0.82353593792E+01  0.51100000000E-03 0. -1.
         12    1    3    3    0    0  0.25099778121E+01  0.15361428123E+02 -0.95702570489E+00  0.15594529836E+02  0.00000000000E+00 0. -1.
</event>
<event>
 7    1  0.2991278E-011  0.5052879E+02  0.7816164E-02  0.1300439E+00
        -11   -1    0    0    0    0  0.00000000000E+00  0.00000000000E+00  0.45593999997E+02  0.45594000000E+02  0.51100000000E-03 0. -1.
         11   -1    0    0    0    0 -0.00000000000E+00 -0.00000000000E+00 -0.45593999997E+02  0.45594000000E+02  0.51100000000E-03 0.  1.
    9900012    2    1    2    0    0 -0.16846168467E+02  0.36985881191E+02 -0.11925425459E+01  0.50528794926E+02  0.29999802656E+02 0.  0.
         12    1    1    2    0    0  0.16846168467E+02 -0.36985881191E+02  0.11925425459E+01  0.40659205074E+02  0.00000000000E+00 0. -1.
         11    1    3    3    0    0 -0.17722425641E+02  0.60721605813E+01  0.26006486895E+01  0.18913457605E+02  0.51100000000E-03 0. -1.
        -11    1    3    3    0    0 -0.57205493162E+00  0.28867018437E+02 -0.36700785382E+01  0.29105007766E+02  0.51100000000E-03 0.  1.
         12    1    3    3    0    0  0.14483121051E+01  0.20467021728E+01 -0.12311269722E+00  0.25103295548E+01  0.00000000000E+00 0. -1.
</event>
<event>
 7    1  0.2991278E-011  0.5052879E+02  0.7816164E-02  0.1300439E+00
        -11   -1    0    0    0    0  0.00000000000E+00  0.00000000000E+00  0.45593999997E+02  0.45594000000E+02  0.51100000000E-03 0.  1.
         11   -1    0    0    0    0 -0.00000000000E+00 -0.00000000000E+00 -0.45593999997E+02  0.45594000000E+02  0.51100000000E-03 0. -1.
    9900012    2    1    2    0    0  0.17503814880E+02 -0.29370932797E+02  0.22003096880E+02  0.50528788239E+02  0.29999782330E+02 0.  0.
         12    1    1    2    0    0 -0.17503814880E+02  0.29370932797E+02 -0.22003096880E+02  0.40659211761E+02  0.00000000000E+00 0. -1.
         11    1    3    3    0    0 -0.53179959049E+00 -0.15130591671E+02  0.21014227518E+02  0.25900103737E+02  0.51100000000E-03 0. -1.
        -11    1    3    3    0    0  0.69363005148E+01 -0.10455202601E+02 -0.15131452701E+01  0.12637766224E+02  0.51100000000E-03 0.  1.
         12    1    3    3    0    0  0.11099313956E+02 -0.37851385253E+01  0.25020146320E+01  0.11990918278E+02  0.00000000000E+00 0. -1.
</event>
<event>
 7    1  0.2991278E-011  0.5052885E+02  0.7816164E-02  0.1300439E+00
        -11   -1    0    0    0    0  0.00000000000E+00  0.00000000000E+00  0.45593999997E+02  0.45594000000E+02  0.51100000000E-03 0. -1.
         11   -1    0    0    0    0 -0.00000000000E+00 -0.00000000000E+00 -0.45593999997E+02  0.45594000000E+02  0.51100000000E-03 0.  1.
    9900012    2    1    2    0    0  0.13152137431E+02  0.20977182447E+02 -0.32251288019E+02  0.50528849968E+02  0.29999969962E+02 0.  0.
         12    1    1    2    0    0 -0.13152137431E+02 -0.20977182447E+02  0.32251288019E+02  0.40659150032E+02  0.00000000000E+00 0. -1.
         11    1    3    3    0    0 -0.49576261956E+01  0.78256761044E+01 -0.99112217835E+01  0.13566561152E+02  0.51100000000E-03 0. -1.
        -11    1    3    3    0    0  0.19937249938E+02  0.73790434525E+01 -0.10605137497E+02  0.23757381147E+02  0.51100000000E-03 0.  1.
        -12    1    3    3    0    0 -0.18274863118E+01  0.57724628904E+01 -0.11734928739E+02  0.13204907669E+02  0.00000000000E+00 0.  1.
</event>
<event>
 7    1  0.2991278E-011  0.5052886E+02  0.7816164E-02  0.1300439E+00
        -11   -1    0    0    0    0  0.00000000000E+00  0.00000000000E+00  0.45593999997E+02  0.45594000000E+02  0.51100000000E-03 0. -1.
         11   -1    0    0    0    0 -0.00000000000E+00 -0.00000000000E+00 -0.45593999997E+02  0.45594000000E+02  0.51100000000E-03 0.  1.
    9900012    2    1    2    0    0 -0.29952121290E+02  0.19750474992E+02 -0.19129939583E+02  0.50528863012E+02  0.30000009611E+02 0.  0.
         12    1    1    2    0    0  0.29952121290E+02 -0.19750474992E+02  0.19129939583E+02  0.40659136988E+02  0.00000000000E+00 0. -1.
         11    1    3    3    0    0 -0.95973314770E+01  0.17010076182E+02 -0.10367277553E+02  0.22111804705E+02  0.51100000000E-03 0.  1.
        -11    1    3    3    0    0 -0.23398085638E+02  0.39583561113E+01 -0.80829133182E+01  0.25069353454E+02  0.51100000000E-03 0. -1.
         12    1    3    3    0    0  0.30432958252E+01 -0.12179573015E+01 -0.67974871118E+00  0.33477048523E+01  0.00000000000E+00 0. -1.
</event>
<event>
 7    1  0.2991278E-011  0.5052884E+02  0.7816164E-02  0.1300439E+00
        -11   -1    0    0    0    0  0.00000000000E+00  0.00000000000E+00  0.45593999997E+02  0.45594000000E+02  0.51100000000E-03 0. -1.
         11   -1    0    0    0    0 -0.00000000000E+00 -0.00000000000E+00 -0.45593999997E+02  0.45594000000E+02  0.51100000000E-03 0.  1.
    9900012    2    1    2    0    0 -0.28103332493E+02  0.24294808427E+00  0.29382150613E+02  0.50528842414E+02  0.29999947002E+02 0.  0.
         12    1    1    2    0    0  0.28103332493E+02 -0.24294808427E+00 -0.29382150613E+02  0.40659157586E+02  0.00000000000E+00 0. -1.
         11    1    3    3    0    0 -0.14523591275E+02 -0.69875397078E+01  0.28621881737E+02  0.32847717258E+02  0.51100000000E-03 0.  1.
        -11    1    3    3    0    0 -0.35362877631E+01  0.47011611894E+01 -0.30735934322E+01  0.66372603173E+01  0.51100000000E-03 0. -1.
        -12    1    3    3    0    0 -0.10043453455E+02  0.25293266027E+01  0.38338623082E+01  0.11043864838E+02  0.00000000000E+00 0.  1.
</event>
<event>
 7    1  0.2991278E-011  0.5052886E+02  0.7816164E-02  0.1300439E+00
        -11   -1    0    0    0    0  0.00000000000E+00  0.00000000000E+00  0.45593999997E+02  0.45594000000E+02  0.51100000000E-03 0.  1.
         11   -1    0    0    0    0 -0.00000000000E+00 -0.00000000000E+00 -0.45593999997E+02  0.45594000000E+02  0.51100000000E-03 0. -1.
    9900012    2    1    2    0    0 -0.10487295509E+02  0.39864816742E+01  0.39080561319E+02  0.50528859869E+02  0.30000000057E+02 0.  0.
         12    1    1    2    0    0  0.10487295509E+02 -0.39864816742E+01 -0.39080561319E+02  0.40659140131E+02  0.00000000000E+00 0. -1.
         11    1    3    3    0    0 -0.13377958612E+02 -0.72380322593E+01  0.18304479015E+02  0.23799429403E+02  0.51100000000E-03 0. -1.
        -11    1    3    3    0    0 -0.31089382586E+01  0.98096172132E+01  0.10206398656E+02  0.14493607583E+02  0.51100000000E-03 0.  1.
         12    1    3    3    0    0  0.59996013620E+01  0.14148967203E+01  0.10569683648E+02  0.12235822884E+02  0.00000000000E+00 0. -1.
</event>
<event>
 7    1  0.2991278E-011  0.5052886E+02  0.7816164E-02  0.1300439E+00
        -11   -1    0    0    0    0  0.00000000000E+00  0.00000000000E+00  0.45593999997E+02  0.45594000000E+02  0.51100000000E-03 0.  1.
         11   -1    0    0    0    0 -0.00000000000E+00 -0.00000000000E+00 -0.45593999997E+02  0.45594000000E+02  0.51100000000E-03 0. -1.
    9900012    2    1    2    0    0  0.23741350037E+02 -0.21066627833E+02  0.25410845508E+02  0.50528861061E+02  0.30000003681E+02 0.  0.
         12    1    1    2    0    0 -0.23741350037E+02  0.21066627833E+02 -0.25410845508E+02  0.40659138939E+02  0.00000000000E+00 0. -1.
         11    1    3    3    0    0 -0.31630079161E+01 -0.12058115841E+01 -0.14198305098E+01  0.36707655321E+01  0.51100000000E-03 0. -1.
        -11    1    3    3    0    0  0.29497710451E+02 -0.20207853695E+02  0.24408402936E+02  0.43292521375E+02  0.51100000000E-03 0.  1.
        -12    1    3    3    0    0 -0.25933524979E+01  0.34703744654E+00  0.24222730813E+01  0.35655741541E+01  0.00000000000E+00 0.  1.
</event>
<event>
 7    1  0.2991278E-011  0.5052886E+02  0.7816164E-02  0.1300439E+00
        -11   -1    0    0    0    0  0.00000000000E+00  0.00000000000E+00  0.45593999997E+02  0.45594000000E+02  0.51100000000E-03 0.  1.
         11   -1    0    0    0    0 -0.00000000000E+00 -0.00000000000E+00 -0.45593999997E+02  0.45594000000E+02  0.51100000000E-03 0. -1.
    9900012    2    1    2    0    0  0.14098311765E+02 -0.34421116001E+00  0.38135087914E+02  0.50528858271E+02  0.29999995201E+02 0.  0.
         12    1    1    2    0    0 -0.14098311765E+02  0.34421116001E+00 -0.38135087914E+02  0.40659141729E+02  0.00000000000E+00 0. -1.
         11    1    3    3    0    0 -0.24109917967E+01  0.75001887215E+01  0.19433809356E+01  0.81143355874E+01  0.51100000000E-03 0. -1.
        -11    1    3    3    0    0  0.45739567070E+01 -0.63213498932E+01  0.24201266354E+02  0.25427973530E+02  0.51100000000E-03 0.  1.
        -12    1    3    3    0    0  0.11935346855E+02 -0.15230499884E+01  0.11990440624E+02  0.16986549154E+02  0.00000000000E+00 0.  1.
</event>
<event>
 7    1  0.2991278E-011  0.5052885E+02  0.7816164E-02  0.1300439E+00
        -11   -1    0    0    0    0  0.00000000000E+00  0.00000000000E+00  0.45593999997E+02  0.45594000000E+02  0.51100000000E-03 0. -1.
         11   -1    0    0    0    0 -0.00000000000E+00 -0.00000000000E+00 -0.45593999997E+02  0.45594000000E+02  0.51100000000E-03 0.  1.
    9900012    2    1    2    0    0  0.26450156113E+02  0.22004011398E+02 -0.21665154173E+02  0.50528853657E+02  0.29999981175E+02 0.  0.
         12    1    1    2    0    0 -0.26450156113E+02 -0.22004011398E+02  0.21665154173E+02  0.40659146343E+02  0.00000000000E+00 0. -1.
         11    1    3    3    0    0  0.22307662475E+02  0.26210058684E+02 -0.22213296345E+02  0.40963758569E+02  0.51100000000E-03 0. -1.
        -11    1    3    3    0    0  0.46010589817E+01 -0.35765608058E+01 -0.25568777682E+01  0.63638946513E+01  0.51100000000E-03 0.  1.
         12    1    3    3    0    0 -0.45856534295E+00 -0.62948648065E+00  0.31050199403E+01  0.32012004362E+01  0.00000000000E+00 0. -1.
</event>
<event>
 7    1  0.2991278E-011  0.5052886E+02  0.7816164E-02  0.1300439E+00
        -11   -1    0    0    0    0  0.00000000000E+00  0.00000000000E+00  0.45593999997E+02  0.45594000000E+02  0.51100000000E-03 0.  1.
         11   -1    0    0    0    0 -0.00000000000E+00 -0.00000000000E+00 -0.45593999997E+02  0.45594000000E+02  0.51100000000E-03 0. -1.
    9900012    2    1    2    0    0 -0.20061439097E+02  0.25905890715E+02  0.24074651686E+02  0.50528863681E+02  0.30000011646E+02 0.  0.
         12    1    1    2    0    0  0.20061439097E+02 -0.25905890715E+02 -0.24074651686E+02  0.40659136319E+02  0.00000000000E+00 0. -1.
         11    1    3    3    0    0 -0.90023787140E+01  0.12165058244E+02  0.24139847444E+02  0.28491467135E+02  0.51100000000E-03 0. -1.
        -11    1    3    3    0    0 -0.18046125275E+01  0.11974810605E+02  0.22932435132E+01  0.12325245696E+02  0.51100000000E-03 0.  1.
         12    1    3    3    0    0 -0.92544478560E+01  0.17660218657E+01 -0.23584392717E+01  0.97121508508E+01  0.00000000000E+00 0. -1.
</event>
<event>
 7    1  0.2991278E-011  0.5052886E+02  0.7816164E-02  0.1300439E+00
        -11   -1    0    0    0    0  0.00000000000E+00  0.00000000000E+00  0.45593999997E+02  0.45594000000E+02  0.51100000000E-03 0.  1.
         11   -1    0    0    0    0 -0.00000000000E+00 -0.00000000000E+00 -0.45593999997E+02  0.45594000000E+02  0.51100000000E-03 0. -1.
    9900012    2    1    2    0    0  0.26735446027E+02  0.30508039740E+02  0.27642432435E+01  0.50528860759E+02  0.30000002765E+02 0.  0.
         12    1    1    2    0    0 -0.26735446027E+02 -0.30508039740E+02 -0.27642432435E+01  0.40659139241E+02  0.00000000000E+00 0. -1.
         11    1    3    3    0    0 -0.37920232107E+01  0.19246978469E+01  0.68320226902E+01  0.80473869134E+01  0.51100000000E-03 0. -1.
        -11    1    3    3    0    0  0.13209821568E+02  0.16295781988E+02 -0.32844035779E+01  0.21232974440E+02  0.51100000000E-03 0.  1.
         12    1    3    3    0    0  0.17317647670E+02  0.12287559905E+02 -0.78337586892E+00  0.21248499406E+02  0.00000000000E+00 0. -1.
</event>
<event>
 7    1  0.2991278E-011  0.5052886E+02  0.7816164E-02  0.1300439E+00
        -11   -1    0    0    0    0  0.00000000000E+00  0.00000000000E+00  0.45593999997E+02  0.45594000000E+02  0.51100000000E-03 0. -1.
         11   -1    0    0    0    0 -0.00000000000E+00 -0.00000000000E+00 -0.45593999997E+02  0.45594000000E+02  0.51100000000E-03 0.  1.
    9900012    2    1    2    0    0  0.32003894853E+02  0.16097018725E+02 -0.19230245572E+02  0.50528860285E+02  0.30000001324E+02 0.  0.
         12    1    1    2    0    0 -0.32003894853E+02 -0.16097018725E+02  0.19230245572E+02  0.40659139715E+02  0.00000000000E+00 0. -1.
         11    1    3    3    0    0  0.83978223867E+01  0.13085899241E+02 -0.14426008785E+02  0.21210231246E+02  0.51100000000E-03 0. -1.
        -11    1    3    3    0    0  0.22959888805E+02  0.48419694354E+01  0.70685805962E+00  0.23475536427E+02  0.51100000000E-03 0.  1.
        -12    1    3    3    0    0  0.64618366067E+00 -0.18308499514E+01 -0.55110948466E+01  0.58430926123E+01  0.00000000000E+00 0.  1.
</event>
<event>
 7    1  0.2991278E-011  0.5052886E+02  0.7816164E-02  0.1300439E+00
        -11   -1    0    0    0    0  0.00000000000E+00  0.00000000000E+00  0.45593999997E+02  0.45594000000E+02  0.51100000000E-03 0.  1.
         11   -1    0    0    0    0 -0.00000000000E+00 -0.00000000000E+00 -0.45593999997E+02  0.45594000000E+02  0.51100000000E-03 0. -1.
    9900012    2    1    2    0    0  0.12877538552E+02  0.19320715153E+02  0.33377310162E+02  0.50528857525E+02  0.29999992933E+02 0.  0.
         12    1    1    2    0    0 -0.12877538552E+02 -0.19320715153E+02 -0.33377310162E+02  0.40659142475E+02  0.00000000000E+00 0. -1.
         11    1    3    3    0    0  0.10962383392E+01 -0.41040849554E+01  0.19526119011E+02  0.19982857046E+02  0.51100000000E-03 0. -1.
        -11    1    3    3    0    0  0.10272453891E+02  0.17646211512E+02  0.73076203978E+01  0.21686710350E+02  0.51100000000E-03 0.  1.
         12    1    3    3    0    0  0.15088463215E+01  0.57785885961E+01  0.65435707525E+01  0.88592901283E+01  0.00000000000E+00 0. -1.
</event>
<event>
 7    1  0.2991278E-011  0.5052888E+02  0.7816164E-02  0.1300439E+00
        -11   -1    0    0    0    0  0.00000000000E+00  0.00000000000E+00  0.45593999997E+02  0.45594000000E+02  0.51100000000E-03 0.  1.
         11   -1    0    0    0    0 -0.00000000000E+00 -0.00000000000E+00 -0.45593999997E+02  0.45594000000E+02  0.51100000000E-03 0. -1.
    9900012    2    1    2    0    0 -0.26566167991E+02 -0.29883719339E+02  0.73733169583E+01  0.50528883357E+02  0.30000071451E+02 0.  0.
         12    1    1    2    0    0  0.26566167991E+02  0.29883719339E+02 -0.73733169583E+01  0.40659116643E+02  0.00000000000E+00 0. -1.
         11    1    3    3    0    0 -0.38402755739E+01  0.60643264376E+01 -0.60878364320E+00  0.72037760522E+01  0.51100000000E-03 0. -1.
        -11    1    3    3    0    0 -0.16329277494E+02 -0.23995859521E+02  0.52311443992E+01  0.29492566006E+02  0.51100000000E-03 0.  1.
         12    1    3    3    0    0 -0.63966149230E+01 -0.11952186255E+02  0.27509562023E+01  0.13832541298E+02  0.00000000000E+00 0. -1.
</event>
<event>
 7    1  0.2991278E-011  0.5052885E+02  0.7816164E-02  0.1300439E+00
        -11   -1    0    0    0    0  0.00000000000E+00  0.00000000000E+00  0.45593999997E+02  0.45594000000E+02  0.51100000000E-03 0.  1.
         11   -1    0    0    0    0 -0.00000000000E+00 -0.00000000000E+00 -0.45593999997E+02  0.45594000000E+02  0.51100000000E-03 0. -1.
    9900012    2    1    2    0    0 -0.98377192203E+01 -0.41436746257E+01  0.39232840677E+02  0.50528849167E+02  0.29999967528E+02 0.  0.
         12    1    1    2    0    0  0.98377192203E+01  0.41436746257E+01 -0.39232840677E+02  0.40659150833E+02  0.00000000000E+00 0. -1.
         11    1    3    3    0    0  0.53306741040E+01  0.62901171407E+01  0.67195314811E+01  0.10636435664E+02  0.51100000000E-03 0.  1.
        -11    1    3    3    0    0 -0.10794118887E+02 -0.12483874109E+02  0.17207596727E+02  0.23842430679E+02  0.51100000000E-03 0. -1.
        -12    1    3    3    0    0 -0.43742744370E+01  0.20500823422E+01  0.15305712469E+02  0.16049982824E+02  0.00000000000E+00 0.  1.
</event>
<event>
 7    1  0.2991278E-011  0.5052888E+02  0.7816164E-02  0.1300439E+00
        -11   -1    0    0    0    0  0.00000000000E+00  0.00000000000E+00  0.45593999997E+02  0.45594000000E+02  0.51100000000E-03 0. -1.
         11   -1    0    0    0    0 -0.00000000000E+00 -0.00000000000E+00 -0.45593999997E+02  0.45594000000E+02  0.51100000000E-03 0.  1.
    9900012    2    1    2    0    0  0.17259942165E+02  0.35354979773E+02 -0.10260790802E+02  0.50528880160E+02  0.30000061734E+02 0.  0.
         12    1    1    2    0    0 -0.17259942165E+02 -0.35354979773E+02  0.10260790802E+02  0.40659119840E+02  0.00000000000E+00 0. -1.
         11    1    3    3    0    0  0.36066613420E+01  0.23687391534E+02  0.64265303825E+01  0.24807273464E+02  0.51100000000E-03 0.  1.
        -11    1    3    3    0    0  0.18949825269E+01  0.56772504634E+00 -0.60534361318E+01  0.63684660451E+01  0.51100000000E-03 0. -1.
        -12    1    3    3    0    0  0.11758298296E+02  0.11099863193E+02 -0.10633885053E+02  0.19353140650E+02  0.00000000000E+00 0.  1.
</event>
<event>
 7    1  0.2991278E-011  0.5052886E+02  0.7816164E-02  0.1300439E+00
        -11   -1    0    0    0    0  0.00000000000E+00  0.00000000000E+00  0.45593999997E+02  0.45594000000E+02  0.51100000000E-03 0.  1.
         11   -1    0    0    0    0 -0.00000000000E+00 -0.00000000000E+00 -0.45593999997E+02  0.45594000000E+02  0.51100000000E-03 0. -1.
    9900012    2    1    2    0    0 -0.90872412546E+01  0.50253744481E+01  0.39310727780E+02  0.50528860061E+02  0.30000000642E+02 0.  0.
         12    1    1    2    0    0  0.90872412546E+01 -0.50253744481E+01 -0.39310727780E+02  0.40659139939E+02  0.00000000000E+00 0. -1.
         11    1    3    3    0    0 -0.74072631188E+01  0.59257176358E+01  0.26020991446E+01  0.98362897797E+01  0.51100000000E-03 0. -1.
        -11    1    3    3    0    0  0.74151678142E+01 -0.32883565706E+01  0.18462808534E+02  0.20166142464E+02  0.51100000000E-03 0.  1.
        -12    1    3    3    0    0 -0.90951459500E+01  0.23880133830E+01  0.18245820102E+02  0.20526427818E+02  0.00000000000E+00 0.  1.
</event>
<event>
 7    1  0.3703720E-011  0.5052887E+02  0.7816164E-02  0.1300439E+00
        -11   -1    0    0    0    0  0.00000000000E+00  0.00000000000E+00  0.45593999997E+02  0.45594000000E+02  0.51100000000E-03 0. -1.
         11   -1    0    0    0    0 -0.00000000000E+00 -0.00000000000E+00 -0.45593999997E+02  0.45594000000E+02  0.51100000000E-03 0.  1.
    9900012    2    1    2    0    0  0.94849227938E+01  0.17930346524E+02 -0.35237817553E+02  0.50528869749E+02  0.30000030090E+02 0.  0.
         12    1    1    2    0    0 -0.94849227938E+01 -0.17930346524E+02  0.35237817553E+02  0.40659130251E+02  0.00000000000E+00 0. -1.
         11    1    3    3    0    0 -0.35719626707E+01  0.10071537919E+02 -0.15335491134E+01  0.10795673510E+02  0.51100000000E-03 0. -1.
        -11    1    3    3    0    0  0.14531117110E+02  0.54860000864E+01 -0.17967375300E+02  0.23750287090E+02  0.51100000000E-03 0.  1.
        -12    1    3    3    0    0 -0.14742316457E+01  0.23728085178E+01 -0.15736893140E+02  0.15982909150E+02  0.00000000000E+00 0.  1.
</event>
<event>
 7    1  0.2991278E-011  0.5052886E+02  0.7816164E-02  0.1300439E+00
        -11   -1    0    0    0    0  0.00000000000E+00  0.00000000000E+00  0.45593999997E+02  0.45594000000E+02  0.51100000000E-03 0.  1.
         11   -1    0    0    0    0 -0.00000000000E+00 -0.00000000000E+00 -0.45593999997E+02  0.45594000000E+02  0.51100000000E-03 0. -1.
    9900012    2    1    2    0    0  0.64249518723E+01 -0.27684979111E+02  0.29076239603E+02  0.50528858539E+02  0.29999996014E+02 0.  0.
         12    1    1    2    0    0 -0.64249518723E+01  0.27684979111E+02 -0.29076239603E+02  0.40659141461E+02  0.00000000000E+00 0. -1.
         11    1    3    3    0    0  0.11348310769E+02 -0.25825408219E+01  0.17229495592E+02  0.20792046388E+02  0.51100000000E-03 0. -1.
        -11    1    3    3    0    0 -0.10273343367E+01 -0.21841079060E+02  0.77096159648E+01  0.23184614056E+02  0.51100000000E-03 0.  1.
         12    1    3    3    0    0 -0.38960245600E+01 -0.32613592289E+01  0.41371280461E+01  0.65521980939E+01  0.00000000000E+00 0. -1.
</event>
<event>
 7    1  0.2991278E-011  0.5052887E+02  0.7816164E-02  0.1300439E+00
        -11   -1    0    0    0    0  0.00000000000E+00  0.00000000000E+00  0.45593999997E+02  0.45594000000E+02  0.51100000000E-03 0.  1.
         11   -1    0    0    0    0 -0.00000000000E+00 -0.00000000000E+00 -0.45593999997E+02  0.45594000000E+02  0.51100000000E-03 0. -1.
    9900012    2    1    2    0    0 -0.37148911276E+02 -0.21864549248E+01  0.16381178990E+02  0.50528865489E+02  0.30000017139E+02 0.  0.
         12    1    1    2    0    0  0.37148911276E+02  0.21864549248E+01 -0.16381178990E+02  0.40659134511E+02  0.00000000000E+00 0. -1.
         11    1    3    3    0    0 -0.30978804114E+00  0.22324195310E+01  0.85549751029E+01  0.88468788205E+01  0.51100000000E-03 0. -1.
        -11    1    3    3    0    0 -0.13680109296E+02 -0.86894102946E+01 -0.16650042749E+01  0.16291822523E+02  0.51100000000E-03 0.  1.
        -12    1    3    3    0    0 -0.23159013938E+02  0.42705358388E+01  0.94912081622E+01  0.25390164145E+02  0.00000000000E+00 0.  1.
</event>
<event>
 7    1  0.2991278E-011  0.5052886E+02  0.7816164E-02  0.1300439E+00
        -11   -1    0    0    0    0  0.00000000000E+00  0.00000000000E+00  0.45593999997E+02  0.45594000000E+02  0.51100000000E-03 0.  1.
         11   -1    0    0    0    0 -0.00000000000E+00 -0.00000000000E+00 -0.45593999997E+02  0.45594000000E+02  0.51100000000E-03 0. -1.
    9900012    2    1    2    0    0  0.17115482247E+02  0.97600997867E+01  0.35566362821E+02  0.50528862715E+02  0.30000008710E+02 0.  0.
         12    1    1    2    0    0 -0.17115482247E+02 -0.97600997867E+01 -0.35566362821E+02  0.40659137285E+02  0.00000000000E+00 0. -1.
         11    1    3    3    0    0  0.10147269078E+01 -0.23156462521E+01  0.80844977568E+01  0.84705957584E+01  0.51100000000E-03 0. -1.
        -11    1    3    3    0    0  0.47979300068E+01  0.62834949018E+01 -0.34459763245E+01  0.86242213342E+01  0.51100000000E-03 0.  1.
        -12    1    3    3    0    0  0.11302825332E+02  0.57922511370E+01  0.30927841389E+02  0.33434045623E+02  0.00000000000E+00 0.  1.
</event>
<event>
 7    1  0.2991278E-011  0.5052886E+02  0.7816164E-02  0.1300439E+00
        -11   -1    0    0    0    0  0.00000000000E+00  0.00000000000E+00  0.45593999997E+02  0.45594000000E+02  0.51100000000E-03 0.  1.
         11   -1    0    0    0    0 -0.00000000000E+00 -0.00000000000E+00 -0.45593999997E+02  0.45594000000E+02  0.51100000000E-03 0. -1.
    9900012    2    1    2    0    0 -0.24962437268E+02 -0.28212896207E+02  0.15299505861E+02  0.50528859990E+02  0.30000000426E+02 0.  0.
         12    1    1    2    0    0  0.24962437268E+02  0.28212896207E+02 -0.15299505861E+02  0.40659140010E+02  0.00000000000E+00 0. -1.
         11    1    3    3    0    0 -0.59980611655E+01  0.23915584837E+01  0.93683183354E+00  0.65248711766E+01  0.51100000000E-03 0. -1.
        -11    1    3    3    0    0 -0.31390455285E+01 -0.24346136733E+02  0.76793739884E+01  0.25720823583E+02  0.51100000000E-03 0.  1.
         12    1    3    3    0    0 -0.15825330574E+02 -0.62583179578E+01  0.66833000386E+01  0.18283165231E+02  0.00000000000E+00 0. -1.
</event>
<event>
 7    1  0.2991278E-011  0.5052885E+02  0.7816164E-02  0.1300439E+00
        -11   -1    0    0    0    0  0.00000000000E+00  0.00000000000E+00  0.45593999997E+02  0.45594000000E+02  0.51100000000E-03 0.  1.
         11   -1    0    0    0    0 -0.00000000000E+00 -0.00000000000E+00 -0.45593999997E+02  0.45594000000E+02  0.51100000000E-03 0. -1.
    9900012    2    1    2    0    0 -0.33271370507E+02  0.23337353356E+02 -0.12451953095E+01  0.50528847667E+02  0.29999962970E+02 0.  0.
         12    1    1    2    0    0  0.33271370507E+02 -0.23337353356E+02  0.12451953095E+01  0.40659152333E+02  0.00000000000E+00 0. -1.
         11    1    3    3    0    0 -0.37303842017E+01  0.17489982615E+02  0.28416025868E+01  0.18107732152E+02  0.51100000000E-03 0. -1.
        -11    1    3    3    0    0 -0.23608232546E+02  0.58363180688E+01 -0.76582902387E+01  0.25496287224E+02  0.51100000000E-03 0.  1.
         12    1    3    3    0    0 -0.59327537586E+01  0.11052672783E-01  0.35714923424E+01  0.69248282920E+01  0.00000000000E+00 0. -1.
</event>
<event>
 7    1  0.2991278E-011  0.5052886E+02  0.7816164E-02  0.1300439E+00
        -11   -1    0    0    0    0  0.00000000000E+00  0.00000000000E+00  0.45593999997E+02  0.45594000000E+02  0.51100000000E-03 0.  1.
         11   -1    0    0    0    0 -0.00000000000E+00 -0.00000000000E+00 -0.45593999997E+02  0.45594000000E+02  0.51100000000E-03 0. -1.
    9900012    2    1    2    0    0 -0.13855222723E+01 -0.37726667517E+02  0.15097839285E+02  0.50528857548E+02  0.29999993002E+02 0.  0.
         12    1    1    2    0    0  0.13855222723E+01  0.37726667517E+02 -0.15097839285E+02  0.40659142452E+02  0.00000000000E+00 0. -1.
         11    1    3    3    0    0  0.13308185073E+02 -0.18366713968E+02  0.95497572000E+01  0.24609791441E+02  0.51100000000E-03 0. -1.
        -11    1    3    3    0    0 -0.80396052915E+01 -0.86240282954E+01  0.61028932164E+01  0.13276084632E+02  0.51100000000E-03 0.  1.
         12    1    3    3    0    0 -0.66541020538E+01 -0.10735925253E+02 -0.55481113173E+00  0.12642981475E+02  0.00000000000E+00 0. -1.
</event>
<event>
 7    1  0.2991278E-011  0.5052884E+02  0.7816164E-02  0.1300439E+00
        -11   -1    0    0    0    0  0.00000000000E+00  0.00000000000E+00  0.45593999997E+02  0.45594000000E+02  0.51100000000E-03 0. -1.
         11   -1    0    0    0    0 -0.00000000000E+00 -0.00000000000E+00 -0.45593999997E+02  0.45594000000E+02  0.51100000000E-03 0.  1.
    9900012    2    1    2    0    0 -0.22396800282E+02  0.29242957464E+01 -0.33808275481E+02  0.50528835480E+02  0.29999925923E+02 0.  0.
         12    1    1    2    0    0  0.22396800282E+02 -0.29242957464E+01  0.33808275481E+02  0.40659164520E+02  0.00000000000E+00 0. -1.
         11    1    3    3    0    0 -0.93551111543E+01 -0.37926117712E+01 -0.55842113540E+00  0.10110086210E+02  0.51100000000E-03 0. -1.
        -11    1    3    3    0    0 -0.15058622846E+02  0.59534215928E+01 -0.34366441753E+02  0.37990231240E+02  0.51100000000E-03 0.  1.
         12    1    3    3    0    0  0.20169337177E+01  0.76348592481E+00  0.11165874071E+01  0.24285180289E+01  0.00000000000E+00 0. -1.
</event>
<event>
 7    1  0.2991278E-011  0.5052885E+02  0.7816164E-02  0.1300439E+00
        -11   -1    0    0    0    0  0.00000000000E+00  0.00000000000E+00  0.45593999997E+02  0.45594000000E+02  0.51100000000E-03 0.  1.
         11   -1    0    0    0    0 -0.00000000000E+00 -0.00000000000E+00 -0.45593999997E+02  0.45594000000E+02  0.51100000000E-03 0. -1.
    9900012    2    1    2    0    0  0.78774217074E+01 -0.35233890595E+02  0.18699876921E+02  0.50528853229E+02  0.29999979876E+02 0.  0.
         12    1    1    2    0    0 -0.78774217074E+01  0.35233890595E+02 -0.18699876921E+02  0.40659146771E+02  0.00000000000E+00 0. -1.
         11    1    3    3    0    0 -0.58924848406E+01 -0.16457722629E+02  0.12484101780E+02  0.21480940604E+02  0.51100000000E-03 0. -1.
        -11    1    3    3    0    0  0.16828337158E+02 -0.18539827210E+02  0.42284460337E+01  0.25392870665E+02  0.51100000000E-03 0.  1.
        -12    1    3    3    0    0 -0.30584306102E+01 -0.23634075670E+00  0.19873291072E+01  0.36550419602E+01  0.00000000000E+00 0.  1.
</event>
<event>
 7    1  0.2991278E-011  0.5052887E+02  0.7816164E-02  0.1300439E+00
        -11   -1    0    0    0    0  0.00000000000E+00  0.00000000000E+00  0.45593999997E+02  0.45594000000E+02  0.51100000000E-03 0. -1.
         11   -1    0    0    0    0 -0.00000000000E+00 -0.00000000000E+00 -0.45593999997E+02  0.45594000000E+02  0.51100000000E-03 0.  1.
    9900012    2    1    2    0    0 -0.36598109032E+02 -0.35964671212E+01 -0.17343838943E+02  0.50528869294E+02  0.30000028707E+02 0.  0.
         12    1    1    2    0    0  0.36598109032E+02  0.35964671212E+01  0.17343838943E+02  0.40659130706E+02  0.00000000000E+00 0. -1.
         11    1    3    3    0    0 -0.76153601479E+01 -0.14202216265E+00  0.40778895979E+01  0.86396217690E+01  0.51100000000E-03 0. -1.
        -11    1    3    3    0    0 -0.70176612928E+01  0.30417078985E+01 -0.16888066437E+02  0.18539318898E+02  0.51100000000E-03 0.  1.
        -12    1    3    3    0    0 -0.21965087591E+02 -0.64961528570E+01 -0.45336621039E+01  0.23349928627E+02  0.00000000000E+00 0.  1.
</event>
<event>
 7    1  0.2991278E-011  0.5052886E+02  0.7816164E-02  0.1300439E+00
        -11   -1    0    0    0    0  0.00000000000E+00  0.00000000000E+00  0.45593999997E+02  0.45594000000E+02  0.51100000000E-03 0.  1.
         11   -1    0    0    0    0 -0.00000000000E+00 -0.00000000000E+00 -0.45593999997E+02  0.45594000000E+02  0.51100000000E-03 0. -1.
    9900012    2    1    2    0    0 -0.10912386258E+02 -0.35563519274E+02  0.16411025908E+02  0.50528857752E+02  0.29999993623E+02 0.  0.
         12    1    1    2    0    0  0.10912386258E+02  0.35563519274E+02 -0.16411025908E+02  0.40659142248E+02  0.00000000000E+00 0. -1.
         11    1    3    3    0    0  0.16972194623E+01  0.82294975843E+00 -0.12132490840E+01  0.22427157219E+01  0.51100000000E-03 0. -1.
        -11    1    3    3    0    0 -0.11148912233E+02 -0.37725244350E+02  0.20833637999E+02  0.44514410900E+02  0.51100000000E-03 0.  1.
        -12    1    3    3    0    0 -0.14606934869E+01  0.13387753178E+01 -0.32093630062E+01  0.37717311304E+01  0.00000000000E+00 0.  1.
</event>
<event>
 7    1  0.2991278E-011  0.5052886E+02  0.7816164E-02  0.1300439E+00
        -11   -1    0    0    0    0  0.00000000000E+00  0.00000000000E+00  0.45593999997E+02  0.45594000000E+02  0.51100000000E-03 0.  1.
         11   -1    0    0    0    0 -0.00000000000E+00 -0.00000000000E+00 -0.45593999997E+02  0.45594000000E+02  0.51100000000E-03 0. -1.
    9900012    2    1    2    0    0 -0.39022926010E+02 -0.41554916607E+01  0.10635246287E+02  0.50528864139E+02  0.30000013038E+02 0.  0.
         12    1    1    2    0    0  0.39022926010E+02  0.41554916607E+01 -0.10635246287E+02  0.40659135861E+02  0.00000000000E+00 0. -1.
         11    1    3    3    0    0  0.19238935882E+00 -0.27348039752E+01 -0.47976605625E+01  0.55257319499E+01  0.51100000000E-03 0. -1.
        -11    1    3    3    0    0 -0.39077334796E+02  0.48496547443E-03  0.17230489162E+02  0.42707468340E+02  0.51100000000E-03 0.  1.
        -12    1    3    3    0    0 -0.13798057326E+00 -0.14211726511E+01 -0.17975823117E+01  0.22956638495E+01  0.00000000000E+00 0.  1.
</event>
<event>
 7    1  0.2991278E-011  0.5052886E+02  0.7816164E-02  0.1300439E+00
        -11   -1    0    0    0    0  0.00000000000E+00  0.00000000000E+00  0.45593999997E+02  0.45594000000E+02  0.51100000000E-03 0. -1.
         11   -1    0    0    0    0 -0.00000000000E+00 -0.00000000000E+00 -0.45593999997E+02  0.45594000000E+02  0.51100000000E-03 0.  1.
    9900012    2    1    2    0    0 -0.14460869323E+02  0.35575422735E+02 -0.13358086153E+02  0.50528856993E+02  0.29999991317E+02 0.  0.
         12    1    1    2    0    0  0.14460869323E+02 -0.35575422735E+02  0.13358086153E+02  0.40659143007E+02  0.00000000000E+00 0. -1.
         11    1    3    3    0    0  0.65810350282E+01  0.71968525153E+01 -0.92867995480E+01  0.13466601438E+02  0.51100000000E-03 0. -1.
        -11    1    3    3    0    0 -0.11364131926E+02  0.22259190131E+02 -0.52944815766E+01  0.25546948451E+02  0.51100000000E-03 0.  1.
         12    1    3    3    0    0 -0.96777724249E+01  0.61193800888E+01  0.12231949715E+01  0.11515307105E+02  0.00000000000E+00 0. -1.
</event>
<event>
 7    1  0.2991278E-011  0.5052886E+02  0.7816164E-02  0.1300439E+00
        -11   -1    0    0    0    0  0.00000000000E+00  0.00000000000E+00  0.45593999997E+02  0.45594000000E+02  0.51100000000E-03 0. -1.
         11   -1    0    0    0    0 -0.00000000000E+00 -0.00000000000E+00 -0.45593999997E+02  0.45594000000E+02  0.51100000000E-03 0.  1.
    9900012    2    1    2    0    0  0.33276995472E+02  0.16963685154E+02 -0.16063647939E+02  0.50528858017E+02  0.29999994430E+02 0.  0.
         12    1    1    2    0    0 -0.33276995472E+02 -0.16963685154E+02  0.16063647939E+02  0.40659141983E+02  0.00000000000E+00 0. -1.
         11    1    3    3    0    0  0.11533369052E+02  0.38342104967E+01  0.24766331125E+01  0.12403768930E+02  0.51100000000E-03 0. -1.
        -11    1    3    3    0    0  0.43735154432E+01  0.54305157699E+01 -0.17793107832E+02  0.19110542259E+02  0.51100000000E-03 0.  1.
        -12    1    3    3    0    0  0.17370110976E+02  0.76989588875E+01 -0.74717322012E+00  0.19014546829E+02  0.00000000000E+00 0.  1.
</event>
<event>
 7    1  0.2991278E-011  0.5052886E+02  0.7816164E-02  0.1300439E+00
        -11   -1    0    0    0    0  0.00000000000E+00  0.00000000000E+00  0.45593999997E+02  0.45594000000E+02  0.51100000000E-03 0.  1.
         11   -1    0    0    0    0 -0.00000000000E+00 -0.00000000000E+00 -0.45593999997E+02  0.45594000000E+02  0.51100000000E-03 0. -1.
    9900012    2    1    2    0    0  0.39258206209E+02  0.19916439629E+01  0.10391934899E+02  0.50528859436E+02  0.29999998742E+02 0.  0.
         12    1    1    2    0    0 -0.39258206209E+02 -0.19916439629E+01 -0.10391934899E+02  0.40659140564E+02  0.00000000000E+00 0. -1.
         11    1    3    3    0    0  0.26360695681E+02  0.12359972207E+02  0.79625233342E+01  0.30183720246E+02  0.51100000000E-03 0.  1.
        -11    1    3    3    0    0  0.14283963416E+02 -0.64561053914E+01  0.34945104101E+01  0.16060028361E+02  0.51100000000E-03 0. -1.
         12    1    3    3    0    0 -0.13864528885E+01 -0.39122228531E+01 -0.10650988451E+01  0.42851108287E+01  0.00000000000E+00 0. -1.
</event>
<event>
 7    1  0.2991278E-011  0.5052886E+02  0.7816164E-02  0.1300439E+00
        -11   -1    0    0    0    0  0.00000000000E+00  0.00000000000E+00  0.45593999997E+02  0.45594000000E+02  0.51100000000E-03 0.  1.
         11   -1    0    0    0    0 -0.00000000000E+00 -0.00000000000E+00 -0.45593999997E+02  0.45594000000E+02  0.51100000000E-03 0. -1.
    9900012    2    1    2    0    0  0.77896931663E+01  0.20953065666E+02  0.33962556521E+02  0.50528861717E+02  0.30000005676E+02 0.  0.
         12    1    1    2    0    0 -0.77896931663E+01 -0.20953065666E+02 -0.33962556521E+02  0.40659138283E+02  0.00000000000E+00 0. -1.
         11    1    3    3    0    0 -0.97599807065E+01  0.33648131381E+01  0.12142360605E+02  0.15937882926E+02  0.51100000000E-03 0. -1.
        -11    1    3    3    0    0  0.91593746655E+01  0.24965612760E+01  0.90354062078E+01  0.13105934842E+02  0.51100000000E-03 0.  1.
         12    1    3    3    0    0  0.83902992073E+01  0.15091691252E+02  0.12784789708E+02  0.21485043950E+02  0.00000000000E+00 0. -1.
</event>
<event>
 7    1  0.2991278E-011  0.5052886E+02  0.7816164E-02  0.1300439E+00
        -11   -1    0    0    0    0  0.00000000000E+00  0.00000000000E+00  0.45593999997E+02  0.45594000000E+02  0.51100000000E-03 0.  1.
         11   -1    0    0    0    0 -0.00000000000E+00 -0.00000000000E+00 -0.45593999997E+02  0.45594000000E+02  0.51100000000E-03 0. -1.
    9900012    2    1    2    0    0  0.24167440341E+02 -0.21868820528E+02  0.24307512666E+02  0.50528860118E+02  0.30000000814E+02 0.  0.
         12    1    1    2    0    0 -0.24167440341E+02  0.21868820528E+02 -0.24307512666E+02  0.40659139882E+02  0.00000000000E+00 0. -1.
         11    1    3    3    0    0  0.45301851236E+01 -0.34401621489E+01 -0.38607617810E+00  0.57014338496E+01  0.51100000000E-03 0. -1.
        -11    1    3    3    0    0  0.12043670383E+02 -0.57975418186E+01  0.26791679361E+02  0.29940867901E+02  0.51100000000E-03 0.  1.
        -12    1    3    3    0    0  0.75935848352E+01 -0.12631116560E+02 -0.20980905163E+01  0.14886558367E+02  0.00000000000E+00 0.  1.
</event>
<event>
 7    1  0.2991278E-011  0.5052886E+02  0.7816164E-02  0.1300439E+00
        -11   -1    0    0    0    0  0.00000000000E+00  0.00000000000E+00  0.45593999997E+02  0.45594000000E+02  0.51100000000E-03 0.  1.
         11   -1    0    0    0    0 -0.00000000000E+00 -0.00000000000E+00 -0.45593999997E+02  0.45594000000E+02  0.51100000000E-03 0. -1.
    9900012    2    1    2    0    0  0.33453764434E+02 -0.26167239560E+00  0.23107200123E+02  0.50528861731E+02  0.30000005717E+02 0.  0.
         12    1    1    2    0    0 -0.33453764434E+02  0.26167239560E+00 -0.23107200123E+02  0.40659138269E+02  0.00000000000E+00 0. -1.
         11    1    3    3    0    0  0.66450570142E+01 -0.45211608950E+01 -0.50590413940E+01  0.94969246942E+01  0.51100000000E-03 0. -1.
        -11    1    3    3    0    0  0.26907470069E+02  0.60524601223E+01  0.24254447945E+02  0.36727679813E+02  0.51100000000E-03 0.  1.
         12    1    3    3    0    0 -0.98762649103E-01 -0.17929716229E+01  0.39117935711E+01  0.43042572233E+01  0.00000000000E+00 0. -1.
</event>
<event>
 7    1  0.2991278E-011  0.5052886E+02  0.7816164E-02  0.1300439E+00
        -11   -1    0    0    0    0  0.00000000000E+00  0.00000000000E+00  0.45593999997E+02  0.45594000000E+02  0.51100000000E-03 0.  1.
         11   -1    0    0    0    0 -0.00000000000E+00 -0.00000000000E+00 -0.45593999997E+02  0.45594000000E+02  0.51100000000E-03 0. -1.
    9900012    2    1    2    0    0  0.40465205235E+02 -0.25754382063E+01  0.30165704653E+01  0.50528863093E+02  0.30000009857E+02 0.  0.
         12    1    1    2    0    0 -0.40465205235E+02  0.25754382063E+01 -0.30165704653E+01  0.40659136907E+02  0.00000000000E+00 0. -1.
         11    1    3    3    0    0  0.15176224263E+02  0.83888349264E+01  0.79412225703E+01  0.19072318959E+02  0.51100000000E-03 0. -1.
        -11    1    3    3    0    0  0.22740243884E+02 -0.48567269775E+01 -0.73824617532E+01  0.24396869279E+02  0.51100000000E-03 0.  1.
         12    1    3    3    0    0  0.25487370880E+01 -0.61075461552E+01  0.24578096481E+01  0.70596748543E+01  0.00000000000E+00 0. -1.
</event>
<event>
 7    1  0.2991278E-011  0.5052886E+02  0.7816164E-02  0.1300439E+00
        -11   -1    0    0    0    0  0.00000000000E+00  0.00000000000E+00  0.45593999997E+02  0.45594000000E+02  0.51100000000E-03 0. -1.
         11   -1    0    0    0    0 -0.00000000000E+00 -0.00000000000E+00 -0.45593999997E+02  0.45594000000E+02  0.51100000000E-03 0.  1.
    9900012    2    1    2    0    0  0.32428041067E+02  0.15178065476E+02 -0.19266913372E+02  0.50528862406E+02  0.30000007769E+02 0.  0.
         12    1    1    2    0    0 -0.32428041067E+02 -0.15178065476E+02  0.19266913372E+02  0.40659137594E+02  0.00000000000E+00 0. -1.
         11    1    3    3    0    0  0.10315849564E+02  0.14098630963E+02  0.35443369239E+01  0.17825556703E+02  0.51100000000E-03 0. -1.
        -11    1    3    3    0    0  0.10730070763E+02  0.43395675206E+01 -0.11948943933E+02  0.16635610185E+02  0.51100000000E-03 0.  1.
         12    1    3    3    0    0  0.11382120739E+02 -0.32601330079E+01 -0.10862306362E+02  0.16067695518E+02  0.00000000000E+00 0. -1.
</event>
<event>
 7    1  0.2991278E-011  0.5052888E+02  0.7816164E-02  0.1300439E+00
        -11   -1    0    0    0    0  0.00000000000E+00  0.00000000000E+00  0.45593999997E+02  0.45594000000E+02  0.51100000000E-03 0. -1.
         11   -1    0    0    0    0 -0.00000000000E+00 -0.00000000000E+00 -0.45593999997E+02  0.45594000000E+02  0.51100000000E-03 0.  1.
    9900012    2    1    2    0    0 -0.25295488112E+02  0.15630929793E+02 -0.27730417641E+02  0.50528883586E+02  0.30000072148E+02 0.  0.
         12    1    1    2    0    0  0.25295488112E+02 -0.15630929793E+02  0.27730417641E+02  0.40659116414E+02  0.00000000000E+00 0. -1.
         11    1    3    3    0    0 -0.22136067849E+02  0.12387222853E+02 -0.10925569501E+02  0.27619139360E+02  0.51100000000E-03 0. -1.
        -11    1    3    3    0    0 -0.25038191151E-01  0.89849855915E+01 -0.10574449507E+02  0.13876223392E+02  0.51100000000E-03 0.  1.
         12    1    3    3    0    0 -0.31343820720E+01 -0.57412786516E+01 -0.62303986327E+01  0.90335208336E+01  0.00000000000E+00 0. -1.
</event>
<event>
 7    1  0.2991278E-011  0.5052887E+02  0.7816164E-02  0.1300439E+00
        -11   -1    0    0    0    0  0.00000000000E+00  0.00000000000E+00  0.45593999997E+02  0.45594000000E+02  0.51100000000E-03 0.  1.
         11   -1    0    0    0    0 -0.00000000000E+00 -0.00000000000E+00 -0.45593999997E+02  0.45594000000E+02  0.51100000000E-03 0. -1.
    9900012    2    1    2    0    0 -0.61352626257E+01 -0.19220771834E+02  0.35299936382E+02  0.50528867865E+02  0.30000024362E+02 0.  0.
         12    1    1    2    0    0  0.61352626257E+01  0.19220771834E+02 -0.35299936382E+02  0.40659132135E+02  0.00000000000E+00 0. -1.
         11    1    3    3    0    0 -0.63772762071E+00  0.46594514859E+01 -0.15184181269E+01  0.49419407662E+01  0.51100000000E-03 0. -1.
        -11    1    3    3    0    0  0.26460707646E+01 -0.13092851443E+02  0.17776865767E+02  0.22236038455E+02  0.51100000000E-03 0.  1.
         12    1    3    3    0    0 -0.81436057696E+01 -0.10787371877E+02  0.19041488742E+02  0.23350888644E+02  0.00000000000E+00 0. -1.
</event>
<event>
 7    1  0.2991278E-011  0.5052887E+02  0.7816164E-02  0.1300439E+00
        -11   -1    0    0    0    0  0.00000000000E+00  0.00000000000E+00  0.45593999997E+02  0.45594000000E+02  0.51100000000E-03 0.  1.
         11   -1    0    0    0    0 -0.00000000000E+00 -0.00000000000E+00 -0.45593999997E+02  0.45594000000E+02  0.51100000000E-03 0. -1.
    9900012    2    1    2    0    0 -0.38928685692E+02  0.63193725537E+01 -0.98887880807E+01  0.50528866107E+02  0.30000019020E+02 0.  0.
         12    1    1    2    0    0  0.38928685692E+02 -0.63193725537E+01  0.98887880807E+01  0.40659133893E+02  0.00000000000E+00 0. -1.
         11    1    3    3    0    0  0.11844769819E+00 -0.72394863129E+00  0.42044163585E+01  0.42679325973E+01  0.51100000000E-03 0. -1.
        -11    1    3    3    0    0 -0.10339179530E+02  0.58487012931E+01 -0.12852702466E+02  0.17501368550E+02  0.51100000000E-03 0.  1.
        -12    1    3    3    0    0 -0.28707953861E+02  0.11946198919E+01 -0.12405019728E+01  0.28759564960E+02  0.00000000000E+00 0.  1.
</event>
<event>
 7    1  0.2991278E-011  0.5052886E+02  0.7816164E-02  0.1300439E+00
        -11   -1    0    0    0    0  0.00000000000E+00  0.00000000000E+00  0.45593999997E+02  0.45594000000E+02  0.51100000000E-03 0.  1.
         11   -1    0    0    0    0 -0.00000000000E+00 -0.00000000000E+00 -0.45593999997E+02  0.45594000000E+02  0.51100000000E-03 0. -1.
    9900012    2    1    2    0    0 -0.19953657263E+02 -0.28881066106E+02  0.20515871298E+02  0.50528863355E+02  0.30000010655E+02 0.  0.
         12    1    1    2    0    0  0.19953657263E+02  0.28881066106E+02 -0.20515871298E+02  0.40659136645E+02  0.00000000000E+00 0. -1.
         11    1    3    3    0    0 -0.90837185620E+01 -0.10783248038E+02  0.58170257899E+01  0.15252218542E+02  0.51100000000E-03 0. -1.
        -11    1    3    3    0    0 -0.50898154576E+01  0.54919864561E+01  0.15082484923E+01  0.76382557172E+01  0.51100000000E-03 0.  1.
        -12    1    3    3    0    0 -0.57801232433E+01 -0.23589804524E+02  0.13190597016E+02  0.27638389096E+02  0.00000000000E+00 0.  1.
</event>
<event>
 7    1  0.2991278E-011  0.5052888E+02  0.7816164E-02  0.1300439E+00
        -11   -1    0    0    0    0  0.00000000000E+00  0.00000000000E+00  0.45593999997E+02  0.45594000000E+02  0.51100000000E-03 0.  1.
         11   -1    0    0    0    0 -0.00000000000E+00 -0.00000000000E+00 -0.45593999997E+02  0.45594000000E+02  0.51100000000E-03 0. -1.
    9900012    2    1    2    0    0  0.33351475438E+02 -0.17032227352E+02  0.15834974418E+02  0.50528879285E+02  0.30000059076E+02 0.  0.
         12    1    1    2    0    0 -0.33351475438E+02  0.17032227352E+02 -0.15834974418E+02  0.40659120715E+02  0.00000000000E+00 0. -1.
         11    1    3    3    0    0  0.15384082213E+01  0.39540981120E+01  0.28300352042E+01  0.51000677694E+01  0.51100000000E-03 0. -1.
        -11    1    3    3    0    0  0.98811229432E+01 -0.17485303478E+02  0.11557337147E+02  0.23172062285E+02  0.51100000000E-03 0.  1.
        -12    1    3    3    0    0  0.21931944274E+02 -0.35010219854E+01  0.14476020662E+01  0.22256749231E+02  0.00000000000E+00 0.  1.
</event>
<event>
 7    1  0.2991278E-011  0.5052889E+02  0.7816164E-02  0.1300439E+00
        -11   -1    0    0    0    0  0.00000000000E+00  0.00000000000E+00  0.45593999997E+02  0.45594000000E+02  0.51100000000E-03 0.  1.
         11   -1    0    0    0    0 -0.00000000000E+00 -0.00000000000E+00 -0.45593999997E+02  0.45594000000E+02  0.51100000000E-03 0. -1.
    9900012    2    1    2    0    0  0.10707478240E+02  0.75279825088E+01  0.38494706173E+02  0.50528892603E+02  0.30000099557E+02 0.  0.
         12    1    1    2    0    0 -0.10707478240E+02 -0.75279825088E+01 -0.38494706173E+02  0.40659107397E+02  0.00000000000E+00 0. -1.
         11    1    3    3    0    0 -0.76585798478E+01  0.80288895099E+01  0.14422956028E+02  0.18197213328E+02  0.51100000000E-03 0. -1.
        -11    1    3    3    0    0  0.15391188560E+02 -0.16181880545E+00  0.24856616059E+02  0.29236385427E+02  0.51100000000E-03 0.  1.
        -12    1    3    3    0    0  0.29748695271E+01 -0.33908819565E+00 -0.78486591418E+00  0.30952938489E+01  0.00000000000E+00 0.  1.
</event>
<event>
 7    1  0.2991278E-011  0.5052886E+02  0.7816164E-02  0.1300439E+00
        -11   -1    0    0    0    0  0.00000000000E+00  0.00000000000E+00  0.45593999997E+02  0.45594000000E+02  0.51100000000E-03 0. -1.
         11   -1    0    0    0    0 -0.00000000000E+00 -0.00000000000E+00 -0.45593999997E+02  0.45594000000E+02  0.51100000000E-03 0.  1.
    9900012    2    1    2    0    0  0.31012978208E+02  0.26144205661E+02  0.28002914261E+01  0.50528856637E+02  0.29999990234E+02 0.  0.
         12    1    1    2    0    0 -0.31012978208E+02 -0.26144205661E+02 -0.28002914261E+01  0.40659143363E+02  0.00000000000E+00 0. -1.
         11    1    3    3    0    0  0.92775972101E+01 -0.23718517669E+00  0.73316920943E+01  0.11827247187E+02  0.51100000000E-03 0. -1.
        -11    1    3    3    0    0  0.16099637242E+02  0.25557209465E+02  0.17077112738E+01  0.30253686602E+02  0.51100000000E-03 0.  1.
         12    1    3    3    0    0  0.56357437554E+01  0.82418137209E+00 -0.62391119419E+01  0.84479228473E+01  0.00000000000E+00 0. -1.
</event>
<event>
 7    1  0.2991278E-011  0.5052886E+02  0.7816164E-02  0.1300439E+00
        -11   -1    0    0    0    0  0.00000000000E+00  0.00000000000E+00  0.45593999997E+02  0.45594000000E+02  0.51100000000E-03 0. -1.
         11   -1    0    0    0    0 -0.00000000000E+00 -0.00000000000E+00 -0.45593999997E+02  0.45594000000E+02  0.51100000000E-03 0.  1.
    9900012    2    1    2    0    0 -0.33498339370E+02  0.96038149050E+01  0.20947394272E+02  0.50528864150E+02  0.30000013072E+02 0.  0.
         12    1    1    2    0    0  0.33498339370E+02 -0.96038149050E+01 -0.20947394272E+02  0.40659135850E+02  0.00000000000E+00 0. -1.
         11    1    3    3    0    0 -0.81798782262E+01  0.54899867339E+01 -0.51759574769E+01  0.11128382551E+02  0.51100000000E-03 0. -1.
        -11    1    3    3    0    0 -0.24442991392E+02  0.20935434577E+01  0.16588102482E+02  0.29614319115E+02  0.51100000000E-03 0.  1.
         12    1    3    3    0    0 -0.87546975143E+00  0.20202847133E+01  0.95352492665E+01  0.97861624850E+01  0.00000000000E+00 0. -1.
</event>
<event>
 7    1  0.2991278E-011  0.5052885E+02  0.7816164E-02  0.1300439E+00
        -11   -1    0    0    0    0  0.00000000000E+00  0.00000000000E+00  0.45593999997E+02  0.45594000000E+02  0.51100000000E-03 0.  1.
         11   -1    0    0    0    0 -0.00000000000E+00 -0.00000000000E+00 -0.45593999997E+02  0.45594000000E+02  0.51100000000E-03 0. -1.
    9900012    2    1    2    0    0  0.30298830141E+02  0.23752158408E+02  0.13076008565E+02  0.50528854203E+02  0.29999982836E+02 0.  0.
         12    1    1    2    0    0 -0.30298830141E+02 -0.23752158408E+02 -0.13076008565E+02  0.40659145797E+02  0.00000000000E+00 0. -1.
         11    1    3    3    0    0  0.10277759737E+02  0.22995581272E+02  0.49134629600E+01  0.25662642533E+02  0.51100000000E-03 0. -1.
        -11    1    3    3    0    0  0.66135861297E+01 -0.55582909614E+01  0.36046999369E+01  0.93609818825E+01  0.51100000000E-03 0.  1.
        -12    1    3    3    0    0  0.13407484274E+02  0.63148680975E+01  0.45578456680E+01  0.15505229788E+02  0.00000000000E+00 0.  1.
</event>
<event>
 7    1  0.2991278E-011  0.5052884E+02  0.7816164E-02  0.1300439E+00
        -11   -1    0    0    0    0  0.00000000000E+00  0.00000000000E+00  0.45593999997E+02  0.45594000000E+02  0.51100000000E-03 0.  1.
         11   -1    0    0    0    0 -0.00000000000E+00 -0.00000000000E+00 -0.45593999997E+02  0.45594000000E+02  0.51100000000E-03 0. -1.
    9900012    2    1    2    0    0  0.25538935083E+02  0.31269064840E+02  0.48140737025E+01  0.50528844490E+02  0.29999953313E+02 0.  0.
         12    1    1    2    0    0 -0.25538935083E+02 -0.31269064840E+02 -0.48140737025E+01  0.40659155510E+02  0.00000000000E+00 0. -1.
         11    1    3    3    0    0  0.29154217389E+01  0.20195490006E+02  0.11327027313E+02  0.23337931539E+02  0.51100000000E-03 0. -1.
        -11    1    3    3    0    0  0.13871288947E+02  0.61119549065E+01  0.87267483920E-01  0.15158372792E+02  0.51100000000E-03 0.  1.
         12    1    3    3    0    0  0.87522243979E+01  0.49616199271E+01 -0.66002210939E+01  0.12032540160E+02  0.00000000000E+00 0. -1.
</event>
<event>
 7    1  0.3451597E-011  0.5052886E+02  0.7816164E-02  0.1300439E+00
        -11   -1    0    0    0    0  0.00000000000E+00  0.00000000000E+00  0.45593999997E+02  0.45594000000E+02  0.51100000000E-03 0. -1.
         11   -1    0    0    0    0 -0.00000000000E+00 -0.00000000000E+00 -0.45593999997E+02  0.45594000000E+02  0.51100000000E-03 0.  1.
    9900012    2    1    2    0    0  0.20745845317E+02 -0.32467446125E+02  0.12986177554E+02  0.50528856339E+02  0.29999989327E+02 0.  0.
         12    1    1    2    0    0 -0.20745845317E+02  0.32467446125E+02 -0.12986177554E+02  0.40659143661E+02  0.00000000000E+00 0. -1.
         11    1    3    3    0    0  0.31385043886E+01  0.29329592448E+01  0.40225812386E+01  0.58850335438E+01  0.51100000000E-03 0. -1.
        -11    1    3    3    0    0  0.22711587659E+01 -0.24820788690E+02  0.71199675933E+01  0.25921490160E+02  0.51100000000E-03 0.  1.
        -12    1    3    3    0    0  0.15336182163E+02 -0.10579616680E+02  0.18436287222E+01  0.18722332635E+02  0.00000000000E+00 0.  1.
</event>
<event>
 7    1  0.2991278E-011  0.5052884E+02  0.7816164E-02  0.1300439E+00
        -11   -1    0    0    0    0  0.00000000000E+00  0.00000000000E+00  0.45593999997E+02  0.45594000000E+02  0.51100000000E-03 0. -1.
         11   -1    0    0    0    0 -0.00000000000E+00 -0.00000000000E+00 -0.45593999997E+02  0.45594000000E+02  0.51100000000E-03 0.  1.
    9900012    2    1    2    0    0 -0.10979979895E+02 -0.35750262448E+02  0.15953863420E+02  0.50528843816E+02  0.29999951262E+02 0.  0.
         12    1    1    2    0    0  0.10979979895E+02  0.35750262448E+02 -0.15953863420E+02  0.40659156184E+02  0.00000000000E+00 0. -1.
         11    1    3    3    0    0  0.19704919134E+01  0.46372410276E+00 -0.16030591478E+01  0.25821846016E+01  0.51100000000E-03 0. -1.
        -11    1    3    3    0    0 -0.18541665697E+02 -0.33357599921E+02  0.16505361323E+02  0.41580642034E+02  0.51100000000E-03 0.  1.
        -12    1    3    3    0    0  0.55911938887E+01 -0.28563866296E+01  0.10515612447E+01  0.63660171796E+01  0.00000000000E+00 0.  1.
</event>
<event>
 7    1  0.2991278E-011  0.5052886E+02  0.7816164E-02  0.1300439E+00
        -11   -1    0    0    0    0  0.00000000000E+00  0.00000000000E+00  0.45593999997E+02  0.45594000000E+02  0.51100000000E-03 0.  1.
         11   -1    0    0    0    0 -0.00000000000E+00 -0.00000000000E+00 -0.45593999997E+02  0.45594000000E+02  0.51100000000E-03 0. -1.
    9900012    2    1    2    0    0  0.16431787376E+02  0.20222058310E+02  0.31212664017E+02  0.50528859900E+02  0.30000000151E+02 0.  0.
         12    1    1    2    0    0 -0.16431787376E+02 -0.20222058310E+02 -0.31212664017E+02  0.40659140100E+02  0.00000000000E+00 0. -1.
         11    1    3    3    0    0  0.11074128894E+02  0.24954136142E+02  0.20813941107E+02  0.34330240110E+02  0.51100000000E-03 0. -1.
        -11    1    3    3    0    0  0.59537966564E+01 -0.42402135213E+01  0.12209270793E+02  0.14230017529E+02  0.51100000000E-03 0.  1.
         12    1    3    3    0    0 -0.59613817450E+00 -0.49186431071E+00 -0.18105478828E+01  0.19686022602E+01  0.00000000000E+00 0. -1.
</event>
<event>
 7    1  0.2991278E-011  0.5052878E+02  0.7816164E-02  0.1300439E+00
        -11   -1    0    0    0    0  0.00000000000E+00  0.00000000000E+00  0.45593999997E+02  0.45594000000E+02  0.51100000000E-03 0.  1.
         11   -1    0    0    0    0 -0.00000000000E+00 -0.00000000000E+00 -0.45593999997E+02  0.45594000000E+02  0.51100000000E-03 0. -1.
    9900012    2    1    2    0    0 -0.14135775647E+02  0.17384906142E+02  0.33928121723E+02  0.50528775237E+02  0.29999742809E+02 0.  0.
         12    1    1    2    0    0  0.14135775647E+02 -0.17384906142E+02 -0.33928121723E+02  0.40659224763E+02  0.00000000000E+00 0. -1.
         11    1    3    3    0    0  0.43627302214E+01  0.12474435037E+02  0.12196092680E+02  0.17983037046E+02  0.51100000000E-03 0. -1.
        -11    1    3    3    0    0 -0.13128711851E+02  0.10236816932E+02  0.15478580339E+02  0.22731958677E+02  0.51100000000E-03 0.  1.
         12    1    3    3    0    0 -0.53697940175E+01 -0.53263458260E+01  0.62534487039E+01  0.98137795136E+01  0.00000000000E+00 0. -1.
</event>
<event>
 7    1  0.2991278E-011  0.5052886E+02  0.7816164E-02  0.1300439E+00
        -11   -1    0    0    0    0  0.00000000000E+00  0.00000000000E+00  0.45593999997E+02  0.45594000000E+02  0.51100000000E-03 0. -1.
         11   -1    0    0    0    0 -0.00000000000E+00 -0.00000000000E+00 -0.45593999997E+02  0.45594000000E+02  0.51100000000E-03 0.  1.
    9900012    2    1    2    0    0 -0.20324514546E+02 -0.51094886774E+01 -0.34842115055E+02  0.50528858991E+02  0.29999997389E+02 0.  0.
         12    1    1    2    0    0  0.20324514546E+02  0.51094886774E+01  0.34842115055E+02  0.40659141009E+02  0.00000000000E+00 0. -1.
         11    1    3    3    0    0 -0.54779914205E+01  0.62832210935E+01 -0.77407844244E-01  0.83362611253E+01  0.51100000000E-03 0. -1.
        -11    1    3    3    0    0 -0.73404953635E+01 -0.88484242570E+01 -0.31656228717E+02  0.33679285932E+02  0.51100000000E-03 0.  1.
         12    1    3    3    0    0 -0.75060277618E+01 -0.25442855139E+01 -0.31084784939E+01  0.85133119339E+01  0.00000000000E+00 0. -1.
</event>
<event>
 7    1  0.2991278E-011  0.5052889E+02  0.7816164E-02  0.1300439E+00
        -11   -1    0    0    0    0  0.00000000000E+00  0.00000000000E+00  0.45593999997E+02  0.45594000000E+02  0.51100000000E-03 0. -1.
         11   -1    0    0    0    0 -0.00000000000E+00 -0.00000000000E+00 -0.45593999997E+02  0.45594000000E+02  0.51100000000E-03 0.  1.
    9900012    2    1    2    0    0 -0.12119317964E+02  0.31671415431E+02 -0.22432279394E+02  0.50528885621E+02  0.30000078333E+02 0.  0.
         12    1    1    2    0    0  0.12119317964E+02 -0.31671415431E+02  0.22432279394E+02  0.40659114379E+02  0.00000000000E+00 0. -1.
         11    1    3    3    0    0 -0.44757030589E+01  0.31111012598E+02 -0.17459546319E+02  0.35955010509E+02  0.51100000000E-03 0. -1.
        -11    1    3    3    0    0 -0.12358638287E+01 -0.34275136280E+01 -0.59362858447E+01  0.69652493828E+01  0.51100000000E-03 0.  1.
         12    1    3    3    0    0 -0.64077510760E+01  0.39879164604E+01  0.96355276979E+00  0.76086257292E+01  0.00000000000E+00 0. -1.
</event>
<event>
 7    1  0.2991278E-011  0.5052886E+02  0.7816164E-02  0.1300439E+00
        -11   -1    0    0    0    0  0.00000000000E+00  0.00000000000E+00  0.45593999997E+02  0.45594000000E+02  0.51100000000E-03 0.  1.
         11   -1    0    0    0    0 -0.00000000000E+00 -0.00000000000E+00 -0.45593999997E+02  0.45594000000E+02  0.51100000000E-03 0. -1.
    9900012    2    1    2    0    0  0.30969152728E+02 -0.18443027135E+02  0.18813070692E+02  0.50528864501E+02  0.30000014139E+02 0.  0.
         12    1    1    2    0    0 -0.30969152728E+02  0.18443027135E+02 -0.18813070692E+02  0.40659135499E+02  0.00000000000E+00 0. -1.
         11    1    3    3    0    0 -0.11047304032E+01 -0.73171032735E+01  0.89385038844E+01  0.11604192412E+02  0.51100000000E-03 0.  1.
        -11    1    3    3    0    0  0.18459567227E+02 -0.10412743487E+02 -0.13907833555E+01  0.21239470985E+02  0.51100000000E-03 0. -1.
        -12    1    3    3    0    0  0.13614315905E+02 -0.71318037467E+00  0.11265350163E+02  0.17685201104E+02  0.00000000000E+00 0.  1.
</event>
<event>
 7    1  0.2991278E-011  0.5052886E+02  0.7816164E-02  0.1300439E+00
        -11   -1    0    0    0    0  0.00000000000E+00  0.00000000000E+00  0.45593999997E+02  0.45594000000E+02  0.51100000000E-03 0. -1.
         11   -1    0    0    0    0 -0.00000000000E+00 -0.00000000000E+00 -0.45593999997E+02  0.45594000000E+02  0.51100000000E-03 0.  1.
    9900012    2    1    2    0    0 -0.32208637948E+02 -0.97021738834E+01 -0.22839379232E+02  0.50528858589E+02  0.29999996169E+02 0.  0.
         12    1    1    2    0    0  0.32208637948E+02  0.97021738834E+01  0.22839379232E+02  0.40659141411E+02  0.00000000000E+00 0. -1.
         11    1    3    3    0    0 -0.17737407907E+02  0.53980964918E+01 -0.63118522483E+01  0.19585570302E+02  0.51100000000E-03 0. -1.
        -11    1    3    3    0    0 -0.97349288509E+00 -0.89960921189E+01 -0.41840816268E+00  0.90582794978E+01  0.51100000000E-03 0.  1.
        -12    1    3    3    0    0 -0.13497737155E+02 -0.61041782562E+01 -0.16109118821E+02  0.21885008789E+02  0.00000000000E+00 0.  1.
</event>
<event>
 7    1  0.2991278E-011  0.5052886E+02  0.7816164E-02  0.1300439E+00
        -11   -1    0    0    0    0  0.00000000000E+00  0.00000000000E+00  0.45593999997E+02  0.45594000000E+02  0.51100000000E-03 0. -1.
         11   -1    0    0    0    0 -0.00000000000E+00 -0.00000000000E+00 -0.45593999997E+02  0.45594000000E+02  0.51100000000E-03 0.  1.
    9900012    2    1    2    0    0 -0.38243979511E+02 -0.12611142145E+02 -0.56145134776E+01  0.50528860356E+02  0.30000001537E+02 0.  0.
         12    1    1    2    0    0  0.38243979511E+02  0.12611142145E+02  0.56145134776E+01  0.40659139644E+02  0.00000000000E+00 0. -1.
         11    1    3    3    0    0 -0.77843768178E+01 -0.13224326308E+01  0.51632651604E+01  0.94342279960E+01  0.51100000000E-03 0. -1.
        -11    1    3    3    0    0 -0.11619625218E+02 -0.11927223060E+02 -0.14262183293E+02  0.21924511686E+02  0.51100000000E-03 0.  1.
        -12    1    3    3    0    0 -0.18839977476E+02  0.63851354623E+00  0.34844046552E+01  0.19170120673E+02  0.00000000000E+00 0.  1.
</event>
<event>
 7    1  0.2991278E-011  0.5052887E+02  0.7816164E-02  0.1300439E+00
        -11   -1    0    0    0    0  0.00000000000E+00  0.00000000000E+00  0.45593999997E+02  0.45594000000E+02  0.51100000000E-03 0.  1.
         11   -1    0    0    0    0 -0.00000000000E+00 -0.00000000000E+00 -0.45593999997E+02  0.45594000000E+02  0.51100000000E-03 0. -1.
    9900012    2    1    2    0    0 -0.11492244837E+01  0.25262019371E+02 -0.31838258537E+02  0.50528867616E+02  0.30000023604E+02 0.  0.
         12    1    1    2    0    0  0.11492244837E+01 -0.25262019371E+02  0.31838258537E+02  0.40659132384E+02  0.00000000000E+00 0. -1.
         11    1    3    3    0    0 -0.81786892235E+01  0.40169257820E+01 -0.77617485745E-01  0.91122266702E+01  0.51100000000E-03 0. -1.
        -11    1    3    3    0    0  0.51524149114E+01  0.20120806964E+02 -0.32932093529E+02  0.38934779269E+02  0.51100000000E-03 0.  1.
         12    1    3    3    0    0  0.18770498284E+01  0.11242866249E+01  0.11714524777E+01  0.24818616764E+01  0.00000000000E+00 0. -1.
</event>
<event>
 7    1  0.2991278E-011  0.5052886E+02  0.7816164E-02  0.1300439E+00
        -11   -1    0    0    0    0  0.00000000000E+00  0.00000000000E+00  0.45593999997E+02  0.45594000000E+02  0.51100000000E-03 0.  1.
         11   -1    0    0    0    0 -0.00000000000E+00 -0.00000000000E+00 -0.45593999997E+02  0.45594000000E+02  0.51100000000E-03 0. -1.
    9900012    2    1    2    0    0  0.34342121815E+02  0.11858451187E+02  0.18252702537E+02  0.50528863939E+02  0.30000012430E+02 0.  0.
         12    1    1    2    0    0 -0.34342121815E+02 -0.11858451187E+02 -0.18252702537E+02  0.40659136061E+02  0.00000000000E+00 0. -1.
         11    1    3    3    0    0  0.33290930164E+01  0.13060358982E+02  0.62974229508E+01  0.14876604892E+02  0.51100000000E-03 0. -1.
        -11    1    3    3    0    0  0.28833332200E+02 -0.46481604319E+01  0.88193372221E+01  0.30508148919E+02  0.51100000000E-03 0.  1.
        -12    1    3    3    0    0  0.21796965982E+01  0.34462526369E+01  0.31359423640E+01  0.51441101279E+01  0.00000000000E+00 0.  1.
</event>
<event>
 7    1  0.2991278E-011  0.5052887E+02  0.7816164E-02  0.1300439E+00
        -11   -1    0    0    0    0  0.00000000000E+00  0.00000000000E+00  0.45593999997E+02  0.45594000000E+02  0.51100000000E-03 0.  1.
         11   -1    0    0    0    0 -0.00000000000E+00 -0.00000000000E+00 -0.45593999997E+02  0.45594000000E+02  0.51100000000E-03 0. -1.
    9900012    2    1    2    0    0 -0.85941834121E+01 -0.12631910840E+02  0.37679433381E+02  0.50528869907E+02  0.30000030569E+02 0.  0.
         12    1    1    2    0    0  0.85941834121E+01  0.12631910840E+02 -0.37679433381E+02  0.40659130093E+02  0.00000000000E+00 0. -1.
         11    1    3    3    0    0 -0.11972847437E+02 -0.15935583322E+02  0.10218372187E+02  0.22398817424E+02  0.51100000000E-03 0. -1.
        -11    1    3    3    0    0  0.28405085469E+01  0.27981970983E+00  0.16577278583E+02  0.16821205467E+02  0.51100000000E-03 0.  1.
         12    1    3    3    0    0  0.53815547824E+00  0.30238527721E+01  0.10883782611E+02  0.11308847016E+02  0.00000000000E+00 0. -1.
</event>
<event>
 7    1  0.2991278E-011  0.5052885E+02  0.7816164E-02  0.1300439E+00
        -11   -1    0    0    0    0  0.00000000000E+00  0.00000000000E+00  0.45593999997E+02  0.45594000000E+02  0.51100000000E-03 0.  1.
         11   -1    0    0    0    0 -0.00000000000E+00 -0.00000000000E+00 -0.45593999997E+02  0.45594000000E+02  0.51100000000E-03 0. -1.
    9900012    2    1    2    0    0 -0.38768539816E+02  0.12243583513E+02 -0.51094701988E+00  0.50528854859E+02  0.29999984830E+02 0.  0.
         12    1    1    2    0    0  0.38768539816E+02 -0.12243583513E+02  0.51094701988E+00  0.40659145141E+02  0.00000000000E+00 0. -1.
         11    1    3    3    0    0 -0.79978357664E+01 -0.48143133488E+01 -0.78242677927E+00  0.93677735825E+01  0.51100000000E-03 0. -1.
        -11    1    3    3    0    0 -0.53955105761E+01  0.13572116827E+02  0.43173478574E+01  0.15230015835E+02  0.51100000000E-03 0.  1.
        -12    1    3    3    0    0 -0.25375193474E+02  0.34857800342E+01 -0.40458680980E+01  0.25931065442E+02  0.00000000000E+00 0.  1.
</event>
<event>
 7    1  0.2991278E-011  0.5052885E+02  0.7816164E-02  0.1300439E+00
        -11   -1    0    0    0    0  0.00000000000E+00  0.00000000000E+00  0.45593999997E+02  0.45594000000E+02  0.51100000000E-03 0.  1.
         11   -1    0    0    0    0 -0.00000000000E+00 -0.00000000000E+00 -0.45593999997E+02  0.45594000000E+02  0.51100000000E-03 0. -1.
    9900012    2    1    2    0    0  0.33910979175E+02  0.71284345185E+01  0.21269628867E+02  0.50528853434E+02  0.29999980499E+02 0.  0.
         12    1    1    2    0    0 -0.33910979175E+02 -0.71284345185E+01 -0.21269628867E+02  0.40659146566E+02  0.00000000000E+00 0. -1.
         11    1    3    3    0    0 -0.20908700392E+01  0.71933652736E+01  0.55298347109E+01  0.93110318264E+01  0.51100000000E-03 0. -1.
        -11    1    3    3    0    0  0.27446594035E+02 -0.45845695835E+01  0.14742415510E+02  0.31490833869E+02  0.51100000000E-03 0.  1.
         12    1    3    3    0    0  0.85552551790E+01  0.45196388284E+01  0.99737864613E+00  0.97269877393E+01  0.00000000000E+00 0. -1.
</event>
<event>
 7    1  0.2991278E-011  0.5052885E+02  0.7816164E-02  0.1300439E+00
        -11   -1    0    0    0    0  0.00000000000E+00  0.00000000000E+00  0.45593999997E+02  0.45594000000E+02  0.51100000000E-03 0.  1.
         11   -1    0    0    0    0 -0.00000000000E+00 -0.00000000000E+00 -0.45593999997E+02  0.45594000000E+02  0.51100000000E-03 0. -1.
    9900012    2    1    2    0    0  0.33582564667E+02 -0.22268915425E+02  0.54288968424E+01  0.50528853861E+02  0.29999981795E+02 0.  0.
         12    1    1    2    0    0 -0.33582564667E+02  0.22268915425E+02 -0.54288968424E+01  0.40659146139E+02  0.00000000000E+00 0. -1.
         11    1    3    3    0    0  0.47380994253E+01 -0.16880746028E+02  0.29672961983E+00  0.17535598688E+02  0.51100000000E-03 0. -1.
        -11    1    3    3    0    0  0.24411500429E+02 -0.72414861401E+01  0.88083774482E+01  0.26943421985E+02  0.51100000000E-03 0.  1.
         12    1    3    3    0    0  0.44329648128E+01  0.18533167425E+01 -0.36762102256E+01  0.60498331880E+01  0.00000000000E+00 0. -1.
</event>
<event>
 7    1  0.2991278E-011  0.5052885E+02  0.7816164E-02  0.1300439E+00
        -11   -1    0    0    0    0  0.00000000000E+00  0.00000000000E+00  0.45593999997E+02  0.45594000000E+02  0.51100000000E-03 0.  1.
         11   -1    0    0    0    0 -0.00000000000E+00 -0.00000000000E+00 -0.45593999997E+02  0.45594000000E+02  0.51100000000E-03 0. -1.
    9900012    2    1    2    0    0  0.22885880139E+02  0.72024717034E+01  0.32825712126E+02  0.50528849923E+02  0.29999969827E+02 0.  0.
         12    1    1    2    0    0 -0.22885880139E+02 -0.72024717034E+01 -0.32825712126E+02  0.40659150077E+02  0.00000000000E+00 0. -1.
         11    1    3    3    0    0  0.10641525867E+02 -0.84199493984E+01  0.64587568320E+01  0.15028411783E+02  0.51100000000E-03 0. -1.
        -11    1    3    3    0    0  0.14812035388E+02  0.13870910556E+02  0.24721408130E+02  0.31983535955E+02  0.51100000000E-03 0.  1.
         12    1    3    3    0    0 -0.25676811169E+01  0.17515105454E+01  0.16455471641E+01  0.35169021849E+01  0.00000000000E+00 0. -1.
</event>
<event>
 7    1  0.2991278E-011  0.5052887E+02  0.7816164E-02  0.1300439E+00
        -11   -1    0    0    0    0  0.00000000000E+00  0.00000000000E+00  0.45593999997E+02  0.45594000000E+02  0.51100000000E-03 0.  1.
         11   -1    0    0    0    0 -0.00000000000E+00 -0.00000000000E+00 -0.45593999997E+02  0.45594000000E+02  0.51100000000E-03 0. -1.
    9900012    2    1    2    0    0  0.16056908775E+02  0.59968188281E+01  0.36869755488E+02  0.50528867874E+02  0.30000024390E+02 0.  0.
         12    1    1    2    0    0 -0.16056908775E+02 -0.59968188281E+01 -0.36869755488E+02  0.40659132126E+02  0.00000000000E+00 0. -1.
         11    1    3    3    0    0  0.11779109954E+02  0.79089581453E+01  0.12010088691E+02  0.18588740702E+02  0.51100000000E-03 0. -1.
        -11    1    3    3    0    0 -0.76198753474E+01  0.37762475322E+00  0.69702265242E+01  0.10333884014E+02  0.51100000000E-03 0.  1.
        -12    1    3    3    0    0  0.11897674168E+02 -0.22897640704E+01  0.17889440273E+02  0.21606243158E+02  0.00000000000E+00 0.  1.
</event>
<event>
 7    1  0.2991278E-011  0.5052887E+02  0.7816164E-02  0.1300439E+00
        -11   -1    0    0    0    0  0.00000000000E+00  0.00000000000E+00  0.45593999997E+02  0.45594000000E+02  0.51100000000E-03 0.  1.
         11   -1    0    0    0    0 -0.00000000000E+00 -0.00000000000E+00 -0.45593999997E+02  0.45594000000E+02  0.51100000000E-03 0. -1.
    9900012    2    1    2    0    0  0.35666029972E+02 -0.77827887453E+01  0.17903270119E+02  0.50528873404E+02  0.30000041198E+02 0.  0.
         12    1    1    2    0    0 -0.35666029972E+02  0.77827887453E+01 -0.17903270119E+02  0.40659126596E+02  0.00000000000E+00 0. -1.
         11    1    3    3    0    0  0.27142202860E+02 -0.34111829674E+01  0.56487140027E+01  0.27932835794E+02  0.51100000000E-03 0. -1.
        -11    1    3    3    0    0 -0.19579272489E+01 -0.30544083350E+01  0.11438821201E+02  0.12000396665E+02  0.51100000000E-03 0.  1.
        -12    1    3    3    0    0  0.10481754361E+02 -0.13171974429E+01  0.81573491486E+00  0.10595640945E+02  0.00000000000E+00 0.  1.
</event>
<event>
 7    1  0.2991278E-011  0.5052887E+02  0.7816164E-02  0.1300439E+00
        -11   -1    0    0    0    0  0.00000000000E+00  0.00000000000E+00  0.45593999997E+02  0.45594000000E+02  0.51100000000E-03 0.  1.
         11   -1    0    0    0    0 -0.00000000000E+00 -0.00000000000E+00 -0.45593999997E+02  0.45594000000E+02  0.51100000000E-03 0. -1.
    9900012    2    1    2    0    0 -0.32755261506E+02  0.21681667468E+02  0.10495872007E+02  0.50528865851E+02  0.30000018241E+02 0.  0.
         12    1    1    2    0    0  0.32755261506E+02 -0.21681667468E+02 -0.10495872007E+02  0.40659134149E+02  0.00000000000E+00 0. -1.
         11    1    3    3    0    0 -0.52940937830E+01  0.41767096493E+01 -0.63289653678E+01  0.92481422657E+01  0.51100000000E-03 0. -1.
        -11    1    3    3    0    0 -0.25206241271E+02  0.13081419019E+02  0.20566477377E+02  0.35063629512E+02  0.51100000000E-03 0.  1.
        -12    1    3    3    0    0 -0.22549264520E+01  0.44235387997E+01 -0.37416400021E+01  0.62170940737E+01  0.00000000000E+00 0.  1.
</event>
<event>
 7    1  0.2991278E-011  0.5052886E+02  0.7816164E-02  0.1300439E+00
        -11   -1    0    0    0    0  0.00000000000E+00  0.00000000000E+00  0.45593999997E+02  0.45594000000E+02  0.51100000000E-03 0.  1.
         11   -1    0    0    0    0 -0.00000000000E+00 -0.00000000000E+00 -0.45593999997E+02  0.45594000000E+02  0.51100000000E-03 0. -1.
    9900012    2    1    2    0    0  0.32638996653E+01  0.87380749665E+01  0.39574722518E+02  0.50528860099E+02  0.30000000756E+02 0.  0.
         12    1    1    2    0    0 -0.32638996653E+01 -0.87380749665E+01 -0.39574722518E+02  0.40659139901E+02  0.00000000000E+00 0. -1.
         11    1    3    3    0    0 -0.10218658486E+02  0.56086621589E+01  0.31784457258E+02  0.33854538779E+02  0.51100000000E-03 0. -1.
        -11    1    3    3    0    0  0.11037547411E+02  0.42825877722E+01  0.52018976378E+01  0.12931656900E+02  0.51100000000E-03 0.  1.
         12    1    3    3    0    0  0.24450107395E+01 -0.11531749646E+01  0.25883676215E+01  0.37426644199E+01  0.00000000000E+00 0. -1.
</event>
<event>
 7    1  0.2991278E-011  0.5052886E+02  0.7816164E-02  0.1300439E+00
        -11   -1    0    0    0    0  0.00000000000E+00  0.00000000000E+00  0.45593999997E+02  0.45594000000E+02  0.51100000000E-03 0.  1.
         11   -1    0    0    0    0 -0.00000000000E+00 -0.00000000000E+00 -0.45593999997E+02  0.45594000000E+02  0.51100000000E-03 0. -1.
    9900012    2    1    2    0    0 -0.35023711215E+02  0.18691320453E+02  0.87829366793E+01  0.50528858540E+02  0.29999996020E+02 0.  0.
         12    1    1    2    0    0  0.35023711215E+02 -0.18691320453E+02 -0.87829366793E+01  0.40659141460E+02  0.00000000000E+00 0. -1.
         11    1    3    3    0    0  0.44409725895E+01  0.33386356083E+01  0.12009905883E+01  0.56842857000E+01  0.51100000000E-03 0. -1.
        -11    1    3    3    0    0 -0.13693669329E+02  0.16852777765E-01 -0.76717624740E+00  0.13715153057E+02  0.51100000000E-03 0.  1.
         12    1    3    3    0    0 -0.25771014475E+02  0.15335832067E+02  0.83491223384E+01  0.31129419784E+02  0.00000000000E+00 0. -1.
</event>
<event>
 7    1  0.2991278E-011  0.5052885E+02  0.7816164E-02  0.1300439E+00
        -11   -1    0    0    0    0  0.00000000000E+00  0.00000000000E+00  0.45593999997E+02  0.45594000000E+02  0.51100000000E-03 0. -1.
         11   -1    0    0    0    0 -0.00000000000E+00 -0.00000000000E+00 -0.45593999997E+02  0.45594000000E+02  0.51100000000E-03 0.  1.
    9900012    2    1    2    0    0 -0.24489628685E+02  0.26164767213E+02 -0.19204928579E+02  0.50528852958E+02  0.29999979052E+02 0.  0.
         12    1    1    2    0    0  0.24489628685E+02 -0.26164767213E+02  0.19204928579E+02  0.40659147042E+02  0.00000000000E+00 0. -1.
         11    1    3    3    0    0  0.30599923585E+01  0.53618453383E+01 -0.95766525870E+01  0.11394086787E+02  0.51100000000E-03 0. -1.
        -11    1    3    3    0    0 -0.23787861678E+02  0.20834779325E+02 -0.12897258041E+02  0.34150983265E+02  0.51100000000E-03 0.  1.
         12    1    3    3    0    0 -0.37617593655E+01 -0.31857450204E-01  0.32689820493E+01  0.49837829066E+01  0.00000000000E+00 0. -1.
</event>
<event>
 7    1  0.2991278E-011  0.5052885E+02  0.7816164E-02  0.1300439E+00
        -11   -1    0    0    0    0  0.00000000000E+00  0.00000000000E+00  0.45593999997E+02  0.45594000000E+02  0.51100000000E-03 0.  1.
         11   -1    0    0    0    0 -0.00000000000E+00 -0.00000000000E+00 -0.45593999997E+02  0.45594000000E+02  0.51100000000E-03 0. -1.
    9900012    2    1    2    0    0  0.17789566442E+02  0.18630453474E+02  0.31457972840E+02  0.50528849418E+02  0.29999968291E+02 0.  0.
         12    1    1    2    0    0 -0.17789566442E+02 -0.18630453474E+02 -0.31457972840E+02  0.40659150582E+02  0.00000000000E+00 0. -1.
         11    1    3    3    0    0 -0.12955147335E+00  0.17576179023E+01 -0.38902380016E+01  0.42708261783E+01  0.51100000000E-03 0. -1.
        -11    1    3    3    0    0  0.57128820222E+01 -0.72774802141E-01  0.18690571165E+02  0.19544302697E+02  0.51100000000E-03 0.  1.
        -12    1    3    3    0    0  0.12206235893E+02  0.16945610374E+02  0.16657639676E+02  0.26713720542E+02  0.00000000000E+00 0.  1.
</event>
<event>
 7    1  0.2991278E-011  0.5052886E+02  0.7816164E-02  0.1300439E+00
        -11   -1    0    0    0    0  0.00000000000E+00  0.00000000000E+00  0.45593999997E+02  0.45594000000E+02  0.51100000000E-03 0. -1.
         11   -1    0    0    0    0 -0.00000000000E+00 -0.00000000000E+00 -0.45593999997E+02  0.45594000000E+02  0.51100000000E-03 0.  1.
    9900012    2    1    2    0    0 -0.32892749075E+02  0.13902626941E+02  0.19440936898E+02  0.50528855825E+02  0.29999987766E+02 0.  0.
         12    1    1    2    0    0  0.32892749075E+02 -0.13902626941E+02 -0.19440936898E+02  0.40659144175E+02  0.00000000000E+00 0. -1.
         11    1    3    3    0    0 -0.14981321425E+02  0.15230800534E+02  0.49269432364E+01  0.21924690339E+02  0.51100000000E-03 0. -1.
        -11    1    3    3    0    0  0.28970697592E-01 -0.60809041687E+01  0.39011723141E+01  0.72247754633E+01  0.51100000000E-03 0.  1.
        -12    1    3    3    0    0 -0.17940398347E+02  0.47527305752E+01  0.10612821347E+02  0.21379390022E+02  0.00000000000E+00 0.  1.
</event>
<event>
 7    1  0.2991278E-011  0.5052890E+02  0.7816164E-02  0.1300439E+00
        -11   -1    0    0    0    0  0.00000000000E+00  0.00000000000E+00  0.45593999997E+02  0.45594000000E+02  0.51100000000E-03 0. -1.
         11   -1    0    0    0    0 -0.00000000000E+00 -0.00000000000E+00 -0.45593999997E+02  0.45594000000E+02  0.51100000000E-03 0.  1.
    9900012    2    1    2    0    0  0.29728948047E+01  0.39161743835E+02 -0.10520575075E+02  0.50528895440E+02  0.30000108179E+02 0.  0.
         12    1    1    2    0    0 -0.29728948047E+01 -0.39161743835E+02  0.10520575075E+02  0.40659104560E+02  0.00000000000E+00 0. -1.
         11    1    3    3    0    0 -0.74824488140E+01  0.14545644218E+02 -0.88214194989E+01  0.18584408740E+02  0.51100000000E-03 0.  1.
        -11    1    3    3    0    0  0.87577476919E+01  0.43180122004E+01 -0.55253176883E+01  0.11219291859E+02  0.51100000000E-03 0. -1.
         12    1    3    3    0    0  0.16975959269E+01  0.20298087416E+02  0.38261621117E+01  0.20725194841E+02  0.00000000000E+00 0. -1.
</event>
<event>
 7    1  0.2991278E-011  0.5052886E+02  0.7816164E-02  0.1300439E+00
        -11   -1    0    0    0    0  0.00000000000E+00  0.00000000000E+00  0.45593999997E+02  0.45594000000E+02  0.51100000000E-03 0.  1.
         11   -1    0    0    0    0 -0.00000000000E+00 -0.00000000000E+00 -0.45593999997E+02  0.45594000000E+02  0.51100000000E-03 0. -1.
    9900012    2    1    2    0    0  0.21520246308E+02 -0.33246868547E+02  0.92027205974E+01  0.50528864056E+02  0.30000012785E+02 0.  0.
         12    1    1    2    0    0 -0.21520246308E+02  0.33246868547E+02 -0.92027205974E+01  0.40659135944E+02  0.00000000000E+00 0. -1.
         11    1    3    3    0    0  0.17516845379E+01 -0.18644960396E+01 -0.44539014075E+01  0.51363393784E+01  0.51100000000E-03 0. -1.
        -11    1    3    3    0    0  0.16758689043E+02 -0.34723927964E+02  0.13631294773E+02  0.40895195673E+02  0.51100000000E-03 0.  1.
        -12    1    3    3    0    0  0.30098727268E+01  0.33415554570E+01  0.25327231667E-01  0.44973290042E+01  0.00000000000E+00 0.  1.
</event>
<event>
 7    1  0.2991278E-011  0.5052882E+02  0.7816164E-02  0.1300439E+00
        -11   -1    0    0    0    0  0.00000000000E+00  0.00000000000E+00  0.45593999997E+02  0.45594000000E+02  0.51100000000E-03 0.  1.
         11   -1    0    0    0    0 -0.00000000000E+00 -0.00000000000E+00 -0.45593999997E+02  0.45594000000E+02  0.51100000000E-03 0. -1.
    9900012    2    1    2    0    0 -0.41876456950E+01  0.39606855584E+02  0.81810264380E+01  0.50528824168E+02  0.29999891542E+02 0.  0.
         12    1    1    2    0    0  0.41876456950E+01 -0.39606855584E+02 -0.81810264380E+01  0.40659175832E+02  0.00000000000E+00 0. -1.
         11    1    3    3    0    0 -0.62080133925E-01  0.29301848041E+02  0.15852163179E+02  0.33315060112E+02  0.51100000000E-03 0.  1.
        -11    1    3    3    0    0  0.98389505450E-01  0.44710552051E+01 -0.88496221673E+01  0.99154338234E+01  0.51100000000E-03 0. -1.
        -12    1    3    3    0    0 -0.42239550665E+01  0.58339523383E+01  0.11784854261E+01  0.72983302329E+01  0.00000000000E+00 0.  1.
</event>
<event>
 7    1  0.2991278E-011  0.5052888E+02  0.7816164E-02  0.1300439E+00
        -11   -1    0    0    0    0  0.00000000000E+00  0.00000000000E+00  0.45593999997E+02  0.45594000000E+02  0.51100000000E-03 0.  1.
         11   -1    0    0    0    0 -0.00000000000E+00 -0.00000000000E+00 -0.45593999997E+02  0.45594000000E+02  0.51100000000E-03 0. -1.
    9900012    2    1    2    0    0 -0.27223283085E+02  0.26950633987E+02  0.13627915686E+02  0.50528881710E+02  0.30000066445E+02 0.  0.
         12    1    1    2    0    0  0.27223283085E+02 -0.26950633987E+02 -0.13627915686E+02  0.40659118290E+02  0.00000000000E+00 0. -1.
         11    1    3    3    0    0 -0.17669594600E+02  0.38633649273E+01  0.49155959885E+01  0.18743085287E+02  0.51100000000E-03 0. -1.
        -11    1    3    3    0    0 -0.90347892465E+01  0.25671517688E+02  0.98120462402E+01  0.28929750929E+02  0.51100000000E-03 0.  1.
        -12    1    3    3    0    0 -0.51889923813E+00 -0.25842486287E+01 -0.10997265429E+01  0.28560454940E+01  0.00000000000E+00 0.  1.
</event>
<event>
 7    1  0.2991278E-011  0.5052886E+02  0.7816164E-02  0.1300439E+00
        -11   -1    0    0    0    0  0.00000000000E+00  0.00000000000E+00  0.45593999997E+02  0.45594000000E+02  0.51100000000E-03 0.  1.
         11   -1    0    0    0    0 -0.00000000000E+00 -0.00000000000E+00 -0.45593999997E+02  0.45594000000E+02  0.51100000000E-03 0. -1.
    9900012    2    1    2    0    0 -0.85024132310E+01 -0.88978202902E+00  0.39750255232E+02  0.50528861620E+02  0.30000005379E+02 0.  0.
         12    1    1    2    0    0  0.85024132310E+01  0.88978202902E+00 -0.39750255232E+02  0.40659138380E+02  0.00000000000E+00 0. -1.
         11    1    3    3    0    0 -0.44225765726E+01 -0.39164661313E+01 -0.12365034791E+01  0.60354644903E+01  0.51100000000E-03 0. -1.
        -11    1    3    3    0    0  0.39284540871E+01 -0.45116734220E+01  0.18824901632E+02  0.19752591483E+02  0.51100000000E-03 0.  1.
         12    1    3    3    0    0 -0.80082907456E+01  0.75383575243E+01  0.22161857079E+02  0.24740805646E+02  0.00000000000E+00 0. -1.
</event>
<event>
 7    1  0.3355400E-011  0.5052886E+02  0.7816164E-02  0.1300439E+00
        -11   -1    0    0    0    0  0.00000000000E+00  0.00000000000E+00  0.45593999997E+02  0.45594000000E+02  0.51100000000E-03 0. -1.
         11   -1    0    0    0    0 -0.00000000000E+00 -0.00000000000E+00 -0.45593999997E+02  0.45594000000E+02  0.51100000000E-03 0.  1.
    9900012    2    1    2    0    0 -0.11588599176E+02 -0.16391346226E+02 -0.35358074009E+02  0.50528864992E+02  0.30000015631E+02 0.  0.
         12    1    1    2    0    0  0.11588599176E+02  0.16391346226E+02  0.35358074009E+02  0.40659135008E+02  0.00000000000E+00 0. -1.
         11    1    3    3    0    0 -0.11944507741E+02 -0.11898681302E+02 -0.97734596958E+01  0.19487698596E+02  0.51100000000E-03 0. -1.
        -11    1    3    3    0    0  0.33995742877E+01 -0.78909402712E+01 -0.25007985345E+02  0.26442832204E+02  0.51100000000E-03 0.  1.
         12    1    3    3    0    0 -0.30436657233E+01  0.33982753476E+01 -0.57662896769E+00  0.45983341918E+01  0.00000000000E+00 0. -1.
</event>
<event>
 7    1  0.2991278E-011  0.5052886E+02  0.7816164E-02  0.1300439E+00
        -11   -1    0    0    0    0  0.00000000000E+00  0.00000000000E+00  0.45593999997E+02  0.45594000000E+02  0.51100000000E-03 0.  1.
         11   -1    0    0    0    0 -0.00000000000E+00 -0.00000000000E+00 -0.45593999997E+02  0.45594000000E+02  0.51100000000E-03 0. -1.
    9900012    2    1    2    0    0 -0.15194091397E+01 -0.12552489086E+02  0.38643140432E+02  0.50528857254E+02  0.29999992109E+02 0.  0.
         12    1    1    2    0    0  0.15194091397E+01  0.12552489086E+02 -0.38643140432E+02  0.40659142746E+02  0.00000000000E+00 0. -1.
         11    1    3    3    0    0 -0.10268280615E+02 -0.10477960657E+02  0.17395667016E+02  0.22755976743E+02  0.51100000000E-03 0. -1.
        -11    1    3    3    0    0  0.81146378270E+01 -0.78566716973E+01  0.17582257725E+02  0.20897617668E+02  0.51100000000E-03 0.  1.
         12    1    3    3    0    0  0.63423364871E+00  0.57821432683E+01  0.36652156912E+01  0.68752628430E+01  0.00000000000E+00 0. -1.
</event>
<event>
 7    1  0.2991278E-011  0.5052887E+02  0.7816164E-02  0.1300439E+00
        -11   -1    0    0    0    0  0.00000000000E+00  0.00000000000E+00  0.45593999997E+02  0.45594000000E+02  0.51100000000E-03 0. -1.
         11   -1    0    0    0    0 -0.00000000000E+00 -0.00000000000E+00 -0.45593999997E+02  0.45594000000E+02  0.51100000000E-03 0.  1.
    9900012    2    1    2    0    0 -0.33656123287E+02 -0.21411245697E+02  0.78733175983E+01  0.50528865639E+02  0.30000017595E+02 0.  0.
         12    1    1    2    0    0  0.33656123287E+02  0.21411245697E+02 -0.78733175983E+01  0.40659134361E+02  0.00000000000E+00 0. -1.
         11    1    3    3    0    0 -0.95591545256E+00 -0.10873500392E+02  0.98509088889E+00  0.10959798787E+02  0.51100000000E-03 0. -1.
        -11    1    3    3    0    0 -0.11537597620E+02  0.51121442871E+01  0.28950817941E+01  0.12947265229E+02  0.51100000000E-03 0.  1.
        -12    1    3    3    0    0 -0.21162610214E+02 -0.15649889593E+02  0.39931449154E+01  0.26621801623E+02  0.00000000000E+00 0.  1.
</event>
<event>
 7    1  0.2991278E-011  0.5052890E+02  0.7816164E-02  0.1300439E+00
        -11   -1    0    0    0    0  0.00000000000E+00  0.00000000000E+00  0.45593999997E+02  0.45594000000E+02  0.51100000000E-03 0.  1.
         11   -1    0    0    0    0 -0.00000000000E+00 -0.00000000000E+00 -0.45593999997E+02  0.45594000000E+02  0.51100000000E-03 0. -1.
    9900012    2    1    2    0    0  0.29941246307E+02  0.26291305934E+02  0.80902054489E+01  0.50528899883E+02  0.30000121683E+02 0.  0.
         12    1    1    2    0    0 -0.29941246307E+02 -0.26291305934E+02 -0.80902054489E+01  0.40659100117E+02  0.00000000000E+00 0. -1.
         11    1    3    3    0    0  0.55685939051E+01  0.21774418116E+02  0.82631634275E+01  0.23946072589E+02  0.51100000000E-03 0. -1.
        -11    1    3    3    0    0  0.43148738979E+01  0.45905839454E+01  0.14319417925E+01  0.64608091809E+01  0.51100000000E-03 0.  1.
         12    1    3    3    0    0  0.20057778504E+02 -0.73696127020E-01 -0.16048997711E+01  0.20122018113E+02  0.00000000000E+00 0. -1.
</event>
<event>
 7    1  0.2991278E-011  0.5052885E+02  0.7816164E-02  0.1300439E+00
        -11   -1    0    0    0    0  0.00000000000E+00  0.00000000000E+00  0.45593999997E+02  0.45594000000E+02  0.51100000000E-03 0. -1.
         11   -1    0    0    0    0 -0.00000000000E+00 -0.00000000000E+00 -0.45593999997E+02  0.45594000000E+02  0.51100000000E-03 0.  1.
    9900012    2    1    2    0    0 -0.30032472017E+02  0.24969381407E+02 -0.11302540203E+02  0.50528846070E+02  0.29999958113E+02 0.  0.
         12    1    1    2    0    0  0.30032472017E+02 -0.24969381407E+02  0.11302540203E+02  0.40659153930E+02  0.00000000000E+00 0. -1.
         11    1    3    3    0    0  0.16248084483E+01 -0.11938477141E+01  0.38953846579E+01  0.43862622758E+01  0.51100000000E-03 0. -1.
        -11    1    3    3    0    0 -0.16327366041E+02  0.11869674091E+02 -0.15055821602E+02  0.25182331291E+02  0.51100000000E-03 0.  1.
        -12    1    3    3    0    0 -0.15329914424E+02  0.14293555031E+02 -0.14210325938E+00  0.20960252503E+02  0.00000000000E+00 0.  1.
</event>
<event>
 7    1  0.2991278E-011  0.5052893E+02  0.7816164E-02  0.1300439E+00
        -11   -1    0    0    0    0  0.00000000000E+00  0.00000000000E+00  0.45593999997E+02  0.45594000000E+02  0.51100000000E-03 0.  1.
         11   -1    0    0    0    0 -0.00000000000E+00 -0.00000000000E+00 -0.45593999997E+02  0.45594000000E+02  0.51100000000E-03 0. -1.
    9900012    2    1    2    0    0  0.11297578758E+02  0.37271923321E+02 -0.11675974080E+02  0.50528930599E+02  0.30000215048E+02 0.  0.
         12    1    1    2    0    0 -0.11297578758E+02 -0.37271923321E+02  0.11675974080E+02  0.40659069401E+02  0.00000000000E+00 0. -1.
         11    1    3    3    0    0 -0.77683572128E-01  0.10130777003E+01 -0.37083270450E+01  0.38450033677E+01  0.51100000000E-03 0. -1.
        -11    1    3    3    0    0  0.97198415750E+01  0.40228189404E+02 -0.87807658806E+01  0.42307025335E+02  0.51100000000E-03 0.  1.
        -12    1    3    3    0    0  0.16554207553E+01 -0.39693437840E+01  0.81311884523E+00  0.43769018962E+01  0.00000000000E+00 0.  1.
</event>
<event>
 7    1  0.2991278E-011  0.5052886E+02  0.7816164E-02  0.1300439E+00
        -11   -1    0    0    0    0  0.00000000000E+00  0.00000000000E+00  0.45593999997E+02  0.45594000000E+02  0.51100000000E-03 0.  1.
         11   -1    0    0    0    0 -0.00000000000E+00 -0.00000000000E+00 -0.45593999997E+02  0.45594000000E+02  0.51100000000E-03 0. -1.
    9900012    2    1    2    0    0 -0.35154613662E+01  0.38849220728E+02  0.11469309506E+02  0.50528862277E+02  0.30000007377E+02 0.  0.
         12    1    1    2    0    0  0.35154613662E+01 -0.38849220728E+02 -0.11469309506E+02  0.40659137723E+02  0.00000000000E+00 0. -1.
         11    1    3    3    0    0 -0.29252537580E+01  0.11384036801E+02 -0.99181674633E+01  0.15379318890E+02  0.51100000000E-03 0. -1.
        -11    1    3    3    0    0 -0.21609497097E+01  0.19775778786E+02  0.16939782585E+02  0.26128669398E+02  0.51100000000E-03 0.  1.
        -12    1    3    3    0    0  0.15707421015E+01  0.76894051417E+01  0.44476943851E+01  0.90208739890E+01  0.00000000000E+00 0.  1.
</event>
<event>
 7    1  0.2991278E-011  0.5052885E+02  0.7816164E-02  0.1300439E+00
        -11   -1    0    0    0    0  0.00000000000E+00  0.00000000000E+00  0.45593999997E+02  0.45594000000E+02  0.51100000000E-03 0.  1.
         11   -1    0    0    0    0 -0.00000000000E+00 -0.00000000000E+00 -0.45593999997E+02  0.45594000000E+02  0.51100000000E-03 0. -1.
    9900012    2    1    2    0    0 -0.13265576561E+02 -0.31683318689E+02  0.21756804323E+02  0.50528846799E+02  0.29999960331E+02 0.  0.
         12    1    1    2    0    0  0.13265576561E+02  0.31683318689E+02 -0.21756804323E+02  0.40659153201E+02  0.00000000000E+00 0. -1.
         11    1    3    3    0    0  0.31118083742E+01 -0.13471188531E+01  0.14691365805E+02  0.15077609560E+02  0.51100000000E-03 0. -1.
        -11    1    3    3    0    0 -0.56525928990E+01 -0.14925784941E+02  0.35372403471E+01  0.16347566551E+02  0.51100000000E-03 0.  1.
         12    1    3    3    0    0 -0.10724792036E+02 -0.15410414894E+02  0.35281981712E+01  0.19103670689E+02  0.00000000000E+00 0. -1.
</event>
<event>
 7    1  0.2991278E-011  0.5052891E+02  0.7816164E-02  0.1300439E+00
        -11   -1    0    0    0    0  0.00000000000E+00  0.00000000000E+00  0.45593999997E+02  0.45594000000E+02  0.51100000000E-03 0.  1.
         11   -1    0    0    0    0 -0.00000000000E+00 -0.00000000000E+00 -0.45593999997E+02  0.45594000000E+02  0.51100000000E-03 0. -1.
    9900012    2    1    2    0    0 -0.29875323380E+01 -0.24217644153E+02  0.32522944013E+02  0.50528910917E+02  0.30000155222E+02 0.  0.
         12    1    1    2    0    0  0.29875323380E+01  0.24217644153E+02 -0.32522944013E+02  0.40659089083E+02  0.00000000000E+00 0. -1.
         11    1    3    3    0    0 -0.85524209786E+01 -0.80983407334E+00  0.59133873785E+01  0.10429184358E+02  0.51100000000E-03 0. -1.
        -11    1    3    3    0    0  0.26170540566E+01 -0.24602125370E+02  0.27302208701E+02  0.36844594513E+02  0.51100000000E-03 0.  1.
        -12    1    3    3    0    0  0.29478345840E+01  0.11943152906E+01 -0.69265206590E+00  0.32551320453E+01  0.00000000000E+00 0.  1.
</event>
<event>
 7    1  0.2991278E-011  0.5052887E+02  0.7816164E-02  0.1300439E+00
        -11   -1    0    0    0    0  0.00000000000E+00  0.00000000000E+00  0.45593999997E+02  0.45594000000E+02  0.51100000000E-03 0. -1.
         11   -1    0    0    0    0 -0.00000000000E+00 -0.00000000000E+00 -0.45593999997E+02  0.45594000000E+02  0.51100000000E-03 0.  1.
    9900012    2    1    2    0    0  0.39971140686E+02  0.72199470245E+01  0.18290066641E+01  0.50528868330E+02  0.30000025776E+02 0.  0.
         12    1    1    2    0    0 -0.39971140686E+02 -0.72199470245E+01 -0.18290066641E+01  0.40659131670E+02  0.00000000000E+00 0. -1.
         11    1    3    3    0    0  0.51519847484E+01  0.42182666636E+01 -0.54314161165E+01  0.85928459654E+01  0.51100000000E-03 0. -1.
        -11    1    3    3    0    0  0.30931091636E+02 -0.35724973751E+01 -0.37111507604E+00  0.31138928914E+02  0.51100000000E-03 0.  1.
        -12    1    3    3    0    0  0.38880643016E+01  0.65741777360E+01  0.76315378567E+01  0.10797093450E+02  0.00000000000E+00 0.  1.
</event>
<event>
 7    1  0.2991278E-011  0.5052886E+02  0.7816164E-02  0.1300439E+00
        -11   -1    0    0    0    0  0.00000000000E+00  0.00000000000E+00  0.45593999997E+02  0.45594000000E+02  0.51100000000E-03 0.  1.
         11   -1    0    0    0    0 -0.00000000000E+00 -0.00000000000E+00 -0.45593999997E+02  0.45594000000E+02  0.51100000000E-03 0. -1.
    9900012    2    1    2    0    0 -0.33577288977E+02 -0.16399187330E+02  0.16024916920E+02  0.50528860284E+02  0.30000001320E+02 0.  0.
         12    1    1    2    0    0  0.33577288977E+02  0.16399187330E+02 -0.16024916920E+02  0.40659139716E+02  0.00000000000E+00 0. -1.
         11    1    3    3    0    0  0.10833085569E+01 -0.52915666871E+00 -0.78420653150E+00  0.14382434963E+01  0.51100000000E-03 0. -1.
        -11    1    3    3    0    0 -0.33759242246E+02 -0.88707279087E+01  0.21142668596E+02  0.40809174046E+02  0.51100000000E-03 0.  1.
        -12    1    3    3    0    0 -0.90135528773E+00 -0.69993027521E+01 -0.43335451447E+01  0.82814427422E+01  0.00000000000E+00 0.  1.
</event>
<event>
 7    1  0.2991278E-011  0.5052885E+02  0.7816164E-02  0.1300439E+00
        -11   -1    0    0    0    0  0.00000000000E+00  0.00000000000E+00  0.45593999997E+02  0.45594000000E+02  0.51100000000E-03 0.  1.
         11   -1    0    0    0    0 -0.00000000000E+00 -0.00000000000E+00 -0.45593999997E+02  0.45594000000E+02  0.51100000000E-03 0. -1.
    9900012    2    1    2    0    0 -0.27713831158E+02  0.19745921647E+02  0.22253278821E+02  0.50528852475E+02  0.29999977584E+02 0.  0.
         12    1    1    2    0    0  0.27713831158E+02 -0.19745921647E+02 -0.22253278821E+02  0.40659147525E+02  0.00000000000E+00 0. -1.
         11    1    3    3    0    0 -0.76965500601E+01  0.12203847017E+02  0.18664640354E+01  0.14548348810E+02  0.51100000000E-03 0. -1.
        -11    1    3    3    0    0 -0.23438226419E+02  0.62943676813E+01  0.21228495344E+02  0.32243116118E+02  0.51100000000E-03 0.  1.
        -12    1    3    3    0    0  0.34209453204E+01  0.12477069494E+01 -0.84168055904E+00  0.37373875475E+01  0.00000000000E+00 0.  1.
</event>
<event>
 7    1  0.2991278E-011  0.5052886E+02  0.7816164E-02  0.1300439E+00
        -11   -1    0    0    0    0  0.00000000000E+00  0.00000000000E+00  0.45593999997E+02  0.45594000000E+02  0.51100000000E-03 0. -1.
         11   -1    0    0    0    0 -0.00000000000E+00 -0.00000000000E+00 -0.45593999997E+02  0.45594000000E+02  0.51100000000E-03 0.  1.
    9900012    2    1    2    0    0 -0.37990342863E+02  0.10326384205E+02 -0.10161955052E+02  0.50528859673E+02  0.29999999463E+02 0.  0.
         12    1    1    2    0    0  0.37990342863E+02 -0.10326384205E+02  0.10161955052E+02  0.40659140327E+02  0.00000000000E+00 0. -1.
         11    1    3    3    0    0  0.96714894112E+00  0.68453414753E+01 -0.67737313041E+01  0.96787144306E+01  0.51100000000E-03 0. -1.
        -11    1    3    3    0    0 -0.31262624519E+02  0.23614668000E+01  0.19594785480E+01  0.31412860005E+02  0.51100000000E-03 0.  1.
        -12    1    3    3    0    0 -0.76948672851E+01  0.11195759301E+01 -0.53477022961E+01  0.94372852371E+01  0.00000000000E+00 0.  1.
</event>
<event>
 7    1  0.2991278E-011  0.5052886E+02  0.7816164E-02  0.1300439E+00
        -11   -1    0    0    0    0  0.00000000000E+00  0.00000000000E+00  0.45593999997E+02  0.45594000000E+02  0.51100000000E-03 0. -1.
         11   -1    0    0    0    0 -0.00000000000E+00 -0.00000000000E+00 -0.45593999997E+02  0.45594000000E+02  0.51100000000E-03 0.  1.
    9900012    2    1    2    0    0 -0.38973398740E+02  0.11513163217E+02 -0.12986755401E+01  0.50528864560E+02  0.30000014315E+02 0.  0.
         12    1    1    2    0    0  0.38973398740E+02 -0.11513163217E+02  0.12986755401E+01  0.40659135440E+02  0.00000000000E+00 0. -1.
         11    1    3    3    0    0 -0.33372111428E+02  0.17071574619E+02  0.11893294881E+01  0.37504012933E+02  0.51100000000E-03 0. -1.
        -11    1    3    3    0    0  0.39594565983E+00 -0.32639578345E+01  0.30953846325E+01  0.45157059243E+01  0.51100000000E-03 0.  1.
        -12    1    3    3    0    0 -0.59972329714E+01 -0.22944535674E+01 -0.55833896607E+01  0.85091457026E+01  0.00000000000E+00 0.  1.
</event>
<event>
 7    1  0.2991278E-011  0.5052887E+02  0.7816164E-02  0.1300439E+00
        -11   -1    0    0    0    0  0.00000000000E+00  0.00000000000E+00  0.45593999997E+02  0.45594000000E+02  0.51100000000E-03 0. -1.
         11   -1    0    0    0    0 -0.00000000000E+00 -0.00000000000E+00 -0.45593999997E+02  0.45594000000E+02  0.51100000000E-03 0.  1.
    9900012    2    1    2    0    0 -0.39481125509E+02 -0.69100433945E+01  0.68306026719E+01  0.50528866905E+02  0.30000021444E+02 0.  0.
         12    1    1    2    0    0  0.39481125509E+02  0.69100433945E+01 -0.68306026719E+01  0.40659133095E+02  0.00000000000E+00 0. -1.
         11    1    3    3    0    0 -0.17947507920E+02 -0.12948857626E+02  0.34171734377E+00  0.22133746302E+02  0.51100000000E-03 0.  1.
        -11    1    3    3    0    0 -0.33802584048E+01  0.48663027717E+01 -0.42306544096E+01  0.72804866969E+01  0.51100000000E-03 0. -1.
        -12    1    3    3    0    0 -0.18153359184E+02  0.11725114596E+01  0.10719539738E+02  0.21114633906E+02  0.00000000000E+00 0.  1.
</event>
<event>
 7    1  0.2991278E-011  0.5052885E+02  0.7816164E-02  0.1300439E+00
        -11   -1    0    0    0    0  0.00000000000E+00  0.00000000000E+00  0.45593999997E+02  0.45594000000E+02  0.51100000000E-03 0.  1.
         11   -1    0    0    0    0 -0.00000000000E+00 -0.00000000000E+00 -0.45593999997E+02  0.45594000000E+02  0.51100000000E-03 0. -1.
    9900012    2    1    2    0    0  0.16839138765E+02 -0.12958105019E+02  0.34665501484E+02  0.50528854988E+02  0.29999985220E+02 0.  0.
         12    1    1    2    0    0 -0.16839138765E+02  0.12958105019E+02 -0.34665501484E+02  0.40659145012E+02  0.00000000000E+00 0. -1.
         11    1    3    3    0    0 -0.50181980213E+01 -0.11728322712E+02  0.15160802625E+02  0.19813778072E+02  0.51100000000E-03 0.  1.
        -11    1    3    3    0    0  0.10437789984E+02  0.39540865557E+01  0.84888627559E+01  0.14022947315E+02  0.51100000000E-03 0. -1.
        -12    1    3    3    0    0  0.11419546802E+02 -0.51838688625E+01  0.11015836103E+02  0.16692129601E+02  0.00000000000E+00 0.  1.
</event>
<event>
 7    1  0.2991278E-011  0.5052885E+02  0.7816164E-02  0.1300439E+00
        -11   -1    0    0    0    0  0.00000000000E+00  0.00000000000E+00  0.45593999997E+02  0.45594000000E+02  0.51100000000E-03 0.  1.
         11   -1    0    0    0    0 -0.00000000000E+00 -0.00000000000E+00 -0.45593999997E+02  0.45594000000E+02  0.51100000000E-03 0. -1.
    9900012    2    1    2    0    0  0.37381833371E+02  0.11167519003E+02 -0.11447763274E+02  0.50528853048E+02  0.29999979325E+02 0.  0.
         12    1    1    2    0    0 -0.37381833371E+02 -0.11167519003E+02  0.11447763274E+02  0.40659146952E+02  0.00000000000E+00 0. -1.
         11    1    3    3    0    0  0.46437368204E+01 -0.43792448788E+01  0.12555464967E+01  0.65052651469E+01  0.51100000000E-03 0. -1.
        -11    1    3    3    0    0  0.22784526391E+02  0.18177252977E+02 -0.20661452404E+01  0.29220132188E+02  0.51100000000E-03 0.  1.
        -12    1    3    3    0    0  0.99535701596E+01 -0.26304890959E+01 -0.10637164530E+02  0.14803455713E+02  0.00000000000E+00 0.  1.
</event>
<event>
 7    1  0.2991278E-011  0.5052891E+02  0.7816164E-02  0.1300439E+00
        -11   -1    0    0    0    0  0.00000000000E+00  0.00000000000E+00  0.45593999997E+02  0.45594000000E+02  0.51100000000E-03 0. -1.
         11   -1    0    0    0    0 -0.00000000000E+00 -0.00000000000E+00 -0.45593999997E+02  0.45594000000E+02  0.51100000000E-03 0.  1.
    9900012    2    1    2    0    0 -0.34871404255E+01  0.30628400148E+02 -0.26512310914E+02  0.50528909086E+02  0.30000149657E+02 0.  0.
         12    1    1    2    0    0  0.34871404255E+01 -0.30628400148E+02  0.26512310914E+02  0.40659090914E+02  0.00000000000E+00 0. -1.
         11    1    3    3    0    0 -0.31262178579E+01 -0.46774197454E+01 -0.57206856465E+01  0.80235738980E+01  0.51100000000E-03 0. -1.
        -11    1    3    3    0    0 -0.52691822415E+01  0.15314912723E+02 -0.11820165936E+02  0.20050614859E+02  0.51100000000E-03 0.  1.
         12    1    3    3    0    0  0.49082596738E+01  0.19990907170E+02 -0.89714593313E+01  0.22454720329E+02  0.00000000000E+00 0. -1.
</event>
<event>
 7    1  0.2991278E-011  0.5052886E+02  0.7816164E-02  0.1300439E+00
        -11   -1    0    0    0    0  0.00000000000E+00  0.00000000000E+00  0.45593999997E+02  0.45594000000E+02  0.51100000000E-03 0.  1.
         11   -1    0    0    0    0 -0.00000000000E+00 -0.00000000000E+00 -0.45593999997E+02  0.45594000000E+02  0.51100000000E-03 0. -1.
    9900012    2    1    2    0    0  0.18006501776E+02  0.20303406883E+02  0.30277109084E+02  0.50528858694E+02  0.29999996485E+02 0.  0.
         12    1    1    2    0    0 -0.18006501776E+02 -0.20303406883E+02 -0.30277109084E+02  0.40659141306E+02  0.00000000000E+00 0. -1.
         11    1    3    3    0    0 -0.38848845920E+01  0.45036376186E+01  0.41875979737E+01  0.72739987038E+01  0.51100000000E-03 0. -1.
        -11    1    3    3    0    0  0.21667597267E+02  0.13819038500E+02  0.10866961608E+02  0.27902355657E+02  0.51100000000E-03 0.  1.
        -12    1    3    3    0    0  0.22378910144E+00  0.19807307651E+01  0.15222549503E+02  0.15352504333E+02  0.00000000000E+00 0.  1.
</event>
<event>
 7    1  0.2991278E-011  0.5052886E+02  0.7816164E-02  0.1300439E+00
        -11   -1    0    0    0    0  0.00000000000E+00  0.00000000000E+00  0.45593999997E+02  0.45594000000E+02  0.51100000000E-03 0.  1.
         11   -1    0    0    0    0 -0.00000000000E+00 -0.00000000000E+00 -0.45593999997E+02  0.45594000000E+02  0.51100000000E-03 0. -1.
    9900012    2    1    2    0    0 -0.12834466066E+02 -0.85662679822E+01  0.37617294364E+02  0.50528864475E+02  0.30000014060E+02 0.  0.
         12    1    1    2    0    0  0.12834466066E+02  0.85662679822E+01 -0.37617294364E+02  0.40659135525E+02  0.00000000000E+00 0. -1.
         11    1    3    3    0    0 -0.10132990287E+02 -0.49893055629E+01  0.31898206431E+02  0.33838827343E+02  0.51100000000E-03 0.  1.
        -11    1    3    3    0    0  0.33621245055E+01 -0.69665094380E+00 -0.37489577003E+01  0.50836884079E+01  0.51100000000E-03 0. -1.
         12    1    3    3    0    0 -0.60636002849E+01 -0.28803114755E+01  0.94680456331E+01  0.11606348725E+02  0.00000000000E+00 0. -1.
</event>
<event>
 7    1  0.2991278E-011  0.5052886E+02  0.7816164E-02  0.1300439E+00
        -11   -1    0    0    0    0  0.00000000000E+00  0.00000000000E+00  0.45593999997E+02  0.45594000000E+02  0.51100000000E-03 0. -1.
         11   -1    0    0    0    0 -0.00000000000E+00 -0.00000000000E+00 -0.45593999997E+02  0.45594000000E+02  0.51100000000E-03 0.  1.
    9900012    2    1    2    0    0 -0.24681424124E+02 -0.14829771274E+02 -0.28706629801E+02  0.50528863175E+02  0.30000010107E+02 0.  0.
         12    1    1    2    0    0  0.24681424124E+02  0.14829771274E+02  0.28706629801E+02  0.40659136825E+02  0.00000000000E+00 0. -1.
         11    1    3    3    0    0  0.45591822269E+01  0.20277926983E+01 -0.68095596742E+01  0.84420488641E+01  0.51100000000E-03 0. -1.
        -11    1    3    3    0    0 -0.11957863539E+02 -0.49978124906E+01 -0.15430974844E+02  0.20151516444E+02  0.51100000000E-03 0.  1.
         12    1    3    3    0    0 -0.17282742812E+02 -0.11859751482E+02 -0.64660952830E+01  0.21935297867E+02  0.00000000000E+00 0. -1.
</event>
<event>
 7    1  0.2991278E-011  0.5052884E+02  0.7816164E-02  0.1300439E+00
        -11   -1    0    0    0    0  0.00000000000E+00  0.00000000000E+00  0.45593999997E+02  0.45594000000E+02  0.51100000000E-03 0.  1.
         11   -1    0    0    0    0 -0.00000000000E+00 -0.00000000000E+00 -0.45593999997E+02  0.45594000000E+02  0.51100000000E-03 0. -1.
    9900012    2    1    2    0    0 -0.37825812602E+02  0.89141137462E+01  0.11954666481E+02  0.50528836537E+02  0.29999929137E+02 0.  0.
         12    1    1    2    0    0  0.37825812602E+02 -0.89141137462E+01 -0.11954666481E+02  0.40659163463E+02  0.00000000000E+00 0. -1.
         11    1    3    3    0    0 -0.26484570996E+02  0.14148178691E+02  0.28361322292E+01  0.30160356553E+02  0.51100000000E-03 0. -1.
        -11    1    3    3    0    0  0.26201493111E+01 -0.12093360871E+01  0.40642787512E+01  0.49845800438E+01  0.51100000000E-03 0.  1.
         12    1    3    3    0    0 -0.13961390917E+02 -0.40247288572E+01  0.50542555005E+01  0.15383899940E+02  0.00000000000E+00 0. -1.
</event>
<event>
 7    1  0.2991278E-011  0.5052890E+02  0.7816164E-02  0.1300439E+00
        -11   -1    0    0    0    0  0.00000000000E+00  0.00000000000E+00  0.45593999997E+02  0.45594000000E+02  0.51100000000E-03 0.  1.
         11   -1    0    0    0    0 -0.00000000000E+00 -0.00000000000E+00 -0.45593999997E+02  0.45594000000E+02  0.51100000000E-03 0. -1.
    9900012    2    1    2    0    0  0.36913567048E+01 -0.73258693439E+01  0.39822955967E+02  0.50528901413E+02  0.30000126334E+02 0.  0.
         12    1    1    2    0    0 -0.36913567048E+01  0.73258693439E+01 -0.39822955967E+02  0.40659098587E+02  0.00000000000E+00 0. -1.
         11    1    3    3    0    0 -0.60190360326E+01 -0.10127954241E+02  0.32889249390E+01  0.12231977738E+02  0.51100000000E-03 0. -1.
        -11    1    3    3    0    0  0.85351444399E+01  0.32300375077E+00  0.30404007623E+02  0.31580954733E+02  0.51100000000E-03 0.  1.
        -12    1    3    3    0    0  0.11752482975E+01  0.24790811459E+01  0.61300234047E+01  0.67159689420E+01  0.00000000000E+00 0.  1.
</event>
<event>
 7    1  0.2991278E-011  0.5052885E+02  0.7816164E-02  0.1300439E+00
        -11   -1    0    0    0    0  0.00000000000E+00  0.00000000000E+00  0.45593999997E+02  0.45594000000E+02  0.51100000000E-03 0.  1.
         11   -1    0    0    0    0 -0.00000000000E+00 -0.00000000000E+00 -0.45593999997E+02  0.45594000000E+02  0.51100000000E-03 0. -1.
    9900012    2    1    2    0    0 -0.32197071320E+01  0.37502151176E+02 -0.15374933759E+02  0.50528850415E+02  0.29999971322E+02 0.  0.
         12    1    1    2    0    0  0.32197071320E+01 -0.37502151176E+02  0.15374933759E+02  0.40659149585E+02  0.00000000000E+00 0. -1.
         11    1    3    3    0    0 -0.71697983947E+01  0.36047136247E+01  0.49202502784E+01  0.94132264607E+01  0.51100000000E-03 0. -1.
        -11    1    3    3    0    0  0.23280206340E+01  0.93554232705E+01 -0.69540323646E+00  0.96657752180E+01  0.51100000000E-03 0.  1.
         12    1    3    3    0    0  0.16220706287E+01  0.24542014281E+02 -0.19599780801E+02  0.31449848736E+02  0.00000000000E+00 0. -1.
</event>
<event>
 7    1  0.2991278E-011  0.5052886E+02  0.7816164E-02  0.1300439E+00
        -11   -1    0    0    0    0  0.00000000000E+00  0.00000000000E+00  0.45593999997E+02  0.45594000000E+02  0.51100000000E-03 0.  1.
         11   -1    0    0    0    0 -0.00000000000E+00 -0.00000000000E+00 -0.45593999997E+02  0.45594000000E+02  0.51100000000E-03 0. -1.
    9900012    2    1    2    0    0 -0.39391055110E+02  0.19444320407E+01  0.98858404474E+01  0.50528857362E+02  0.29999992439E+02 0.  0.
         12    1    1    2    0    0  0.39391055110E+02 -0.19444320407E+01 -0.98858404474E+01  0.40659142638E+02  0.00000000000E+00 0. -1.
         11    1    3    3    0    0 -0.79052689962E+01  0.20262564778E+01  0.10287928184E+02  0.13131658684E+02  0.51100000000E-03 0. -1.
        -11    1    3    3    0    0 -0.32442378183E+02 -0.45952498722E+01 -0.70260998416E+00  0.32773737727E+02  0.51100000000E-03 0.  1.
         12    1    3    3    0    0  0.95659206924E+00  0.45134254350E+01  0.30052224789E+00  0.46234609511E+01  0.00000000000E+00 0. -1.
</event>
<event>
 7    1  0.2991278E-011  0.5052886E+02  0.7816164E-02  0.1300439E+00
        -11   -1    0    0    0    0  0.00000000000E+00  0.00000000000E+00  0.45593999997E+02  0.45594000000E+02  0.51100000000E-03 0.  1.
         11   -1    0    0    0    0 -0.00000000000E+00 -0.00000000000E+00 -0.45593999997E+02  0.45594000000E+02  0.51100000000E-03 0. -1.
    9900012    2    1    2    0    0  0.39147533983E+02 -0.20914453869E+01 -0.10782491874E+02  0.50528859677E+02  0.29999999475E+02 0.  0.
         12    1    1    2    0    0 -0.39147533983E+02  0.20914453869E+01  0.10782491874E+02  0.40659140323E+02  0.00000000000E+00 0. -1.
         11    1    3    3    0    0  0.21272248364E+01  0.50041460963E+01  0.22471049652E+01  0.58835401455E+01  0.51100000000E-03 0.  1.
        -11    1    3    3    0    0  0.24921635233E+02 -0.85116686013E+01  0.63075415163E+00  0.26342631913E+02  0.51100000000E-03 0. -1.
         12    1    3    3    0    0  0.12098673914E+02  0.14160771181E+01 -0.13660350991E+02  0.18302687619E+02  0.00000000000E+00 0. -1.
</event>
<event>
 7    1  0.2991278E-011  0.5052886E+02  0.7816164E-02  0.1300439E+00
        -11   -1    0    0    0    0  0.00000000000E+00  0.00000000000E+00  0.45593999997E+02  0.45594000000E+02  0.51100000000E-03 0. -1.
         11   -1    0    0    0    0 -0.00000000000E+00 -0.00000000000E+00 -0.45593999997E+02  0.45594000000E+02  0.51100000000E-03 0.  1.
    9900012    2    1    2    0    0  0.39941359843E+02  0.34567092631E+01  0.67752916862E+01  0.50528860284E+02  0.30000001318E+02 0.  0.
         12    1    1    2    0    0 -0.39941359843E+02 -0.34567092631E+01 -0.67752916862E+01  0.40659139716E+02  0.00000000000E+00 0. -1.
         11    1    3    3    0    0  0.27673951224E+02  0.14764761581E+02  0.45574187929E+01  0.31695675213E+02  0.51100000000E-03 0.  1.
        -11    1    3    3    0    0  0.48911697584E+01 -0.61343656757E+01  0.51189101295E+01  0.93678826329E+01  0.51100000000E-03 0. -1.
         12    1    3    3    0    0  0.73762388606E+01 -0.51736866417E+01 -0.29010372361E+01  0.94653024379E+01  0.00000000000E+00 0. -1.
</event>
<event>
 7    1  0.2991278E-011  0.5052888E+02  0.7816164E-02  0.1300439E+00
        -11   -1    0    0    0    0  0.00000000000E+00  0.00000000000E+00  0.45593999997E+02  0.45594000000E+02  0.51100000000E-03 0.  1.
         11   -1    0    0    0    0 -0.00000000000E+00 -0.00000000000E+00 -0.45593999997E+02  0.45594000000E+02  0.51100000000E-03 0. -1.
    9900012    2    1    2    0    0  0.31203763062E+02  0.17910082815E+02  0.18939862679E+02  0.50528876867E+02  0.30000051724E+02 0.  0.
         12    1    1    2    0    0 -0.31203763062E+02 -0.17910082815E+02 -0.18939862679E+02  0.40659123133E+02  0.00000000000E+00 0. -1.
         11    1    3    3    0    0  0.23291421394E+02  0.69444009907E+01  0.18603956775E+02  0.30607551742E+02  0.51100000000E-03 0. -1.
        -11    1    3    3    0    0  0.41090536124E+01  0.12385385152E+02  0.47846235235E+01  0.13898730499E+02  0.51100000000E-03 0.  1.
         12    1    3    3    0    0  0.38032880558E+01 -0.14197033276E+01 -0.44487176195E+01  0.60225946262E+01  0.00000000000E+00 0. -1.
</event>
<event>
 7    1  0.2991278E-011  0.5052886E+02  0.7816164E-02  0.1300439E+00
        -11   -1    0    0    0    0  0.00000000000E+00  0.00000000000E+00  0.45593999997E+02  0.45594000000E+02  0.51100000000E-03 0.  1.
         11   -1    0    0    0    0 -0.00000000000E+00 -0.00000000000E+00 -0.45593999997E+02  0.45594000000E+02  0.51100000000E-03 0. -1.
    9900012    2    1    2    0    0 -0.25752598548E+02 -0.30507694755E+02 -0.76974143488E+01  0.50528856392E+02  0.29999989490E+02 0.  0.
         12    1    1    2    0    0  0.25752598548E+02  0.30507694755E+02  0.76974143488E+01  0.40659143608E+02  0.00000000000E+00 0. -1.
         11    1    3    3    0    0  0.50316885881E+01 -0.80082491094E+01 -0.48451215081E+01  0.10626624419E+02  0.51100000000E-03 0. -1.
        -11    1    3    3    0    0 -0.15674666665E+02 -0.59465437043E+01 -0.47086780382E+01  0.17413449004E+02  0.51100000000E-03 0.  1.
         12    1    3    3    0    0 -0.15109620472E+02 -0.16552901941E+02  0.18563851975E+01  0.22488782970E+02  0.00000000000E+00 0. -1.
</event>
<event>
 7    1  0.2991278E-011  0.5052886E+02  0.7816164E-02  0.1300439E+00
        -11   -1    0    0    0    0  0.00000000000E+00  0.00000000000E+00  0.45593999997E+02  0.45594000000E+02  0.51100000000E-03 0. -1.
         11   -1    0    0    0    0 -0.00000000000E+00 -0.00000000000E+00 -0.45593999997E+02  0.45594000000E+02  0.51100000000E-03 0.  1.
    9900012    2    1    2    0    0 -0.27184548235E+02  0.27496310563E+02 -0.12574536570E+02  0.50528859241E+02  0.29999998150E+02 0.  0.
         12    1    1    2    0    0  0.27184548235E+02 -0.27496310563E+02  0.12574536570E+02  0.40659140759E+02  0.00000000000E+00 0. -1.
         11    1    3    3    0    0 -0.13221815434E+02  0.25084822293E+02 -0.12010589674E+02  0.30794788154E+02  0.51100000000E-03 0. -1.
        -11    1    3    3    0    0 -0.93679466175E-01 -0.31265087809E+01  0.30503895604E+01  0.43690627978E+01  0.51100000000E-03 0.  1.
        -12    1    3    3    0    0 -0.13869053334E+02  0.55379970504E+01 -0.36143364558E+01  0.15365008289E+02  0.00000000000E+00 0.  1.
</event>
<event>
 7    1  0.2991278E-011  0.5052886E+02  0.7816164E-02  0.1300439E+00
        -11   -1    0    0    0    0  0.00000000000E+00  0.00000000000E+00  0.45593999997E+02  0.45594000000E+02  0.51100000000E-03 0.  1.
         11   -1    0    0    0    0 -0.00000000000E+00 -0.00000000000E+00 -0.45593999997E+02  0.45594000000E+02  0.51100000000E-03 0. -1.
    9900012    2    1    2    0    0 -0.20610662798E+02  0.26486043979E+02  0.22953332370E+02  0.50528863099E+02  0.30000009877E+02 0.  0.
         12    1    1    2    0    0  0.20610662798E+02 -0.26486043979E+02 -0.22953332370E+02  0.40659136901E+02  0.00000000000E+00 0. -1.
         11    1    3    3    0    0 -0.12265454851E+01  0.10914716299E+02  0.17385666965E+01  0.11120164574E+02  0.51100000000E-03 0. -1.
        -11    1    3    3    0    0 -0.17143129709E+02  0.13058977499E+02  0.25865890920E+02  0.33667018028E+02  0.51100000000E-03 0.  1.
        -12    1    3    3    0    0 -0.22409876033E+01  0.25123501806E+01 -0.46511252472E+01  0.57416804973E+01  0.00000000000E+00 0.  1.
</event>
<event>
 7    1  0.2991278E-011  0.5052884E+02  0.7816164E-02  0.1300439E+00
        -11   -1    0    0    0    0  0.00000000000E+00  0.00000000000E+00  0.45593999997E+02  0.45594000000E+02  0.51100000000E-03 0.  1.
         11   -1    0    0    0    0 -0.00000000000E+00 -0.00000000000E+00 -0.45593999997E+02  0.45594000000E+02  0.51100000000E-03 0. -1.
    9900012    2    1    2    0    0 -0.19690577148E+02  0.14637407639E+02  0.32422134971E+02  0.50528839078E+02  0.29999936862E+02 0.  0.
         12    1    1    2    0    0  0.19690577148E+02 -0.14637407639E+02 -0.32422134971E+02  0.40659160922E+02  0.00000000000E+00 0. -1.
         11    1    3    3    0    0  0.22546998116E+01 -0.51093271397E+01  0.24859248347E+00  0.55902319759E+01  0.51100000000E-03 0. -1.
        -11    1    3    3    0    0 -0.60333515291E+01  0.54975391346E+01  0.28189722916E+01  0.86354427942E+01  0.51100000000E-03 0.  1.
         12    1    3    3    0    0 -0.15911925431E+02  0.14249195644E+02  0.29354570195E+02  0.36303164308E+02  0.00000000000E+00 0. -1.
</event>
<event>
 7    1  0.2991278E-011  0.5052886E+02  0.7816164E-02  0.1300439E+00
        -11   -1    0    0    0    0  0.00000000000E+00  0.00000000000E+00  0.45593999997E+02  0.45594000000E+02  0.51100000000E-03 0. -1.
         11   -1    0    0    0    0 -0.00000000000E+00 -0.00000000000E+00 -0.45593999997E+02  0.45594000000E+02  0.51100000000E-03 0.  1.
    9900012    2    1    2    0    0  0.30678833248E+02 -0.22629472826E+00 -0.26681894548E+02  0.50528861846E+02  0.30000006066E+02 0.  0.
         12    1    1    2    0    0 -0.30678833248E+02  0.22629472826E+00  0.26681894548E+02  0.40659138154E+02  0.00000000000E+00 0. -1.
         11    1    3    3    0    0  0.12829731100E+01  0.67229207150E+01  0.28051531918E+01  0.73967944160E+01  0.51100000000E-03 0. -1.
        -11    1    3    3    0    0  0.14623462148E+02 -0.16376676310E+01 -0.87384104520E+01  0.17113953896E+02  0.51100000000E-03 0.  1.
         12    1    3    3    0    0  0.14772397990E+02 -0.53115478123E+01 -0.20748637288E+02  0.26018113533E+02  0.00000000000E+00 0. -1.
</event>
<event>
 7    1  0.2991278E-011  0.5052886E+02  0.7816164E-02  0.1300439E+00
        -11   -1    0    0    0    0  0.00000000000E+00  0.00000000000E+00  0.45593999997E+02  0.45594000000E+02  0.51100000000E-03 0.  1.
         11   -1    0    0    0    0 -0.00000000000E+00 -0.00000000000E+00 -0.45593999997E+02  0.45594000000E+02  0.51100000000E-03 0. -1.
    9900012    2    1    2    0    0  0.58814196830E+00 -0.11846229992E+02  0.38890698862E+02  0.50528861618E+02  0.30000005373E+02 0.  0.
         12    1    1    2    0    0 -0.58814196830E+00  0.11846229992E+02 -0.38890698862E+02  0.40659138382E+02  0.00000000000E+00 0. -1.
         11    1    3    3    0    0  0.53891705558E+01 -0.20926872529E+01 -0.25401298040E-02  0.57812201075E+01  0.51100000000E-03 0. -1.
        -11    1    3    3    0    0 -0.10488959241E+02  0.15058029363E+00  0.21760450887E+02  0.24156948554E+02  0.51100000000E-03 0.  1.
        -12    1    3    3    0    0  0.56879306531E+01 -0.99041230324E+01  0.17132788106E+02  0.20590692957E+02  0.00000000000E+00 0.  1.
</event>
<event>
 7    1  0.2991278E-011  0.5052886E+02  0.7816164E-02  0.1300439E+00
        -11   -1    0    0    0    0  0.00000000000E+00  0.00000000000E+00  0.45593999997E+02  0.45594000000E+02  0.51100000000E-03 0.  1.
         11   -1    0    0    0    0 -0.00000000000E+00 -0.00000000000E+00 -0.45593999997E+02  0.45594000000E+02  0.51100000000E-03 0. -1.
    9900012    2    1    2    0    0 -0.35618289589E+02  0.54667288093E+01  0.18831295778E+02  0.50528863538E+02  0.30000011212E+02 0.  0.
         12    1    1    2    0    0  0.35618289589E+02 -0.54667288093E+01 -0.18831295778E+02  0.40659136462E+02  0.00000000000E+00 0. -1.
         11    1    3    3    0    0 -0.56648803935E+00 -0.77633722650E+01  0.22960293866E+01  0.81155781574E+01  0.51100000000E-03 0. -1.
        -11    1    3    3    0    0 -0.30712147083E+02  0.72631440049E+01  0.14674136599E+02  0.34804015924E+02  0.51100000000E-03 0.  1.
        -12    1    3    3    0    0 -0.43396544667E+01  0.59669570695E+01  0.18611297922E+01  0.76092694566E+01  0.00000000000E+00 0.  1.
</event>
<event>
 7    1  0.2991278E-011  0.5052886E+02  0.7816164E-02  0.1300439E+00
        -11   -1    0    0    0    0  0.00000000000E+00  0.00000000000E+00  0.45593999997E+02  0.45594000000E+02  0.51100000000E-03 0. -1.
         11   -1    0    0    0    0 -0.00000000000E+00 -0.00000000000E+00 -0.45593999997E+02  0.45594000000E+02  0.51100000000E-03 0.  1.
    9900012    2    1    2    0    0  0.19128528624E+01 -0.15344511062E+02 -0.37603890816E+02  0.50528860433E+02  0.30000001772E+02 0.  0.
         12    1    1    2    0    0 -0.19128528624E+01  0.15344511062E+02  0.37603890816E+02  0.40659139567E+02  0.00000000000E+00 0. -1.
         11    1    3    3    0    0  0.87860894665E+01  0.46760159925E+01 -0.10798673569E+02  0.14685770146E+02  0.51100000000E-03 0. -1.
        -11    1    3    3    0    0 -0.19555679915E+01 -0.13303447961E+02 -0.23105199431E+02  0.26733054723E+02  0.51100000000E-03 0.  1.
         12    1    3    3    0    0 -0.49176686125E+01 -0.67170790935E+01 -0.37000178167E+01  0.91100355638E+01  0.00000000000E+00 0. -1.
</event>
<event>
 7    1  0.2991278E-011  0.5052885E+02  0.7816164E-02  0.1300439E+00
        -11   -1    0    0    0    0  0.00000000000E+00  0.00000000000E+00  0.45593999997E+02  0.45594000000E+02  0.51100000000E-03 0.  1.
         11   -1    0    0    0    0 -0.00000000000E+00 -0.00000000000E+00 -0.45593999997E+02  0.45594000000E+02  0.51100000000E-03 0. -1.
    9900012    2    1    2    0    0  0.56872887155E+01 -0.10926967222E+01  0.40244595733E+02  0.50528846975E+02  0.29999960864E+02 0.  0.
         12    1    1    2    0    0 -0.56872887155E+01  0.10926967222E+01 -0.40244595733E+02  0.40659153025E+02  0.00000000000E+00 0. -1.
         11    1    3    3    0    0 -0.22998584387E+01  0.49405365414E+01  0.75952689466E+01  0.93480672220E+01  0.51100000000E-03 0. -1.
        -11    1    3    3    0    0  0.13397764154E+02 -0.10249900872E+02  0.16329607676E+02  0.23478003307E+02  0.51100000000E-03 0.  1.
        -12    1    3    3    0    0 -0.54106169993E+01  0.42166676080E+01  0.16319719110E+02  0.17702776445E+02  0.00000000000E+00 0.  1.
</event>
<event>
 7    1  0.3823724E-011  0.5052893E+02  0.7816164E-02  0.1300439E+00
        -11   -1    0    0    0    0  0.00000000000E+00  0.00000000000E+00  0.45593999997E+02  0.45594000000E+02  0.51100000000E-03 0. -1.
         11   -1    0    0    0    0 -0.00000000000E+00 -0.00000000000E+00 -0.45593999997E+02  0.45594000000E+02  0.51100000000E-03 0.  1.
    9900012    2    1    2    0    0  0.18364930980E+02  0.21484590323E+02 -0.29228443308E+02  0.50528927096E+02  0.30000204399E+02 0.  0.
         12    1    1    2    0    0 -0.18364930980E+02 -0.21484590323E+02  0.29228443308E+02  0.40659072904E+02  0.00000000000E+00 0. -1.
         11    1    3    3    0    0 -0.42284172086E+01  0.44700632851E+01 -0.77226369225E+01  0.98742138503E+01  0.51100000000E-03 0.  1.
        -11    1    3    3    0    0  0.16258313159E+02  0.51168547446E+00 -0.13956633415E+02  0.21433202872E+02  0.51100000000E-03 0. -1.
        -12    1    3    3    0    0  0.63350350293E+01  0.16502841564E+02 -0.75491729706E+01  0.19221510374E+02  0.00000000000E+00 0.  1.
</event>
<event>
 7    1  0.2991278E-011  0.5052886E+02  0.7816164E-02  0.1300439E+00
        -11   -1    0    0    0    0  0.00000000000E+00  0.00000000000E+00  0.45593999997E+02  0.45594000000E+02  0.51100000000E-03 0.  1.
         11   -1    0    0    0    0 -0.00000000000E+00 -0.00000000000E+00 -0.45593999997E+02  0.45594000000E+02  0.51100000000E-03 0. -1.
    9900012    2    1    2    0    0  0.27401942233E+02  0.17221141543E+02  0.24611615141E+02  0.50528858912E+02  0.29999997148E+02 0.  0.
         12    1    1    2    0    0 -0.27401942233E+02 -0.17221141543E+02 -0.24611615141E+02  0.40659141088E+02  0.00000000000E+00 0. -1.
         11    1    3    3    0    0 -0.52795450822E+01  0.66515012440E+01  0.48960889581E+01  0.98024360452E+01  0.51100000000E-03 0. -1.
        -11    1    3    3    0    0  0.22763134608E+01  0.36892662458E+01  0.35912057174E+01  0.56293025474E+01  0.51100000000E-03 0.  1.
         12    1    3    3    0    0  0.30405173854E+02  0.68803740536E+01  0.16124320466E+02  0.35097120319E+02  0.00000000000E+00 0. -1.
</event>
<event>
 7    1  0.2991278E-011  0.5052887E+02  0.7816164E-02  0.1300439E+00
        -11   -1    0    0    0    0  0.00000000000E+00  0.00000000000E+00  0.45593999997E+02  0.45594000000E+02  0.51100000000E-03 0.  1.
         11   -1    0    0    0    0 -0.00000000000E+00 -0.00000000000E+00 -0.45593999997E+02  0.45594000000E+02  0.51100000000E-03 0. -1.
    9900012    2    1    2    0    0  0.14411339251E+02 -0.65997962697E+01  0.37442236018E+02  0.50528867596E+02  0.30000023545E+02 0.  0.
         12    1    1    2    0    0 -0.14411339251E+02  0.65997962697E+01 -0.37442236018E+02  0.40659132404E+02  0.00000000000E+00 0. -1.
         11    1    3    3    0    0 -0.88651001108E+00  0.15930824139E+01 -0.35453172807E+01  0.39866134073E+01  0.51100000000E-03 0. -1.
        -11    1    3    3    0    0  0.86609899455E+01 -0.11545414942E+02  0.29769522559E+02  0.33083739611E+02  0.51100000000E-03 0.  1.
        -12    1    3    3    0    0  0.66368593164E+01  0.33525362586E+01  0.11218030740E+02  0.13458514577E+02  0.00000000000E+00 0.  1.
</event>
<event>
 7    1  0.2991278E-011  0.5052886E+02  0.7816164E-02  0.1300439E+00
        -11   -1    0    0    0    0  0.00000000000E+00  0.00000000000E+00  0.45593999997E+02  0.45594000000E+02  0.51100000000E-03 0.  1.
         11   -1    0    0    0    0 -0.00000000000E+00 -0.00000000000E+00 -0.45593999997E+02  0.45594000000E+02  0.51100000000E-03 0. -1.
    9900012    2    1    2    0    0  0.52687299578E+01 -0.24994668936E+02  0.31633407132E+02  0.50528862806E+02  0.30000008984E+02 0.  0.
         12    1    1    2    0    0 -0.52687299578E+01  0.24994668936E+02 -0.31633407132E+02  0.40659137194E+02  0.00000000000E+00 0. -1.
         11    1    3    3    0    0 -0.74555860237E+01 -0.23012516926E+01 -0.11028134965E+01  0.78802106684E+01  0.51100000000E-03 0. -1.
        -11    1    3    3    0    0 -0.60456918331E+00 -0.11065030886E+01  0.45711147756E+01  0.47418291339E+01  0.51100000000E-03 0.  1.
         12    1    3    3    0    0  0.13328885165E+02 -0.21586914155E+02  0.28165105853E+02  0.37906823003E+02  0.00000000000E+00 0. -1.
</event>
<event>
 7    1  0.2991278E-011  0.5052886E+02  0.7816164E-02  0.1300439E+00
        -11   -1    0    0    0    0  0.00000000000E+00  0.00000000000E+00  0.45593999997E+02  0.45594000000E+02  0.51100000000E-03 0.  1.
         11   -1    0    0    0    0 -0.00000000000E+00 -0.00000000000E+00 -0.45593999997E+02  0.45594000000E+02  0.51100000000E-03 0. -1.
    9900012    2    1    2    0    0  0.14293032989E+02  0.10036303913E+02  0.36717124643E+02  0.50528862893E+02  0.30000009249E+02 0.  0.
         12    1    1    2    0    0 -0.14293032989E+02 -0.10036303913E+02 -0.36717124643E+02  0.40659137107E+02  0.00000000000E+00 0. -1.
         11    1    3    3    0    0 -0.20860749831E+01  0.17469101669E+01 -0.23242840384E+00  0.27308290299E+01  0.51100000000E-03 0. -1.
        -11    1    3    3    0    0  0.18924431308E+02  0.13436698406E+02  0.34441707272E+02  0.41532037808E+02  0.51100000000E-03 0.  1.
        -12    1    3    3    0    0 -0.25453233351E+01 -0.51473046596E+01  0.25078457740E+01  0.62659960553E+01  0.00000000000E+00 0.  1.
</event>
<event>
 7    1  0.2991278E-011  0.5052886E+02  0.7816164E-02  0.1300439E+00
        -11   -1    0    0    0    0  0.00000000000E+00  0.00000000000E+00  0.45593999997E+02  0.45594000000E+02  0.51100000000E-03 0. -1.
         11   -1    0    0    0    0 -0.00000000000E+00 -0.00000000000E+00 -0.45593999997E+02  0.45594000000E+02  0.51100000000E-03 0.  1.
    9900012    2    1    2    0    0 -0.10137312883E+02 -0.35686975033E+02 -0.16638532437E+02  0.50528855135E+02  0.29999985669E+02 0.  0.
         12    1    1    2    0    0  0.10137312883E+02  0.35686975033E+02  0.16638532437E+02  0.40659144865E+02  0.00000000000E+00 0. -1.
         11    1    3    3    0    0 -0.32888437796E+01 -0.11387155669E+01 -0.22544344442E+01  0.41467627703E+01  0.51100000000E-03 0. -1.
        -11    1    3    3    0    0  0.91391669003E+01 -0.14427962910E+02 -0.31006278929E+00  0.17081762923E+02  0.51100000000E-03 0.  1.
        -12    1    3    3    0    0 -0.15987636004E+02 -0.20120296556E+02 -0.14074035203E+02  0.29300329442E+02  0.00000000000E+00 0.  1.
</event>
<event>
 7    1  0.2991278E-011  0.5052886E+02  0.7816164E-02  0.1300439E+00
        -11   -1    0    0    0    0  0.00000000000E+00  0.00000000000E+00  0.45593999997E+02  0.45594000000E+02  0.51100000000E-03 0. -1.
         11   -1    0    0    0    0 -0.00000000000E+00 -0.00000000000E+00 -0.45593999997E+02  0.45594000000E+02  0.51100000000E-03 0.  1.
    9900012    2    1    2    0    0  0.31503308104E+02 -0.16635696305E+02 -0.19594928602E+02  0.50528855395E+02  0.29999986458E+02 0.  0.
         12    1    1    2    0    0 -0.31503308104E+02  0.16635696305E+02  0.19594928602E+02  0.40659144605E+02  0.00000000000E+00 0. -1.
         11    1    3    3    0    0 -0.28480544123E+01  0.30610118210E+01 -0.16850409217E+01  0.45078343440E+01  0.51100000000E-03 0. -1.
        -11    1    3    3    0    0  0.27051725284E+02 -0.20179698501E+02 -0.18831403721E+02  0.38647611036E+02  0.51100000000E-03 0.  1.
        -12    1    3    3    0    0  0.72996372329E+01  0.48299037466E+00  0.92151604063E+00  0.73734100148E+01  0.00000000000E+00 0.  1.
</event>
<event>
 7    1  0.4061638E-011  0.5052889E+02  0.7816164E-02  0.1300439E+00
        -11   -1    0    0    0    0  0.00000000000E+00  0.00000000000E+00  0.45593999997E+02  0.45594000000E+02  0.51100000000E-03 0.  1.
         11   -1    0    0    0    0 -0.00000000000E+00 -0.00000000000E+00 -0.45593999997E+02  0.45594000000E+02  0.51100000000E-03 0. -1.
    9900012    2    1    2    0    0  0.22688663497E+02 -0.26021874853E+02  0.21476726670E+02  0.50528890189E+02  0.30000092220E+02 0.  0.
         12    1    1    2    0    0 -0.22688663497E+02  0.26021874853E+02 -0.21476726670E+02  0.40659109811E+02  0.00000000000E+00 0. -1.
         11    1    3    3    0    0  0.98945645723E+01 -0.31214580490E+01 -0.67726813694E+00  0.10397336237E+02  0.51100000000E-03 0. -1.
        -11    1    3    3    0    0 -0.56455802309E+01 -0.75522379800E+01  0.53579352413E+01  0.10845106959E+02  0.51100000000E-03 0.  1.
        -12    1    3    3    0    0  0.18439679155E+02 -0.15348178824E+02  0.16796059565E+02  0.29286446993E+02  0.00000000000E+00 0.  1.
</event>
<event>
 7    1  0.2991278E-011  0.5052887E+02  0.7816164E-02  0.1300439E+00
        -11   -1    0    0    0    0  0.00000000000E+00  0.00000000000E+00  0.45593999997E+02  0.45594000000E+02  0.51100000000E-03 0.  1.
         11   -1    0    0    0    0 -0.00000000000E+00 -0.00000000000E+00 -0.45593999997E+02  0.45594000000E+02  0.51100000000E-03 0. -1.
    9900012    2    1    2    0    0 -0.24911207521E+02  0.32018350755E+02  0.27243212902E+01  0.50528868533E+02  0.30000026391E+02 0.  0.
         12    1    1    2    0    0  0.24911207521E+02 -0.32018350755E+02 -0.27243212902E+01  0.40659131467E+02  0.00000000000E+00 0. -1.
         11    1    3    3    0    0 -0.21454457441E+01  0.26679526021E+02 -0.55596073457E+00  0.26771423920E+02  0.51100000000E-03 0. -1.
        -11    1    3    3    0    0 -0.78250012372E+01  0.92907589069E+00  0.22779639979E+00  0.78832555352E+01  0.51100000000E-03 0.  1.
         12    1    3    3    0    0 -0.14940760539E+02  0.44097488436E+01  0.30524856250E+01  0.15874189077E+02  0.00000000000E+00 0. -1.
</event>
<event>
 7    1  0.2991278E-011  0.5052886E+02  0.7816164E-02  0.1300439E+00
        -11   -1    0    0    0    0  0.00000000000E+00  0.00000000000E+00  0.45593999997E+02  0.45594000000E+02  0.51100000000E-03 0.  1.
         11   -1    0    0    0    0 -0.00000000000E+00 -0.00000000000E+00 -0.45593999997E+02  0.45594000000E+02  0.51100000000E-03 0. -1.
    9900012    2    1    2    0    0 -0.99705549839E+01  0.37415359525E+02  0.12403395109E+02  0.50528864430E+02  0.30000013922E+02 0.  0.
         12    1    1    2    0    0  0.99705549839E+01 -0.37415359525E+02 -0.12403395109E+02  0.40659135570E+02  0.00000000000E+00 0. -1.
         11    1    3    3    0    0 -0.11007034307E+02  0.34839720462E+02  0.10201361568E+02  0.37934531817E+02  0.51100000000E-03 0.  1.
        -11    1    3    3    0    0  0.61833787168E+01  0.14102852981E+01  0.33809605625E+01  0.71870697481E+01  0.51100000000E-03 0. -1.
         12    1    3    3    0    0 -0.51468993937E+01  0.11653537646E+01 -0.11789270216E+01  0.54072628647E+01  0.00000000000E+00 0. -1.
</event>
<event>
 7    1  0.2991278E-011  0.5052886E+02  0.7816164E-02  0.1300439E+00
        -11   -1    0    0    0    0  0.00000000000E+00  0.00000000000E+00  0.45593999997E+02  0.45594000000E+02  0.51100000000E-03 0. -1.
         11   -1    0    0    0    0 -0.00000000000E+00 -0.00000000000E+00 -0.45593999997E+02  0.45594000000E+02  0.51100000000E-03 0.  1.
    9900012    2    1    2    0    0 -0.10492287635E+02  0.22417035426E+02 -0.32257616746E+02  0.50528863078E+02  0.30000009812E+02 0.  0.
         12    1    1    2    0    0  0.10492287635E+02 -0.22417035426E+02  0.32257616746E+02  0.40659136922E+02  0.00000000000E+00 0. -1.
         11    1    3    3    0    0 -0.13029289231E+02  0.96421684223E+01 -0.94057549064E+00  0.16236331860E+02  0.51100000000E-03 0. -1.
        -11    1    3    3    0    0 -0.97078450159E+00  0.78021744149E+01 -0.18650857105E+02  0.20240326557E+02  0.51100000000E-03 0.  1.
         12    1    3    3    0    0  0.35077860973E+01  0.49726925887E+01 -0.12666184151E+02  0.14052204661E+02  0.00000000000E+00 0. -1.
</event>
<event>
 7    1  0.2991278E-011  0.5052886E+02  0.7816164E-02  0.1300439E+00
        -11   -1    0    0    0    0  0.00000000000E+00  0.00000000000E+00  0.45593999997E+02  0.45594000000E+02  0.51100000000E-03 0.  1.
         11   -1    0    0    0    0 -0.00000000000E+00 -0.00000000000E+00 -0.45593999997E+02  0.45594000000E+02  0.51100000000E-03 0. -1.
    9900012    2    1    2    0    0 -0.10447398595E+01 -0.44341293062E+01  0.40403126962E+02  0.50528860161E+02  0.30000000947E+02 0.  0.
         12    1    1    2    0    0  0.10447398595E+01  0.44341293062E+01 -0.40403126962E+02  0.40659139839E+02  0.00000000000E+00 0. -1.
         11    1    3    3    0    0  0.84870778020E+01 -0.76414127768E+01  0.11991450810E+02  0.16559485851E+02  0.51100000000E-03 0. -1.
        -11    1    3    3    0    0 -0.11960272074E+02 -0.24780162309E+00  0.11703105862E+02  0.16735357803E+02  0.51100000000E-03 0.  1.
        -12    1    3    3    0    0  0.24284544124E+01  0.34550850937E+01  0.16708570290E+02  0.17234016507E+02  0.00000000000E+00 0.  1.
</event>
<event>
 7    1  0.2991278E-011  0.5052890E+02  0.7816164E-02  0.1300439E+00
        -11   -1    0    0    0    0  0.00000000000E+00  0.00000000000E+00  0.45593999997E+02  0.45594000000E+02  0.51100000000E-03 0. -1.
         11   -1    0    0    0    0 -0.00000000000E+00 -0.00000000000E+00 -0.45593999997E+02  0.45594000000E+02  0.51100000000E-03 0.  1.
    9900012    2    1    2    0    0 -0.18730692837E+02  0.13434223457E+02 -0.33493958688E+02  0.50528899142E+02  0.30000119431E+02 0.  0.
         12    1    1    2    0    0  0.18730692837E+02 -0.13434223457E+02  0.33493958688E+02  0.40659100858E+02  0.00000000000E+00 0. -1.
         11    1    3    3    0    0  0.59296546793E+01  0.21200256888E+01  0.10704748254E+01  0.63875840620E+01  0.51100000000E-03 0. -1.
        -11    1    3    3    0    0 -0.12465018926E+02  0.46894188205E+01 -0.19951472320E+02  0.23988092748E+02  0.51100000000E-03 0.  1.
         12    1    3    3    0    0 -0.12195328590E+02  0.66247789474E+01 -0.14612961193E+02  0.20153222331E+02  0.00000000000E+00 0. -1.
</event>
<event>
 7    1  0.2991278E-011  0.5052885E+02  0.7816164E-02  0.1300439E+00
        -11   -1    0    0    0    0  0.00000000000E+00  0.00000000000E+00  0.45593999997E+02  0.45594000000E+02  0.51100000000E-03 0.  1.
         11   -1    0    0    0    0 -0.00000000000E+00 -0.00000000000E+00 -0.45593999997E+02  0.45594000000E+02  0.51100000000E-03 0. -1.
    9900012    2    1    2    0    0  0.22940162946E+01 -0.13042419904E+02  0.38442150354E+02  0.50528854023E+02  0.29999982290E+02 0.  0.
         12    1    1    2    0    0 -0.22940162946E+01  0.13042419904E+02 -0.38442150354E+02  0.40659145977E+02  0.00000000000E+00 0. -1.
         11    1    3    3    0    0  0.50847609221E+01  0.45388671289E+01  0.22771409612E+02  0.23769585702E+02  0.51100000000E-03 0. -1.
        -11    1    3    3    0    0 -0.65059945670E+01 -0.53389820729E+01  0.90331074110E+01  0.12346243341E+02  0.51100000000E-03 0.  1.
         12    1    3    3    0    0  0.37152499395E+01 -0.12242304960E+02  0.66376333306E+01  0.14413024980E+02  0.00000000000E+00 0. -1.
</event>
<event>
 7    1  0.2991278E-011  0.5052886E+02  0.7816164E-02  0.1300439E+00
        -11   -1    0    0    0    0  0.00000000000E+00  0.00000000000E+00  0.45593999997E+02  0.45594000000E+02  0.51100000000E-03 0. -1.
         11   -1    0    0    0    0 -0.00000000000E+00 -0.00000000000E+00 -0.45593999997E+02  0.45594000000E+02  0.51100000000E-03 0.  1.
    9900012    2    1    2    0    0  0.10071662460E+02  0.26910223841E+02  0.28767468785E+02  0.50528858443E+02  0.29999995723E+02 0.  0.
         12    1    1    2    0    0 -0.10071662460E+02 -0.26910223841E+02 -0.28767468785E+02  0.40659141557E+02  0.00000000000E+00 0. -1.
         11    1    3    3    0    0  0.11488112611E+01  0.12912981220E+02 -0.21550210334E+01  0.13141878375E+02  0.51100000000E-03 0. -1.
        -11    1    3    3    0    0  0.97396765868E+01  0.12745621452E+02  0.31826406763E+02  0.35640318936E+02  0.51100000000E-03 0.  1.
        -12    1    3    3    0    0 -0.81682538787E+00  0.12516211693E+01 -0.90391694466E+00  0.17466611316E+01  0.00000000000E+00 0.  1.
</event>
<event>
 7    1  0.2991278E-011  0.5052886E+02  0.7816164E-02  0.1300439E+00
        -11   -1    0    0    0    0  0.00000000000E+00  0.00000000000E+00  0.45593999997E+02  0.45594000000E+02  0.51100000000E-03 0.  1.
         11   -1    0    0    0    0 -0.00000000000E+00 -0.00000000000E+00 -0.45593999997E+02  0.45594000000E+02  0.51100000000E-03 0. -1.
    9900012    2    1    2    0    0 -0.31633883058E+02 -0.16520227475E+02  0.19481920347E+02  0.50528859655E+02  0.29999999408E+02 0.  0.
         12    1    1    2    0    0  0.31633883058E+02  0.16520227475E+02 -0.19481920347E+02  0.40659140345E+02  0.00000000000E+00 0. -1.
         11    1    3    3    0    0 -0.12863257047E+02 -0.37503328378E+01  0.70688199436E+01  0.15149144989E+02  0.51100000000E-03 0.  1.
        -11    1    3    3    0    0 -0.22275910200E+02 -0.26969752257E+01  0.77471018611E+01  0.23738311610E+02  0.51100000000E-03 0. -1.
        -12    1    3    3    0    0  0.35052841885E+01 -0.10072919412E+02  0.46659985420E+01  0.11641403056E+02  0.00000000000E+00 0.  1.
</event>
<event>
 7    1  0.2991278E-011  0.5052885E+02  0.7816164E-02  0.1300439E+00
        -11   -1    0    0    0    0  0.00000000000E+00  0.00000000000E+00  0.45593999997E+02  0.45594000000E+02  0.51100000000E-03 0.  1.
         11   -1    0    0    0    0 -0.00000000000E+00 -0.00000000000E+00 -0.45593999997E+02  0.45594000000E+02  0.51100000000E-03 0. -1.
    9900012    2    1    2    0    0 -0.65283201595E+01 -0.35362801051E-01  0.40131614638E+02  0.50528847179E+02  0.29999961486E+02 0.  0.
         12    1    1    2    0    0  0.65283201595E+01  0.35362801051E-01 -0.40131614638E+02  0.40659152821E+02  0.00000000000E+00 0. -1.
         11    1    3    3    0    0  0.30765764932E+01  0.34090112505E+01  0.17603143467E+02  0.18192232980E+02  0.51100000000E-03 0. -1.
        -11    1    3    3    0    0 -0.15168490223E+02 -0.65815947574E+01  0.18367450967E+02  0.24713634709E+02  0.51100000000E-03 0.  1.
        -12    1    3    3    0    0  0.55635935708E+01  0.31372207058E+01  0.41610202041E+01  0.76229794908E+01  0.00000000000E+00 0.  1.
</event>
<event>
 7    1  0.2991278E-011  0.5052885E+02  0.7816164E-02  0.1300439E+00
        -11   -1    0    0    0    0  0.00000000000E+00  0.00000000000E+00  0.45593999997E+02  0.45594000000E+02  0.51100000000E-03 0.  1.
         11   -1    0    0    0    0 -0.00000000000E+00 -0.00000000000E+00 -0.45593999997E+02  0.45594000000E+02  0.51100000000E-03 0. -1.
    9900012    2    1    2    0    0  0.30331099666E+01 -0.12779594871E+02  0.38479200424E+02  0.50528847691E+02  0.29999963043E+02 0.  0.
         12    1    1    2    0    0 -0.30331099666E+01  0.12779594871E+02 -0.38479200424E+02  0.40659152309E+02  0.00000000000E+00 0. -1.
         11    1    3    3    0    0 -0.17266891146E+01 -0.25920204139E+01 -0.38578135127E+01  0.49580994831E+01  0.51100000000E-03 0. -1.
        -11    1    3    3    0    0 -0.47926995153E+00 -0.54503127474E+01  0.34853522466E+02  0.35280357670E+02  0.51100000000E-03 0.  1.
         12    1    3    3    0    0  0.52390690328E+01 -0.47372617101E+01  0.74834914709E+01  0.10290390539E+02  0.00000000000E+00 0. -1.
</event>
<event>
 7    1  0.2991278E-011  0.5052886E+02  0.7816164E-02  0.1300439E+00
        -11   -1    0    0    0    0  0.00000000000E+00  0.00000000000E+00  0.45593999997E+02  0.45594000000E+02  0.51100000000E-03 0.  1.
         11   -1    0    0    0    0 -0.00000000000E+00 -0.00000000000E+00 -0.45593999997E+02  0.45594000000E+02  0.51100000000E-03 0. -1.
    9900012    2    1    2    0    0  0.68039314471E+01 -0.80025616662E+01  0.39278891988E+02  0.50528857951E+02  0.29999994229E+02 0.  0.
         12    1    1    2    0    0 -0.68039314471E+01  0.80025616662E+01 -0.39278891988E+02  0.40659142049E+02  0.00000000000E+00 0. -1.
         11    1    3    3    0    0 -0.33949057674E+01 -0.83428798278E+01  0.53462118563E+01  0.10474302386E+02  0.51100000000E-03 0. -1.
        -11    1    3    3    0    0  0.71352215584E+01  0.17785593307E+01  0.35550693041E+02  0.36303256547E+02  0.51100000000E-03 0.  1.
        -12    1    3    3    0    0  0.30636156561E+01 -0.14382411691E+01 -0.16180129098E+01  0.37512990183E+01  0.00000000000E+00 0.  1.
</event>
<event>
 7    1  0.2991278E-011  0.5052892E+02  0.7816164E-02  0.1300439E+00
        -11   -1    0    0    0    0  0.00000000000E+00  0.00000000000E+00  0.45593999997E+02  0.45594000000E+02  0.51100000000E-03 0.  1.
         11   -1    0    0    0    0 -0.00000000000E+00 -0.00000000000E+00 -0.45593999997E+02  0.45594000000E+02  0.51100000000E-03 0. -1.
    9900012    2    1    2    0    0 -0.23201769838E+02 -0.26691807563E+02  0.20059554982E+02  0.50528924006E+02  0.30000195008E+02 0.  0.
         12    1    1    2    0    0  0.23201769838E+02  0.26691807563E+02 -0.20059554982E+02  0.40659075994E+02  0.00000000000E+00 0. -1.
         11    1    3    3    0    0 -0.28379931472E+01  0.12917581701E+01  0.14863112284E+02  0.15186670184E+02  0.51100000000E-03 0. -1.
        -11    1    3    3    0    0 -0.71928419488E+01 -0.13914970608E+02  0.29587246178E+01  0.15941061255E+02  0.51100000000E-03 0.  1.
         12    1    3    3    0    0 -0.13170934742E+02 -0.14068595125E+02  0.22377180810E+01  0.19401192566E+02  0.00000000000E+00 0. -1.
</event>
<event>
 7    1  0.2991278E-011  0.5052886E+02  0.7816164E-02  0.1300439E+00
        -11   -1    0    0    0    0  0.00000000000E+00  0.00000000000E+00  0.45593999997E+02  0.45594000000E+02  0.51100000000E-03 0. -1.
         11   -1    0    0    0    0 -0.00000000000E+00 -0.00000000000E+00 -0.45593999997E+02  0.45594000000E+02  0.51100000000E-03 0.  1.
    9900012    2    1    2    0    0 -0.17230011571E+02  0.34551008815E+02  0.12748339837E+02  0.50528859853E+02  0.30000000010E+02 0.  0.
         12    1    1    2    0    0  0.17230011571E+02 -0.34551008815E+02 -0.12748339837E+02  0.40659140147E+02  0.00000000000E+00 0. -1.
         11    1    3    3    0    0  0.23740602760E+00 -0.22346156813E+01 -0.44154349459E+01  0.49543854198E+01  0.51100000000E-03 0. -1.
        -11    1    3    3    0    0 -0.10681482575E+02  0.26632923529E+02  0.66388023684E+01  0.29453019927E+02  0.51100000000E-03 0.  1.
        -12    1    3    3    0    0 -0.67859350232E+01  0.10152700968E+02  0.10524972414E+02  0.16121454506E+02  0.00000000000E+00 0.  1.
</event>
<event>
 7    1  0.2991278E-011  0.5052886E+02  0.7816164E-02  0.1300439E+00
        -11   -1    0    0    0    0  0.00000000000E+00  0.00000000000E+00  0.45593999997E+02  0.45594000000E+02  0.51100000000E-03 0. -1.
         11   -1    0    0    0    0 -0.00000000000E+00 -0.00000000000E+00 -0.45593999997E+02  0.45594000000E+02  0.51100000000E-03 0.  1.
    9900012    2    1    2    0    0  0.17030105425E+02 -0.36467530142E+02  0.57671968570E+01  0.50528858285E+02  0.29999995243E+02 0.  0.
         12    1    1    2    0    0 -0.17030105425E+02  0.36467530142E+02 -0.57671968570E+01  0.40659141715E+02  0.00000000000E+00 0. -1.
         11    1    3    3    0    0 -0.41053051329E+01 -0.54543001618E+01  0.27617244129E+01  0.73641050021E+01  0.51100000000E-03 0. -1.
        -11    1    3    3    0    0  0.21821338515E+02 -0.26701837042E+02  0.91030792030E+01  0.35665459022E+02  0.51100000000E-03 0.  1.
        -12    1    3    3    0    0 -0.68592795677E+00 -0.43113929374E+01 -0.60976067588E+01  0.74992942607E+01  0.00000000000E+00 0.  1.
</event>
<event>
 7    1  0.2991278E-011  0.5052886E+02  0.7816164E-02  0.1300439E+00
        -11   -1    0    0    0    0  0.00000000000E+00  0.00000000000E+00  0.45593999997E+02  0.45594000000E+02  0.51100000000E-03 0. -1.
         11   -1    0    0    0    0 -0.00000000000E+00 -0.00000000000E+00 -0.45593999997E+02  0.45594000000E+02  0.51100000000E-03 0.  1.
    9900012    2    1    2    0    0  0.33391294997E+02 -0.18447347505E+02 -0.14067064955E+02  0.50528861691E+02  0.30000005596E+02 0.  0.
         12    1    1    2    0    0 -0.33391294997E+02  0.18447347505E+02  0.14067064955E+02  0.40659138309E+02  0.00000000000E+00 0. -1.
         11    1    3    3    0    0 -0.33368030743E+00 -0.66462428057E+01  0.33645810783E+01  0.74568285534E+01  0.51100000000E-03 0. -1.
        -11    1    3    3    0    0  0.20660747688E+02  0.10525913004E+01 -0.12181296765E+02  0.24007466226E+02  0.51100000000E-03 0.  1.
         12    1    3    3    0    0  0.13064227617E+02 -0.12853696000E+02 -0.52503492685E+01  0.19064566912E+02  0.00000000000E+00 0. -1.
</event>
<event>
 7    1  0.2991278E-011  0.5052886E+02  0.7816164E-02  0.1300439E+00
        -11   -1    0    0    0    0  0.00000000000E+00  0.00000000000E+00  0.45593999997E+02  0.45594000000E+02  0.51100000000E-03 0.  1.
         11   -1    0    0    0    0 -0.00000000000E+00 -0.00000000000E+00 -0.45593999997E+02  0.45594000000E+02  0.51100000000E-03 0. -1.
    9900012    2    1    2    0    0  0.12277432963E+02 -0.27942680137E+02  0.26863297301E+02  0.50528862340E+02  0.30000007568E+02 0.  0.
         12    1    1    2    0    0 -0.12277432963E+02  0.27942680137E+02 -0.26863297301E+02  0.40659137660E+02  0.00000000000E+00 0. -1.
         11    1    3    3    0    0 -0.49431154122E-01  0.11544431976E+01  0.67584556815E+01  0.68565228794E+01  0.51100000000E-03 0. -1.
        -11    1    3    3    0    0  0.16134530536E+02 -0.28790840280E+02  0.12742622692E+02  0.35378100472E+02  0.51100000000E-03 0.  1.
        -12    1    3    3    0    0 -0.38076664190E+01 -0.30628305466E+00  0.73622189275E+01  0.82942389889E+01  0.00000000000E+00 0.  1.
</event>
<event>
 7    1  0.2991278E-011  0.5052886E+02  0.7816164E-02  0.1300439E+00
        -11   -1    0    0    0    0  0.00000000000E+00  0.00000000000E+00  0.45593999997E+02  0.45594000000E+02  0.51100000000E-03 0. -1.
         11   -1    0    0    0    0 -0.00000000000E+00 -0.00000000000E+00 -0.45593999997E+02  0.45594000000E+02  0.51100000000E-03 0.  1.
    9900012    2    1    2    0    0 -0.19405245771E+02  0.34190692721E+02  0.10372966869E+02  0.50528862358E+02  0.30000007623E+02 0.  0.
         12    1    1    2    0    0  0.19405245771E+02 -0.34190692721E+02 -0.10372966869E+02  0.40659137642E+02  0.00000000000E+00 0. -1.
         11    1    3    3    0    0 -0.67980854894E+01  0.31780734638E+02  0.90906065327E+00  0.32512389207E+02  0.51100000000E-03 0.  1.
        -11    1    3    3    0    0 -0.13223365660E+02  0.18262453354E+01  0.10272724423E+02  0.16844032733E+02  0.51100000000E-03 0. -1.
         12    1    3    3    0    0  0.61620537803E+00  0.58371274740E+00 -0.80881820748E+00  0.11724404173E+01  0.00000000000E+00 0. -1.
</event>
<event>
 7    1  0.2991278E-011  0.5052886E+02  0.7816164E-02  0.1300439E+00
        -11   -1    0    0    0    0  0.00000000000E+00  0.00000000000E+00  0.45593999997E+02  0.45594000000E+02  0.51100000000E-03 0. -1.
         11   -1    0    0    0    0 -0.00000000000E+00 -0.00000000000E+00 -0.45593999997E+02  0.45594000000E+02  0.51100000000E-03 0.  1.
    9900012    2    1    2    0    0 -0.40008771227E+02 -0.19721170360E+01 -0.69695666435E+01  0.50528857364E+02  0.29999992445E+02 0.  0.
         12    1    1    2    0    0  0.40008771227E+02  0.19721170360E+01  0.69695666435E+01  0.40659142636E+02  0.00000000000E+00 0. -1.
         11    1    3    3    0    0 -0.10290841602E+02  0.16761898694E+01  0.30254945049E+01  0.10856548743E+02  0.51100000000E-03 0. -1.
        -11    1    3    3    0    0 -0.92569352927E+01 -0.12287026536E+02 -0.80887927009E+01  0.17380749113E+02  0.51100000000E-03 0.  1.
        -12    1    3    3    0    0 -0.20460994332E+02  0.86387196306E+01 -0.19062684476E+01  0.22291559508E+02  0.00000000000E+00 0.  1.
</event>
<event>
 7    1  0.2991278E-011  0.5052886E+02  0.7816164E-02  0.1300439E+00
        -11   -1    0    0    0    0  0.00000000000E+00  0.00000000000E+00  0.45593999997E+02  0.45594000000E+02  0.51100000000E-03 0.  1.
         11   -1    0    0    0    0 -0.00000000000E+00 -0.00000000000E+00 -0.45593999997E+02  0.45594000000E+02  0.51100000000E-03 0. -1.
    9900012    2    1    2    0    0  0.38906161191E+02  0.30140137325E+01  0.11418942786E+02  0.50528856972E+02  0.29999991253E+02 0.  0.
         12    1    1    2    0    0 -0.38906161191E+02 -0.30140137325E+01 -0.11418942786E+02  0.40659143028E+02  0.00000000000E+00 0. -1.
         11    1    3    3    0    0  0.60602037287E+01  0.31671782986E+01  0.58050242087E+01  0.89696930791E+01  0.51100000000E-03 0. -1.
        -11    1    3    3    0    0  0.21538719580E+02 -0.12051790258E+02  0.20799571450E+01  0.24768696202E+02  0.51100000000E-03 0.  1.
        -12    1    3    3    0    0  0.11307237883E+02  0.11898625692E+02  0.35339614324E+01  0.16790467691E+02  0.00000000000E+00 0.  1.
</event>
<event>
 7    1  0.2991278E-011  0.5052886E+02  0.7816164E-02  0.1300439E+00
        -11   -1    0    0    0    0  0.00000000000E+00  0.00000000000E+00  0.45593999997E+02  0.45594000000E+02  0.51100000000E-03 0. -1.
         11   -1    0    0    0    0 -0.00000000000E+00 -0.00000000000E+00 -0.45593999997E+02  0.45594000000E+02  0.51100000000E-03 0.  1.
    9900012    2    1    2    0    0 -0.60440611461E+01 -0.26919294994E+02 -0.29866144182E+02  0.50528859743E+02  0.29999999676E+02 0.  0.
         12    1    1    2    0    0  0.60440611461E+01  0.26919294994E+02  0.29866144182E+02  0.40659140257E+02  0.00000000000E+00 0. -1.
         11    1    3    3    0    0  0.76580021965E+01 -0.40453774230E+01 -0.17188601231E+01  0.88297540464E+01  0.51100000000E-03 0. -1.
        -11    1    3    3    0    0 -0.23008886322E+01 -0.14980666295E+02 -0.21541646266E+02  0.26339266794E+02  0.51100000000E-03 0.  1.
         12    1    3    3    0    0 -0.11401174710E+02 -0.78932512758E+01 -0.66056377933E+01  0.15359838903E+02  0.00000000000E+00 0. -1.
</event>
<event>
 7    1  0.2991278E-011  0.5052888E+02  0.7816164E-02  0.1300439E+00
        -11   -1    0    0    0    0  0.00000000000E+00  0.00000000000E+00  0.45593999997E+02  0.45594000000E+02  0.51100000000E-03 0.  1.
         11   -1    0    0    0    0 -0.00000000000E+00 -0.00000000000E+00 -0.45593999997E+02  0.45594000000E+02  0.51100000000E-03 0. -1.
    9900012    2    1    2    0    0 -0.30549831398E+02  0.13841945766E+02  0.22984184769E+02  0.50528875434E+02  0.30000047368E+02 0.  0.
         12    1    1    2    0    0  0.30549831398E+02 -0.13841945766E+02 -0.22984184769E+02  0.40659124566E+02  0.00000000000E+00 0. -1.
         11    1    3    3    0    0 -0.39018257937E+01 -0.58558201432E+01  0.12340906142E+02  0.14206084567E+02  0.51100000000E-03 0. -1.
        -11    1    3    3    0    0 -0.15705384934E+02  0.16861359966E+02  0.45739498943E+01  0.23492245396E+02  0.51100000000E-03 0.  1.
         12    1    3    3    0    0 -0.10942620670E+02  0.28364059431E+01  0.60693287329E+01  0.12830545470E+02  0.00000000000E+00 0. -1.
</event>
<event>
 7    1  0.2991278E-011  0.5052885E+02  0.7816164E-02  0.1300439E+00
        -11   -1    0    0    0    0  0.00000000000E+00  0.00000000000E+00  0.45593999997E+02  0.45594000000E+02  0.51100000000E-03 0.  1.
         11   -1    0    0    0    0 -0.00000000000E+00 -0.00000000000E+00 -0.45593999997E+02  0.45594000000E+02  0.51100000000E-03 0. -1.
    9900012    2    1    2    0    0 -0.92198676490E+01 -0.39331736043E+02 -0.46015926307E+01  0.50528854972E+02  0.29999985174E+02 0.  0.
         12    1    1    2    0    0  0.92198676490E+01  0.39331736043E+02  0.46015926307E+01  0.40659145028E+02  0.00000000000E+00 0. -1.
         11    1    3    3    0    0 -0.30130839096E+01 -0.33443271796E+01  0.32344331410E+01  0.55429916954E+01  0.51100000000E-03 0. -1.
        -11    1    3    3    0    0 -0.11052217258E+02 -0.36947783046E+02 -0.95971669038E+01  0.39741612841E+02  0.51100000000E-03 0.  1.
        -12    1    3    3    0    0  0.48454335185E+01  0.96037418216E+00  0.17611411322E+01  0.52442504363E+01  0.00000000000E+00 0.  1.
</event>
<event>
 7    1  0.2991278E-011  0.5052886E+02  0.7816164E-02  0.1300439E+00
        -11   -1    0    0    0    0  0.00000000000E+00  0.00000000000E+00  0.45593999997E+02  0.45594000000E+02  0.51100000000E-03 0.  1.
         11   -1    0    0    0    0 -0.00000000000E+00 -0.00000000000E+00 -0.45593999997E+02  0.45594000000E+02  0.51100000000E-03 0. -1.
    9900012    2    1    2    0    0  0.11493645976E+02 -0.38999121494E+02  0.36121724911E+00  0.50528857694E+02  0.29999993447E+02 0.  0.
         12    1    1    2    0    0 -0.11493645976E+02  0.38999121494E+02 -0.36121724911E+00  0.40659142306E+02  0.00000000000E+00 0. -1.
         11    1    3    3    0    0  0.85725812894E-01 -0.37340945715E+02  0.54272609171E+01  0.37733390215E+02  0.51100000000E-03 0.  1.
        -11    1    3    3    0    0  0.10232605803E+02 -0.12734302512E+01 -0.52054391409E+01  0.11550949876E+02  0.51100000000E-03 0. -1.
        -12    1    3    3    0    0  0.11753143600E+01 -0.38474552803E+00  0.13939547287E+00  0.12445176029E+01  0.00000000000E+00 0.  1.
</event>
<event>
 7    1  0.3023503E-011  0.5052884E+02  0.7816164E-02  0.1300439E+00
        -11   -1    0    0    0    0  0.00000000000E+00  0.00000000000E+00  0.45593999997E+02  0.45594000000E+02  0.51100000000E-03 0. -1.
         11   -1    0    0    0    0 -0.00000000000E+00 -0.00000000000E+00 -0.45593999997E+02  0.45594000000E+02  0.51100000000E-03 0.  1.
    9900012    2    1    2    0    0 -0.61808291884E+01 -0.37847132759E+01 -0.40008007751E+02  0.50528838815E+02  0.29999936062E+02 0.  0.
         12    1    1    2    0    0  0.61808291884E+01  0.37847132759E+01  0.40008007751E+02  0.40659161185E+02  0.00000000000E+00 0. -1.
         11    1    3    3    0    0  0.79622767050E+01 -0.83585007483E+01 -0.14663776429E+02  0.18662495130E+02  0.51100000000E-03 0. -1.
        -11    1    3    3    0    0 -0.11405741918E+02 -0.71895683999E+00 -0.92444376154E+01  0.14699233814E+02  0.51100000000E-03 0.  1.
        -12    1    3    3    0    0 -0.27373639755E+01  0.52927443124E+01 -0.16099793707E+02  0.17167109870E+02  0.00000000000E+00 0.  1.
</event>
<event>
 7    1  0.2991278E-011  0.5052885E+02  0.7816164E-02  0.1300439E+00
        -11   -1    0    0    0    0  0.00000000000E+00  0.00000000000E+00  0.45593999997E+02  0.45594000000E+02  0.51100000000E-03 0. -1.
         11   -1    0    0    0    0 -0.00000000000E+00 -0.00000000000E+00 -0.45593999997E+02  0.45594000000E+02  0.51100000000E-03 0.  1.
    9900012    2    1    2    0    0 -0.20218644767E+01 -0.40439418549E+02 -0.37056765085E+01  0.50528849161E+02  0.29999967510E+02 0.  0.
         12    1    1    2    0    0  0.20218644767E+01  0.40439418549E+02  0.37056765085E+01  0.40659150839E+02  0.00000000000E+00 0. -1.
         11    1    3    3    0    0 -0.82069269508E+01 -0.12764578190E+02  0.80564255303E+01  0.17181213546E+02  0.51100000000E-03 0. -1.
        -11    1    3    3    0    0  0.54946732088E+00 -0.24764937393E+02 -0.83177972298E+01  0.26130246639E+02  0.51100000000E-03 0.  1.
         12    1    3    3    0    0  0.56355951532E+01 -0.29099029661E+01 -0.34443048089E+01  0.72173889752E+01  0.00000000000E+00 0. -1.
</event>
<event>
 7    1  0.2991278E-011  0.5052886E+02  0.7816164E-02  0.1300439E+00
        -11   -1    0    0    0    0  0.00000000000E+00  0.00000000000E+00  0.45593999997E+02  0.45594000000E+02  0.51100000000E-03 0.  1.
         11   -1    0    0    0    0 -0.00000000000E+00 -0.00000000000E+00 -0.45593999997E+02  0.45594000000E+02  0.51100000000E-03 0. -1.
    9900012    2    1    2    0    0 -0.49619950767E+00 -0.27746288228E+02  0.29716373873E+02  0.50528860800E+02  0.30000002886E+02 0.  0.
         12    1    1    2    0    0  0.49619950767E+00  0.27746288228E+02 -0.29716373873E+02  0.40659139200E+02  0.00000000000E+00 0. -1.
         11    1    3    3    0    0  0.60906308434E+01 -0.14871629648E+00 -0.13898639815E+01  0.62489697355E+01  0.51100000000E-03 0. -1.
        -11    1    3    3    0    0  0.11403886737E+01 -0.79376074663E+01  0.17233356902E+02  0.19007753392E+02  0.51100000000E-03 0.  1.
         12    1    3    3    0    0 -0.77272190247E+01 -0.19659964465E+02  0.13872880952E+02  0.25272137672E+02  0.00000000000E+00 0. -1.
</event>
<event>
 7    1  0.2991278E-011  0.5052887E+02  0.7816164E-02  0.1300439E+00
        -11   -1    0    0    0    0  0.00000000000E+00  0.00000000000E+00  0.45593999997E+02  0.45594000000E+02  0.51100000000E-03 0.  1.
         11   -1    0    0    0    0 -0.00000000000E+00 -0.00000000000E+00 -0.45593999997E+02  0.45594000000E+02  0.51100000000E-03 0. -1.
    9900012    2    1    2    0    0  0.21832930255E+02  0.32805626488E+02  0.10013926840E+02  0.50528871830E+02  0.30000036414E+02 0.  0.
         12    1    1    2    0    0 -0.21832930255E+02 -0.32805626488E+02 -0.10013926840E+02  0.40659128170E+02  0.00000000000E+00 0. -1.
         11    1    3    3    0    0  0.22086094645E+01 -0.55764136928E+00  0.26731382225E+01  0.35120631944E+01  0.51100000000E-03 0. -1.
        -11    1    3    3    0    0  0.54925005858E+01  0.30856739063E+02  0.88975373768E+01  0.32580240637E+02  0.51100000000E-03 0.  1.
        -12    1    3    3    0    0  0.14131820204E+02  0.25065287943E+01 -0.15567487594E+01  0.14436567999E+02  0.00000000000E+00 0.  1.
</event>
<event>
 7    1  0.2991278E-011  0.5052886E+02  0.7816164E-02  0.1300439E+00
        -11   -1    0    0    0    0  0.00000000000E+00  0.00000000000E+00  0.45593999997E+02  0.45594000000E+02  0.51100000000E-03 0. -1.
         11   -1    0    0    0    0 -0.00000000000E+00 -0.00000000000E+00 -0.45593999997E+02  0.45594000000E+02  0.51100000000E-03 0.  1.
    9900012    2    1    2    0    0 -0.16652421961E+02  0.75646521030E+01 -0.36313064721E+02  0.50528858494E+02  0.29999995878E+02 0.  0.
         12    1    1    2    0    0  0.16652421961E+02 -0.75646521030E+01  0.36313064721E+02  0.40659141506E+02  0.00000000000E+00 0. -1.
         11    1    3    3    0    0 -0.21954938473E+02  0.28717288902E+01 -0.27201964573E+02  0.35074392754E+02  0.51100000000E-03 0. -1.
        -11    1    3    3    0    0  0.33215481895E+01 -0.29698984941E+01 -0.23091060633E+01  0.50184609706E+01  0.51100000000E-03 0.  1.
         12    1    3    3    0    0  0.19809683232E+01  0.76628217070E+01 -0.68019940850E+01  0.10436004769E+02  0.00000000000E+00 0. -1.
</event>
<event>
 7    1  0.2991278E-011  0.5052887E+02  0.7816164E-02  0.1300439E+00
        -11   -1    0    0    0    0  0.00000000000E+00  0.00000000000E+00  0.45593999997E+02  0.45594000000E+02  0.51100000000E-03 0.  1.
         11   -1    0    0    0    0 -0.00000000000E+00 -0.00000000000E+00 -0.45593999997E+02  0.45594000000E+02  0.51100000000E-03 0. -1.
    9900012    2    1    2    0    0 -0.22615881989E+02  0.33756563804E+02 -0.14769479439E+01  0.50528867038E+02  0.30000021848E+02 0.  0.
         12    1    1    2    0    0  0.22615881989E+02 -0.33756563804E+02  0.14769479439E+01  0.40659132962E+02  0.00000000000E+00 0. -1.
         11    1    3    3    0    0  0.52891948166E+01  0.38175121474E+01 -0.23509288382E+01  0.69336748890E+01  0.51100000000E-03 0. -1.
        -11    1    3    3    0    0 -0.24396458734E+02  0.31126899895E+02  0.23256473922E+01  0.39616659777E+02  0.51100000000E-03 0.  1.
        -12    1    3    3    0    0 -0.35086180714E+01 -0.11878482384E+01 -0.14516664978E+01  0.39785323713E+01  0.00000000000E+00 0.  1.
</event>
<event>
 7    1  0.2991278E-011  0.5052885E+02  0.7816164E-02  0.1300439E+00
        -11   -1    0    0    0    0  0.00000000000E+00  0.00000000000E+00  0.45593999997E+02  0.45594000000E+02  0.51100000000E-03 0.  1.
         11   -1    0    0    0    0 -0.00000000000E+00 -0.00000000000E+00 -0.45593999997E+02  0.45594000000E+02  0.51100000000E-03 0. -1.
    9900012    2    1    2    0    0  0.12318895159E+01  0.87133629230E+01  0.39695415694E+02  0.50528852538E+02  0.29999977774E+02 0.  0.
         12    1    1    2    0    0 -0.12318895159E+01 -0.87133629230E+01 -0.39695415694E+02  0.40659147462E+02  0.00000000000E+00 0. -1.
         11    1    3    3    0    0 -0.37205978592E+01  0.10169051601E+02  0.97940238350E+01  0.14600526088E+02  0.51100000000E-03 0. -1.
        -11    1    3    3    0    0  0.19272112565E+01 -0.31302008924E+01  0.31780873778E+02  0.31992752917E+02  0.51100000000E-03 0.  1.
         12    1    3    3    0    0  0.30252761186E+01  0.16745122141E+01 -0.18794819190E+01  0.39355735329E+01  0.00000000000E+00 0. -1.
</event>
<event>
 7    1  0.2991278E-011  0.5052886E+02  0.7816164E-02  0.1300439E+00
        -11   -1    0    0    0    0  0.00000000000E+00  0.00000000000E+00  0.45593999997E+02  0.45594000000E+02  0.51100000000E-03 0. -1.
         11   -1    0    0    0    0 -0.00000000000E+00 -0.00000000000E+00 -0.45593999997E+02  0.45594000000E+02  0.51100000000E-03 0.  1.
    9900012    2    1    2    0    0 -0.20710192010E+02  0.20483290859E+02 -0.28367032910E+02  0.50528858179E+02  0.29999994921E+02 0.  0.
         12    1    1    2    0    0  0.20710192010E+02 -0.20483290859E+02  0.28367032910E+02  0.40659141821E+02  0.00000000000E+00 0. -1.
         11    1    3    3    0    0  0.46576122330E+01  0.55116744282E+01 -0.48842782185E+01  0.87136720556E+01  0.51100000000E-03 0. -1.
        -11    1    3    3    0    0 -0.87652246928E+01  0.27583824356E+01 -0.18430361717E+02  0.20594078539E+02  0.51100000000E-03 0.  1.
        -12    1    3    3    0    0 -0.16602579551E+02  0.12213233995E+02 -0.50523929740E+01  0.21221107584E+02  0.00000000000E+00 0.  1.
</event>
<event>
 7    1  0.2991278E-011  0.5052886E+02  0.7816164E-02  0.1300439E+00
        -11   -1    0    0    0    0  0.00000000000E+00  0.00000000000E+00  0.45593999997E+02  0.45594000000E+02  0.51100000000E-03 0. -1.
         11   -1    0    0    0    0 -0.00000000000E+00 -0.00000000000E+00 -0.45593999997E+02  0.45594000000E+02  0.51100000000E-03 0.  1.
    9900012    2    1    2    0    0 -0.60906153593E+01 -0.24404499359E+02 -0.31945114821E+02  0.50528861478E+02  0.30000004949E+02 0.  0.
         12    1    1    2    0    0  0.60906153593E+01  0.24404499359E+02  0.31945114821E+02  0.40659138522E+02  0.00000000000E+00 0. -1.
         11    1    3    3    0    0  0.39423185227E+00  0.57314808313E+01 -0.78580075145E+00  0.57985148404E+01  0.51100000000E-03 0. -1.
        -11    1    3    3    0    0 -0.20718184348E+01 -0.19199076970E+02 -0.24469746185E+02  0.31171548995E+02  0.51100000000E-03 0.  1.
         12    1    3    3    0    0 -0.44130287768E+01 -0.10936903220E+02 -0.66895678847E+01  0.13558797643E+02  0.00000000000E+00 0. -1.
</event>
<event>
 7    1  0.2991278E-011  0.5052886E+02  0.7816164E-02  0.1300439E+00
        -11   -1    0    0    0    0  0.00000000000E+00  0.00000000000E+00  0.45593999997E+02  0.45594000000E+02  0.51100000000E-03 0. -1.
         11   -1    0    0    0    0 -0.00000000000E+00 -0.00000000000E+00 -0.45593999997E+02  0.45594000000E+02  0.51100000000E-03 0.  1.
    9900012    2    1    2    0    0 -0.84443593070E+00 -0.34734774717E+02 -0.21117485580E+02  0.50528857806E+02  0.29999993788E+02 0.  0.
         12    1    1    2    0    0  0.84443593070E+00  0.34734774717E+02  0.21117485580E+02  0.40659142194E+02  0.00000000000E+00 0. -1.
         11    1    3    3    0    0  0.14072949914E+02 -0.13893536124E+02 -0.74586302318E+01  0.21135501662E+02  0.51100000000E-03 0. -1.
        -11    1    3    3    0    0 -0.91036424186E+01 -0.92564607829E+01 -0.56674208562E+01  0.14166087354E+02  0.51100000000E-03 0.  1.
         12    1    3    3    0    0 -0.58137434265E+01 -0.11584777810E+02 -0.79914344924E+01  0.15227268790E+02  0.00000000000E+00 0. -1.
</event>
<event>
 7    1  0.2991278E-011  0.5052885E+02  0.7816164E-02  0.1300439E+00
        -11   -1    0    0    0    0  0.00000000000E+00  0.00000000000E+00  0.45593999997E+02  0.45594000000E+02  0.51100000000E-03 0.  1.
         11   -1    0    0    0    0 -0.00000000000E+00 -0.00000000000E+00 -0.45593999997E+02  0.45594000000E+02  0.51100000000E-03 0. -1.
    9900012    2    1    2    0    0 -0.28685763849E+02 -0.27590741338E+02  0.83092731692E+01  0.50528854955E+02  0.29999985121E+02 0.  0.
         12    1    1    2    0    0  0.28685763849E+02  0.27590741338E+02 -0.83092731692E+01  0.40659145045E+02  0.00000000000E+00 0. -1.
         11    1    3    3    0    0 -0.11408388947E+02  0.20485682494E+01  0.28027548127E+01  0.11924906920E+02  0.51100000000E-03 0. -1.
        -11    1    3    3    0    0 -0.16727172431E+02 -0.25503008805E+02  0.10353136491E+02  0.32208526683E+02  0.51100000000E-03 0.  1.
         12    1    3    3    0    0 -0.55020247043E+00 -0.41363007824E+01 -0.48466181347E+01  0.63954213516E+01  0.00000000000E+00 0. -1.
</event>
<event>
 7    1  0.2991278E-011  0.5052886E+02  0.7816164E-02  0.1300439E+00
        -11   -1    0    0    0    0  0.00000000000E+00  0.00000000000E+00  0.45593999997E+02  0.45594000000E+02  0.51100000000E-03 0. -1.
         11   -1    0    0    0    0 -0.00000000000E+00 -0.00000000000E+00 -0.45593999997E+02  0.45594000000E+02  0.51100000000E-03 0.  1.
    9900012    2    1    2    0    0 -0.29279031493E+02 -0.72017158068E+01 -0.27277076683E+02  0.50528864395E+02  0.30000013816E+02 0.  0.
         12    1    1    2    0    0  0.29279031493E+02  0.72017158068E+01  0.27277076683E+02  0.40659135605E+02  0.00000000000E+00 0. -1.
         11    1    3    3    0    0 -0.12820648053E+02 -0.21832751814E+01  0.15610325261E+01  0.13098569763E+02  0.51100000000E-03 0. -1.
        -11    1    3    3    0    0 -0.16753940348E+02  0.19063151759E+01 -0.21694058850E+02  0.27476548990E+02  0.51100000000E-03 0.  1.
        -12    1    3    3    0    0  0.29555690729E+00 -0.69247558013E+01 -0.71440503589E+01  0.99537456430E+01  0.00000000000E+00 0.  1.
</event>
<event>
 7    1  0.2991278E-011  0.5052886E+02  0.7816164E-02  0.1300439E+00
        -11   -1    0    0    0    0  0.00000000000E+00  0.00000000000E+00  0.45593999997E+02  0.45594000000E+02  0.51100000000E-03 0.  1.
         11   -1    0    0    0    0 -0.00000000000E+00 -0.00000000000E+00 -0.45593999997E+02  0.45594000000E+02  0.51100000000E-03 0. -1.
    9900012    2    1    2    0    0 -0.22788831750E+02 -0.12186192645E+02  0.31389996182E+02  0.50528855837E+02  0.29999987803E+02 0.  0.
         12    1    1    2    0    0  0.22788831750E+02  0.12186192645E+02 -0.31389996182E+02  0.40659144163E+02  0.00000000000E+00 0. -1.
         11    1    3    3    0    0  0.24366495105E+01 -0.36148812847E+00 -0.20831375272E+01  0.32260497086E+01  0.51100000000E-03 0. -1.
        -11    1    3    3    0    0 -0.94314744250E+01 -0.57244590032E+01  0.27016343312E+02  0.29182271106E+02  0.51100000000E-03 0.  1.
        -12    1    3    3    0    0 -0.15794006836E+02 -0.61002455137E+01  0.64567903977E+01  0.18120535022E+02  0.00000000000E+00 0.  1.
</event>
<event>
 7    1  0.2991278E-011  0.5052885E+02  0.7816164E-02  0.1300439E+00
        -11   -1    0    0    0    0  0.00000000000E+00  0.00000000000E+00  0.45593999997E+02  0.45594000000E+02  0.51100000000E-03 0. -1.
         11   -1    0    0    0    0 -0.00000000000E+00 -0.00000000000E+00 -0.45593999997E+02  0.45594000000E+02  0.51100000000E-03 0.  1.
    9900012    2    1    2    0    0 -0.14392144111E+02  0.14596665081E+01 -0.37998707654E+02  0.50528853159E+02  0.29999979663E+02 0.  0.
         12    1    1    2    0    0  0.14392144111E+02 -0.14596665081E+01  0.37998707654E+02  0.40659146841E+02  0.00000000000E+00 0. -1.
         11    1    3    3    0    0 -0.22396223770E+01 -0.31536633206E+01  0.33160615782E+01  0.50948763855E+01  0.51100000000E-03 0. -1.
        -11    1    3    3    0    0 -0.51410092014E+00 -0.38804631063E+01 -0.14189580910E+02  0.14719595794E+02  0.51100000000E-03 0.  1.
         12    1    3    3    0    0 -0.11638420814E+02  0.84937929350E+01 -0.27125188322E+02  0.30714380980E+02  0.00000000000E+00 0. -1.
</event>
<event>
 7    1  0.2991278E-011  0.5052886E+02  0.7816164E-02  0.1300439E+00
        -11   -1    0    0    0    0  0.00000000000E+00  0.00000000000E+00  0.45593999997E+02  0.45594000000E+02  0.51100000000E-03 0.  1.
         11   -1    0    0    0    0 -0.00000000000E+00 -0.00000000000E+00 -0.45593999997E+02  0.45594000000E+02  0.51100000000E-03 0. -1.
    9900012    2    1    2    0    0  0.22426363261E+02 -0.91305210827E+01  0.32662781122E+02  0.50528862589E+02  0.30000008326E+02 0.  0.
         12    1    1    2    0    0 -0.22426363261E+02  0.91305210827E+01 -0.32662781122E+02  0.40659137411E+02  0.00000000000E+00 0. -1.
         11    1    3    3    0    0  0.16785493853E+02 -0.16947879403E+02  0.16717337388E+02  0.29128212951E+02  0.51100000000E-03 0. -1.
        -11    1    3    3    0    0  0.67686101425E+01  0.36889659025E+01  0.39439651591E+01  0.86589499437E+01  0.51100000000E-03 0.  1.
         12    1    3    3    0    0 -0.11277407339E+01  0.41283924175E+01  0.12001478575E+02  0.12741699694E+02  0.00000000000E+00 0. -1.
</event>
<event>
 7    1  0.2991278E-011  0.5052886E+02  0.7816164E-02  0.1300439E+00
        -11   -1    0    0    0    0  0.00000000000E+00  0.00000000000E+00  0.45593999997E+02  0.45594000000E+02  0.51100000000E-03 0.  1.
         11   -1    0    0    0    0 -0.00000000000E+00 -0.00000000000E+00 -0.45593999997E+02  0.45594000000E+02  0.51100000000E-03 0. -1.
    9900012    2    1    2    0    0 -0.31162016401E+01 -0.32674423007E+02  0.23996601064E+02  0.50528862108E+02  0.30000006864E+02 0.  0.
         12    1    1    2    0    0  0.31162016401E+01  0.32674423007E+02 -0.23996601064E+02  0.40659137892E+02  0.00000000000E+00 0. -1.
         11    1    3    3    0    0 -0.44867675335E+01 -0.11824848023E+02  0.22261855966E+02  0.25603678348E+02  0.51100000000E-03 0. -1.
        -11    1    3    3    0    0  0.33367863272E+01 -0.21721509116E+02  0.33568492902E+01  0.22231206415E+02  0.51100000000E-03 0.  1.
         12    1    3    3    0    0 -0.19662204338E+01  0.87193413132E+00 -0.16221041924E+01  0.26939773449E+01  0.00000000000E+00 0. -1.
</event>
<event>
 7    1  0.2991278E-011  0.5052886E+02  0.7816164E-02  0.1300439E+00
        -11   -1    0    0    0    0  0.00000000000E+00  0.00000000000E+00  0.45593999997E+02  0.45594000000E+02  0.51100000000E-03 0.  1.
         11   -1    0    0    0    0 -0.00000000000E+00 -0.00000000000E+00 -0.45593999997E+02  0.45594000000E+02  0.51100000000E-03 0. -1.
    9900012    2    1    2    0    0 -0.26577116980E+02 -0.26556659092E+02  0.15542397993E+02  0.50528862965E+02  0.30000009469E+02 0.  0.
         12    1    1    2    0    0  0.26577116980E+02  0.26556659092E+02 -0.15542397993E+02  0.40659137035E+02  0.00000000000E+00 0. -1.
         11    1    3    3    0    0  0.29888990556E+01 -0.74219002144E+01 -0.10697720230E+01  0.80723313113E+01  0.51100000000E-03 0. -1.
        -11    1    3    3    0    0 -0.16480101242E+02 -0.22209411359E+01  0.12191518001E+02  0.20619394461E+02  0.51100000000E-03 0.  1.
        -12    1    3    3    0    0 -0.13085914793E+02 -0.16913817742E+02  0.44206520143E+01  0.21837137193E+02  0.00000000000E+00 0.  1.
</event>
<event>
 7    1  0.2991278E-011  0.5052887E+02  0.7816164E-02  0.1300439E+00
        -11   -1    0    0    0    0  0.00000000000E+00  0.00000000000E+00  0.45593999997E+02  0.45594000000E+02  0.51100000000E-03 0. -1.
         11   -1    0    0    0    0 -0.00000000000E+00 -0.00000000000E+00 -0.45593999997E+02  0.45594000000E+02  0.51100000000E-03 0.  1.
    9900012    2    1    2    0    0 -0.27417398066E+02  0.29356346273E+02 -0.62973376787E+01  0.50528865171E+02  0.30000016173E+02 0.  0.
         12    1    1    2    0    0  0.27417398066E+02 -0.29356346273E+02  0.62973376787E+01  0.40659134829E+02  0.00000000000E+00 0. -1.
         11    1    3    3    0    0  0.18370805537E+01  0.17517051174E+02  0.20794037954E+01  0.17735440992E+02  0.51100000000E-03 0. -1.
        -11    1    3    3    0    0 -0.27496895380E+02  0.10309679496E+02 -0.75502654100E+01  0.30321201409E+02  0.51100000000E-03 0.  1.
        -12    1    3    3    0    0 -0.17575832390E+01  0.15296156034E+01 -0.82647606417E+00  0.24722227692E+01  0.00000000000E+00 0.  1.
</event>
<event>
 7    1  0.2991278E-011  0.5052880E+02  0.7816164E-02  0.1300439E+00
        -11   -1    0    0    0    0  0.00000000000E+00  0.00000000000E+00  0.45593999997E+02  0.45594000000E+02  0.51100000000E-03 0.  1.
         11   -1    0    0    0    0 -0.00000000000E+00 -0.00000000000E+00 -0.45593999997E+02  0.45594000000E+02  0.51100000000E-03 0. -1.
    9900012    2    1    2    0    0 -0.23111373810E+02 -0.31792652206E+02 -0.10404897932E+02  0.50528803812E+02  0.29999829668E+02 0.  0.
         12    1    1    2    0    0  0.23111373810E+02  0.31792652206E+02  0.10404897932E+02  0.40659196188E+02  0.00000000000E+00 0. -1.
         11    1    3    3    0    0 -0.63800131981E+01 -0.16876640843E+02 -0.14082133576E+02  0.22887377763E+02  0.51100000000E-03 0. -1.
        -11    1    3    3    0    0 -0.14187674156E+02 -0.17212539225E+02  0.64646199884E+01  0.23223972881E+02  0.51100000000E-03 0.  1.
         12    1    3    3    0    0 -0.25436864561E+01  0.22965278625E+01 -0.27873843450E+01  0.44174531687E+01  0.00000000000E+00 0. -1.
</event>
<event>
 7    1  0.2991278E-011  0.5052886E+02  0.7816164E-02  0.1300439E+00
        -11   -1    0    0    0    0  0.00000000000E+00  0.00000000000E+00  0.45593999997E+02  0.45594000000E+02  0.51100000000E-03 0.  1.
         11   -1    0    0    0    0 -0.00000000000E+00 -0.00000000000E+00 -0.45593999997E+02  0.45594000000E+02  0.51100000000E-03 0. -1.
    9900012    2    1    2    0    0  0.10630972950E+02  0.65202960761E+01  0.38699275790E+02  0.50528858427E+02  0.29999995674E+02 0.  0.
         12    1    1    2    0    0 -0.10630972950E+02 -0.65202960761E+01 -0.38699275790E+02  0.40659141573E+02  0.00000000000E+00 0. -1.
         11    1    3    3    0    0 -0.80684288809E+01 -0.32868420693E+01  0.10202749825E+02  0.13416369839E+02  0.51100000000E-03 0. -1.
        -11    1    3    3    0    0  0.13614196804E+02  0.10590335140E+02  0.15712975868E+02  0.23332363016E+02  0.51100000000E-03 0.  1.
        -12    1    3    3    0    0  0.50852050273E+01 -0.78319699498E+00  0.12783550097E+02  0.13780125573E+02  0.00000000000E+00 0.  1.
</event>
<event>
 7    1  0.2991278E-011  0.5052886E+02  0.7816164E-02  0.1300439E+00
        -11   -1    0    0    0    0  0.00000000000E+00  0.00000000000E+00  0.45593999997E+02  0.45594000000E+02  0.51100000000E-03 0.  1.
         11   -1    0    0    0    0 -0.00000000000E+00 -0.00000000000E+00 -0.45593999997E+02  0.45594000000E+02  0.51100000000E-03 0. -1.
    9900012    2    1    2    0    0 -0.38681478762E+02 -0.89701166637E+01 -0.87433293805E+01  0.50528860795E+02  0.30000002873E+02 0.  0.
         12    1    1    2    0    0  0.38681478762E+02  0.89701166637E+01  0.87433293805E+01  0.40659139205E+02  0.00000000000E+00 0. -1.
         11    1    3    3    0    0 -0.11417052813E+02  0.92218048908E+01 -0.74697764585E+00  0.14695195005E+02  0.51100000000E-03 0. -1.
        -11    1    3    3    0    0 -0.21259678163E+02 -0.87480999159E+01 -0.87947372326E+01  0.24614031994E+02  0.51100000000E-03 0.  1.
         12    1    3    3    0    0 -0.60047477864E+01 -0.94438216386E+01  0.79838549796E+00  0.11219633796E+02  0.00000000000E+00 0. -1.
</event>
<event>
 7    1  0.2991278E-011  0.5052882E+02  0.7816164E-02  0.1300439E+00
        -11   -1    0    0    0    0  0.00000000000E+00  0.00000000000E+00  0.45593999997E+02  0.45594000000E+02  0.51100000000E-03 0. -1.
         11   -1    0    0    0    0 -0.00000000000E+00 -0.00000000000E+00 -0.45593999997E+02  0.45594000000E+02  0.51100000000E-03 0.  1.
    9900012    2    1    2    0    0  0.24733921943E+02  0.16863837724E+02 -0.27513870343E+02  0.50528819257E+02  0.29999876613E+02 0.  0.
         12    1    1    2    0    0 -0.24733921943E+02 -0.16863837724E+02  0.27513870343E+02  0.40659180743E+02  0.00000000000E+00 0. -1.
         11    1    3    3    0    0  0.21587285289E+02  0.17571084641E+02 -0.75890978146E+01  0.28850447268E+02  0.51100000000E-03 0. -1.
        -11    1    3    3    0    0  0.11205238143E+01  0.34833141920E+01 -0.11300798518E+02  0.11878429979E+02  0.51100000000E-03 0.  1.
         12    1    3    3    0    0  0.20261128394E+01 -0.41905611100E+01 -0.86239740109E+01  0.97999420098E+01  0.00000000000E+00 0. -1.
</event>
<event>
 7    1  0.2991278E-011  0.5052886E+02  0.7816164E-02  0.1300439E+00
        -11   -1    0    0    0    0  0.00000000000E+00  0.00000000000E+00  0.45593999997E+02  0.45594000000E+02  0.51100000000E-03 0.  1.
         11   -1    0    0    0    0 -0.00000000000E+00 -0.00000000000E+00 -0.45593999997E+02  0.45594000000E+02  0.51100000000E-03 0. -1.
    9900012    2    1    2    0    0  0.18506846065E+02 -0.44343486320E+01  0.35930470116E+02  0.50528862260E+02  0.30000007325E+02 0.  0.
         12    1    1    2    0    0 -0.18506846065E+02  0.44343486320E+01 -0.35930470116E+02  0.40659137740E+02  0.00000000000E+00 0. -1.
         11    1    3    3    0    0 -0.48516736777E+00  0.41396785595E+01  0.59398833131E+01  0.72563448089E+01  0.51100000000E-03 0. -1.
        -11    1    3    3    0    0  0.16967032350E+02 -0.12774152897E+01  0.58826054340E+01  0.18003250360E+02  0.51100000000E-03 0.  1.
        -12    1    3    3    0    0  0.20249810826E+01 -0.72966119019E+01  0.24107981369E+02  0.25269267091E+02  0.00000000000E+00 0.  1.
</event>
<event>
 7    1  0.2991278E-011  0.5052890E+02  0.7816164E-02  0.1300439E+00
        -11   -1    0    0    0    0  0.00000000000E+00  0.00000000000E+00  0.45593999997E+02  0.45594000000E+02  0.51100000000E-03 0.  1.
         11   -1    0    0    0    0 -0.00000000000E+00 -0.00000000000E+00 -0.45593999997E+02  0.45594000000E+02  0.51100000000E-03 0. -1.
    9900012    2    1    2    0    0  0.34040515771E+02 -0.14529609457E+02 -0.16831407337E+02  0.50528898462E+02  0.30000117366E+02 0.  0.
         12    1    1    2    0    0 -0.34040515771E+02  0.14529609457E+02  0.16831407337E+02  0.40659101538E+02  0.00000000000E+00 0. -1.
         11    1    3    3    0    0 -0.38120582907E+01 -0.35608240515E+01 -0.61768928003E+01  0.80848785560E+01  0.51100000000E-03 0. -1.
        -11    1    3    3    0    0  0.37088487689E+02 -0.92873868910E+01 -0.12095748142E+02  0.40101354063E+02  0.51100000000E-03 0.  1.
        -12    1    3    3    0    0  0.76408637275E+00 -0.16813985145E+01  0.14412336051E+01  0.23426658434E+01  0.00000000000E+00 0.  1.
</event>
<event>
 7    1  0.2991278E-011  0.5052886E+02  0.7816164E-02  0.1300439E+00
        -11   -1    0    0    0    0  0.00000000000E+00  0.00000000000E+00  0.45593999997E+02  0.45594000000E+02  0.51100000000E-03 0.  1.
         11   -1    0    0    0    0 -0.00000000000E+00 -0.00000000000E+00 -0.45593999997E+02  0.45594000000E+02  0.51100000000E-03 0. -1.
    9900012    2    1    2    0    0 -0.76754796574E+01  0.10029869723E+02  0.38647829384E+02  0.50528856001E+02  0.29999988301E+02 0.  0.
         12    1    1    2    0    0  0.76754796574E+01 -0.10029869723E+02 -0.38647829384E+02  0.40659143999E+02  0.00000000000E+00 0. -1.
         11    1    3    3    0    0 -0.15009180577E+02  0.71443604586E+01  0.96882937609E+01  0.19240073394E+02  0.51100000000E-03 0. -1.
        -11    1    3    3    0    0  0.41370215205E+01 -0.18698032450E+01  0.20977035626E+02  0.21462691704E+02  0.51100000000E-03 0.  1.
        -12    1    3    3    0    0  0.31966793991E+01  0.47553125093E+01  0.79824999966E+01  0.98260909032E+01  0.00000000000E+00 0.  1.
</event>
<event>
 7    1  0.2991278E-011  0.5052886E+02  0.7816164E-02  0.1300439E+00
        -11   -1    0    0    0    0  0.00000000000E+00  0.00000000000E+00  0.45593999997E+02  0.45594000000E+02  0.51100000000E-03 0.  1.
         11   -1    0    0    0    0 -0.00000000000E+00 -0.00000000000E+00 -0.45593999997E+02  0.45594000000E+02  0.51100000000E-03 0. -1.
    9900012    2    1    2    0    0  0.89204655176E+01  0.28186407896E+02  0.27912679395E+02  0.50528856304E+02  0.29999989221E+02 0.  0.
         12    1    1    2    0    0 -0.89204655176E+01 -0.28186407896E+02 -0.27912679395E+02  0.40659143696E+02  0.00000000000E+00 0. -1.
         11    1    3    3    0    0  0.51755848925E+01 -0.39057900503E+01 -0.83189232560E+00  0.65371186313E+01  0.51100000000E-03 0. -1.
        -11    1    3    3    0    0  0.37608919031E+00  0.27635857532E+02  0.22745764001E+02  0.35794578429E+02  0.51100000000E-03 0.  1.
        -12    1    3    3    0    0  0.33687914348E+01  0.44563404139E+01  0.59988077193E+01  0.81971592438E+01  0.00000000000E+00 0.  1.
</event>
<event>
 7    1  0.2991278E-011  0.5052885E+02  0.7816164E-02  0.1300439E+00
        -11   -1    0    0    0    0  0.00000000000E+00  0.00000000000E+00  0.45593999997E+02  0.45594000000E+02  0.51100000000E-03 0.  1.
         11   -1    0    0    0    0 -0.00000000000E+00 -0.00000000000E+00 -0.45593999997E+02  0.45594000000E+02  0.51100000000E-03 0. -1.
    9900012    2    1    2    0    0 -0.81908413035E+00 -0.14766548421E+02  0.37874059850E+02  0.50528852683E+02  0.29999978214E+02 0.  0.
         12    1    1    2    0    0  0.81908413035E+00  0.14766548421E+02 -0.37874059850E+02  0.40659147317E+02  0.00000000000E+00 0. -1.
         11    1    3    3    0    0 -0.32280213908E+00 -0.11131477878E+02 -0.11394717324E+00  0.11136740330E+02  0.51100000000E-03 0. -1.
        -11    1    3    3    0    0  0.45670677951E+01 -0.10480223848E+01  0.15228829756E+02  0.15933415050E+02  0.51100000000E-03 0.  1.
         12    1    3    3    0    0 -0.50633497863E+01 -0.25870481581E+01  0.22759177267E+02  0.23458697302E+02  0.00000000000E+00 0. -1.
</event>
<event>
 7    1  0.2991278E-011  0.5052886E+02  0.7816164E-02  0.1300439E+00
        -11   -1    0    0    0    0  0.00000000000E+00  0.00000000000E+00  0.45593999997E+02  0.45594000000E+02  0.51100000000E-03 0. -1.
         11   -1    0    0    0    0 -0.00000000000E+00 -0.00000000000E+00 -0.45593999997E+02  0.45594000000E+02  0.51100000000E-03 0.  1.
    9900012    2    1    2    0    0 -0.21728657876E+02 -0.31943383108E+02 -0.12674841628E+02  0.50528857021E+02  0.29999991401E+02 0.  0.
         12    1    1    2    0    0  0.21728657876E+02  0.31943383108E+02  0.12674841628E+02  0.40659142979E+02  0.00000000000E+00 0. -1.
         11    1    3    3    0    0 -0.14899371553E+02 -0.26028542063E+02  0.51148170104E+01  0.30424293384E+02  0.51100000000E-03 0. -1.
        -11    1    3    3    0    0 -0.35090878782E+01 -0.27751293837E+01 -0.61918329850E+01  0.76389683078E+01  0.51100000000E-03 0.  1.
         12    1    3    3    0    0 -0.33201984441E+01 -0.31397116619E+01 -0.11597825653E+02  0.12465595329E+02  0.00000000000E+00 0. -1.
</event>
<event>
 7    1  0.2991278E-011  0.5052886E+02  0.7816164E-02  0.1300439E+00
        -11   -1    0    0    0    0  0.00000000000E+00  0.00000000000E+00  0.45593999997E+02  0.45594000000E+02  0.51100000000E-03 0. -1.
         11   -1    0    0    0    0 -0.00000000000E+00 -0.00000000000E+00 -0.45593999997E+02  0.45594000000E+02  0.51100000000E-03 0.  1.
    9900012    2    1    2    0    0 -0.16337465553E+02 -0.12948321987E+02 -0.34908358157E+02  0.50528864591E+02  0.30000014412E+02 0.  0.
         12    1    1    2    0    0  0.16337465553E+02  0.12948321987E+02  0.34908358157E+02  0.40659135409E+02  0.00000000000E+00 0. -1.
         11    1    3    3    0    0 -0.43935478221E+01 -0.63095603948E+01 -0.29637850335E+02  0.30618882859E+02  0.51100000000E-03 0. -1.
        -11    1    3    3    0    0 -0.27324164234E+01 -0.81991202589E+01  0.93694964871E+00  0.86930746826E+01  0.51100000000E-03 0.  1.
         12    1    3    3    0    0 -0.92115013073E+01  0.15603586663E+01 -0.62074574710E+01  0.11216907049E+02  0.00000000000E+00 0. -1.
</event>
<event>
 7    1  0.2991278E-011  0.5052885E+02  0.7816164E-02  0.1300439E+00
        -11   -1    0    0    0    0  0.00000000000E+00  0.00000000000E+00  0.45593999997E+02  0.45594000000E+02  0.51100000000E-03 0.  1.
         11   -1    0    0    0    0 -0.00000000000E+00 -0.00000000000E+00 -0.45593999997E+02  0.45594000000E+02  0.51100000000E-03 0. -1.
    9900012    2    1    2    0    0 -0.15845846886E+01 -0.14123639775E+02  0.38094333303E+02  0.50528851719E+02  0.29999975284E+02 0.  0.
         12    1    1    2    0    0  0.15845846886E+01  0.14123639775E+02 -0.38094333303E+02  0.40659148281E+02  0.00000000000E+00 0. -1.
         11    1    3    3    0    0 -0.61724758206E+01  0.33605908222E+01  0.19521846500E+02  0.20748385949E+02  0.51100000000E-03 0.  1.
        -11    1    3    3    0    0 -0.51388274910E+01 -0.90352192174E+01  0.84509455290E+01  0.13396313481E+02  0.51100000000E-03 0. -1.
         12    1    3    3    0    0  0.97267186230E+01 -0.84490113802E+01  0.10121541274E+02  0.16384152289E+02  0.00000000000E+00 0. -1.
</event>
<event>
 7    1  0.2991278E-011  0.5052879E+02  0.7816164E-02  0.1300439E+00
        -11   -1    0    0    0    0  0.00000000000E+00  0.00000000000E+00  0.45593999997E+02  0.45594000000E+02  0.51100000000E-03 0. -1.
         11   -1    0    0    0    0 -0.00000000000E+00 -0.00000000000E+00 -0.45593999997E+02  0.45594000000E+02  0.51100000000E-03 0.  1.
    9900012    2    1    2    0    0 -0.31051171772E+02 -0.67721897552E+01 -0.25360071081E+02  0.50528794059E+02  0.29999800020E+02 0.  0.
         12    1    1    2    0    0  0.31051171772E+02  0.67721897552E+01  0.25360071081E+02  0.40659205941E+02  0.00000000000E+00 0. -1.
         11    1    3    3    0    0  0.12492993755E+01  0.18995542232E+01  0.17359278225E+01  0.28605070953E+01  0.51100000000E-03 0. -1.
        -11    1    3    3    0    0 -0.49205055875E+01 -0.71404988261E+01 -0.15773456887E+02  0.18000001143E+02  0.51100000000E-03 0.  1.
         12    1    3    3    0    0 -0.27379965560E+02 -0.15312451522E+01 -0.11322542017E+02  0.29668285821E+02  0.00000000000E+00 0. -1.
</event>
<event>
 7    1  0.2991278E-011  0.5052885E+02  0.7816164E-02  0.1300439E+00
        -11   -1    0    0    0    0  0.00000000000E+00  0.00000000000E+00  0.45593999997E+02  0.45594000000E+02  0.51100000000E-03 0.  1.
         11   -1    0    0    0    0 -0.00000000000E+00 -0.00000000000E+00 -0.45593999997E+02  0.45594000000E+02  0.51100000000E-03 0. -1.
    9900012    2    1    2    0    0  0.30024740129E+02 -0.22945158815E+02  0.15006693042E+02  0.50528853809E+02  0.29999981639E+02 0.  0.
         12    1    1    2    0    0 -0.30024740129E+02  0.22945158815E+02 -0.15006693042E+02  0.40659146191E+02  0.00000000000E+00 0. -1.
         11    1    3    3    0    0  0.64368441026E+01  0.33288682572E+01  0.78290779396E+01  0.10668120149E+02  0.51100000000E-03 0. -1.
        -11    1    3    3    0    0  0.21918851149E+02 -0.28735426372E+02  0.73544953181E+01  0.36881558618E+02  0.51100000000E-03 0.  1.
        -12    1    3    3    0    0  0.16690448783E+01  0.24613992997E+01 -0.17688021607E+00  0.29791750417E+01  0.00000000000E+00 0.  1.
</event>
<event>
 7    1  0.2991278E-011  0.5052887E+02  0.7816164E-02  0.1300439E+00
        -11   -1    0    0    0    0  0.00000000000E+00  0.00000000000E+00  0.45593999997E+02  0.45594000000E+02  0.51100000000E-03 0. -1.
         11   -1    0    0    0    0 -0.00000000000E+00 -0.00000000000E+00 -0.45593999997E+02  0.45594000000E+02  0.51100000000E-03 0.  1.
    9900012    2    1    2    0    0  0.92691660512E+01  0.16712275994E+02 -0.35887986572E+02  0.50528865868E+02  0.30000018292E+02 0.  0.
         12    1    1    2    0    0 -0.92691660512E+01 -0.16712275994E+02  0.35887986572E+02  0.40659134132E+02  0.00000000000E+00 0. -1.
         11    1    3    3    0    0 -0.90822460229E+01  0.98764788347E+01 -0.15874710345E+02  0.20785534773E+02  0.51100000000E-03 0. -1.
        -11    1    3    3    0    0  0.65893604919E+01  0.55356261334E+01 -0.14089149770E+02  0.16509602353E+02  0.51100000000E-03 0.  1.
         12    1    3    3    0    0  0.11762051582E+02  0.13001710263E+01 -0.59241264574E+01  0.13233728741E+02  0.00000000000E+00 0. -1.
</event>
<event>
 7    1  0.2991278E-011  0.5052886E+02  0.7816164E-02  0.1300439E+00
        -11   -1    0    0    0    0  0.00000000000E+00  0.00000000000E+00  0.45593999997E+02  0.45594000000E+02  0.51100000000E-03 0.  1.
         11   -1    0    0    0    0 -0.00000000000E+00 -0.00000000000E+00 -0.45593999997E+02  0.45594000000E+02  0.51100000000E-03 0. -1.
    9900012    2    1    2    0    0  0.14490138592E+00  0.29719982913E+02  0.27746486340E+02  0.50528857302E+02  0.29999992255E+02 0.  0.
         12    1    1    2    0    0 -0.14490138592E+00 -0.29719982913E+02 -0.27746486340E+02  0.40659142698E+02  0.00000000000E+00 0. -1.
         11    1    3    3    0    0 -0.12720773857E+02  0.12526672369E+02  0.12437896911E+02  0.21758604918E+02  0.51100000000E-03 0. -1.
        -11    1    3    3    0    0 -0.18901102446E+01  0.12255856351E+01  0.13397235854E+00  0.22566625224E+01  0.51100000000E-03 0.  1.
         12    1    3    3    0    0  0.14755785487E+02  0.15967724908E+02  0.15174617070E+02  0.26513589861E+02  0.00000000000E+00 0. -1.
</event>
<event>
 7    1  0.2991278E-011  0.5052884E+02  0.7816164E-02  0.1300439E+00
        -11   -1    0    0    0    0  0.00000000000E+00  0.00000000000E+00  0.45593999997E+02  0.45594000000E+02  0.51100000000E-03 0.  1.
         11   -1    0    0    0    0 -0.00000000000E+00 -0.00000000000E+00 -0.45593999997E+02  0.45594000000E+02  0.51100000000E-03 0. -1.
    9900012    2    1    2    0    0 -0.27694824467E+02 -0.23886014996E+02  0.17765759055E+02  0.50528841014E+02  0.29999942746E+02 0.  0.
         12    1    1    2    0    0  0.27694824467E+02  0.23886014996E+02 -0.17765759055E+02  0.40659158986E+02  0.00000000000E+00 0. -1.
         11    1    3    3    0    0  0.95911274352E+00 -0.70118924998E+01  0.99194951058E+01  0.12185356667E+02  0.51100000000E-03 0. -1.
        -11    1    3    3    0    0 -0.16825778167E+02  0.15533447711E-01  0.48237200017E+01  0.17503580408E+02  0.51100000000E-03 0.  1.
         12    1    3    3    0    0 -0.11828159044E+02 -0.16889655944E+02  0.30225439479E+01  0.20839903939E+02  0.00000000000E+00 0. -1.
</event>
<event>
 7    1  0.2991278E-011  0.5052886E+02  0.7816164E-02  0.1300439E+00
        -11   -1    0    0    0    0  0.00000000000E+00  0.00000000000E+00  0.45593999997E+02  0.45594000000E+02  0.51100000000E-03 0.  1.
         11   -1    0    0    0    0 -0.00000000000E+00 -0.00000000000E+00 -0.45593999997E+02  0.45594000000E+02  0.51100000000E-03 0. -1.
    9900012    2    1    2    0    0 -0.29346512532E+02  0.89612138073E+01  0.26676666506E+02  0.50528859742E+02  0.29999999671E+02 0.  0.
         12    1    1    2    0    0  0.29346512532E+02 -0.89612138073E+01 -0.26676666506E+02  0.40659140258E+02  0.00000000000E+00 0. -1.
         11    1    3    3    0    0 -0.24201160476E+01  0.89801180067E+01 -0.18538594038E+01  0.94834738386E+01  0.51100000000E-03 0. -1.
        -11    1    3    3    0    0 -0.13861855496E+02  0.44491979067E+01  0.89610847077E+01  0.17095246099E+02  0.51100000000E-03 0.  1.
         12    1    3    3    0    0 -0.13064540989E+02 -0.44681021061E+01  0.19569441202E+02  0.23950139804E+02  0.00000000000E+00 0. -1.
</event>
<event>
 7    1  0.2991278E-011  0.5052886E+02  0.7816164E-02  0.1300439E+00
        -11   -1    0    0    0    0  0.00000000000E+00  0.00000000000E+00  0.45593999997E+02  0.45594000000E+02  0.51100000000E-03 0.  1.
         11   -1    0    0    0    0 -0.00000000000E+00 -0.00000000000E+00 -0.45593999997E+02  0.45594000000E+02  0.51100000000E-03 0. -1.
    9900012    2    1    2    0    0 -0.36757440335E+02  0.95415096517E+01  0.14526394363E+02  0.50528856384E+02  0.29999989464E+02 0.  0.
         12    1    1    2    0    0  0.36757440335E+02 -0.95415096517E+01 -0.14526394363E+02  0.40659143616E+02  0.00000000000E+00 0. -1.
         11    1    3    3    0    0 -0.52548517644E+01  0.13678670260E+02  0.85950764022E+01  0.16988078931E+02  0.51100000000E-03 0. -1.
        -11    1    3    3    0    0 -0.30126570189E+02 -0.47568024930E+01  0.74534912407E+01  0.31397323664E+02  0.51100000000E-03 0.  1.
        -12    1    3    3    0    0 -0.13760183810E+01  0.61964188461E+00 -0.15221732798E+01  0.21434537886E+01  0.00000000000E+00 0.  1.
</event>
<event>
 7    1  0.2991278E-011  0.5052886E+02  0.7816164E-02  0.1300439E+00
        -11   -1    0    0    0    0  0.00000000000E+00  0.00000000000E+00  0.45593999997E+02  0.45594000000E+02  0.51100000000E-03 0. -1.
         11   -1    0    0    0    0 -0.00000000000E+00 -0.00000000000E+00 -0.45593999997E+02  0.45594000000E+02  0.51100000000E-03 0.  1.
    9900012    2    1    2    0    0 -0.60169653894E+01 -0.26524892891E+02 -0.30222375796E+02  0.50528858173E+02  0.29999994901E+02 0.  0.
         12    1    1    2    0    0  0.60169653894E+01  0.26524892891E+02  0.30222375796E+02  0.40659141827E+02  0.00000000000E+00 0. -1.
         11    1    3    3    0    0  0.29687445171E+01 -0.30458675129E+01  0.15850594835E+01  0.45390711320E+01  0.51100000000E-03 0. -1.
        -11    1    3    3    0    0 -0.12129092620E+02 -0.59764955877E+01 -0.21607597947E+02  0.25489638613E+02  0.51100000000E-03 0.  1.
        -12    1    3    3    0    0  0.31433827138E+01 -0.17502529790E+02 -0.10199837333E+02  0.20500148428E+02  0.00000000000E+00 0.  1.
</event>
<event>
 7    1  0.2991278E-011  0.5052886E+02  0.7816164E-02  0.1300439E+00
        -11   -1    0    0    0    0  0.00000000000E+00  0.00000000000E+00  0.45593999997E+02  0.45594000000E+02  0.51100000000E-03 0.  1.
         11   -1    0    0    0    0 -0.00000000000E+00 -0.00000000000E+00 -0.45593999997E+02  0.45594000000E+02  0.51100000000E-03 0. -1.
    9900012    2    1    2    0    0 -0.31880122083E+02  0.17526676054E+02  0.18155963645E+02  0.50528861133E+02  0.30000003899E+02 0.  0.
         12    1    1    2    0    0  0.31880122083E+02 -0.17526676054E+02 -0.18155963645E+02  0.40659138867E+02  0.00000000000E+00 0. -1.
         11    1    3    3    0    0 -0.18305482290E+02  0.15693950103E+02 -0.89713264840E+00  0.24128729741E+02  0.51100000000E-03 0. -1.
        -11    1    3    3    0    0 -0.15707101457E+02  0.41379024893E+00  0.16334284213E+02  0.22664798688E+02  0.51100000000E-03 0.  1.
        -12    1    3    3    0    0  0.21324616638E+01  0.14189357027E+01  0.27188120802E+01  0.37353327032E+01  0.00000000000E+00 0.  1.
</event>
<event>
 7    1  0.2991278E-011  0.5052884E+02  0.7816164E-02  0.1300439E+00
        -11   -1    0    0    0    0  0.00000000000E+00  0.00000000000E+00  0.45593999997E+02  0.45594000000E+02  0.51100000000E-03 0.  1.
         11   -1    0    0    0    0 -0.00000000000E+00 -0.00000000000E+00 -0.45593999997E+02  0.45594000000E+02  0.51100000000E-03 0. -1.
    9900012    2    1    2    0    0 -0.34218655233E+02 -0.19029486865E+02  0.10960346607E+02  0.50528844401E+02  0.29999953042E+02 0.  0.
         12    1    1    2    0    0  0.34218655233E+02  0.19029486865E+02 -0.10960346607E+02  0.40659155599E+02  0.00000000000E+00 0. -1.
         11    1    3    3    0    0 -0.68504531844E+01 -0.14184432856E+02  0.77462834083E+01  0.17553681984E+02  0.51100000000E-03 0. -1.
        -11    1    3    3    0    0 -0.29651917397E+02 -0.56330980741E+01  0.19414813204E+01  0.30244625129E+02  0.51100000000E-03 0.  1.
        -12    1    3    3    0    0  0.22837153488E+01  0.78804406571E+00  0.12725818781E+01  0.27305372878E+01  0.00000000000E+00 0.  1.
</event>
<event>
 7    1  0.2991278E-011  0.5052886E+02  0.7816164E-02  0.1300439E+00
        -11   -1    0    0    0    0  0.00000000000E+00  0.00000000000E+00  0.45593999997E+02  0.45594000000E+02  0.51100000000E-03 0.  1.
         11   -1    0    0    0    0 -0.00000000000E+00 -0.00000000000E+00 -0.45593999997E+02  0.45594000000E+02  0.51100000000E-03 0. -1.
    9900012    2    1    2    0    0 -0.29421789558E+02  0.22925690404E+02  0.16184458703E+02  0.50528859763E+02  0.29999999736E+02 0.  0.
         12    1    1    2    0    0  0.29421789558E+02 -0.22925690404E+02 -0.16184458703E+02  0.40659140237E+02  0.00000000000E+00 0. -1.
         11    1    3    3    0    0 -0.11911130244E+02 -0.36243277768E+01  0.79229597648E+01  0.14757508842E+02  0.51100000000E-03 0. -1.
        -11    1    3    3    0    0 -0.19553230123E+02  0.25391551846E+02  0.90384268463E+01  0.33297940980E+02  0.51100000000E-03 0.  1.
        -12    1    3    3    0    0  0.20425708096E+01  0.11584663352E+01 -0.77692790856E+00  0.24734099412E+01  0.00000000000E+00 0.  1.
</event>
<event>
 7    1  0.2991278E-011  0.5052887E+02  0.7816164E-02  0.1300439E+00
        -11   -1    0    0    0    0  0.00000000000E+00  0.00000000000E+00  0.45593999997E+02  0.45594000000E+02  0.51100000000E-03 0. -1.
         11   -1    0    0    0    0 -0.00000000000E+00 -0.00000000000E+00 -0.45593999997E+02  0.45594000000E+02  0.51100000000E-03 0.  1.
    9900012    2    1    2    0    0  0.31739107197E+01 -0.37580661259E+02 -0.15191611716E+02  0.50528869704E+02  0.30000029952E+02 0.  0.
         12    1    1    2    0    0 -0.31739107197E+01  0.37580661259E+02  0.15191611716E+02  0.40659130296E+02  0.00000000000E+00 0. -1.
         11    1    3    3    0    0  0.14249235502E+02 -0.12992016919E+02 -0.66706059985E+01  0.20404171159E+02  0.51100000000E-03 0. -1.
        -11    1    3    3    0    0 -0.82505496696E+01 -0.69507784399E+01 -0.13336550210E+01  0.10870304814E+02  0.51100000000E-03 0.  1.
         12    1    3    3    0    0 -0.28247751127E+01 -0.17637865899E+02 -0.71873506969E+01  0.19254393731E+02  0.00000000000E+00 0. -1.
</event>
<event>
 7    1  0.2991278E-011  0.5052885E+02  0.7816164E-02  0.1300439E+00
        -11   -1    0    0    0    0  0.00000000000E+00  0.00000000000E+00  0.45593999997E+02  0.45594000000E+02  0.51100000000E-03 0.  1.
         11   -1    0    0    0    0 -0.00000000000E+00 -0.00000000000E+00 -0.45593999997E+02  0.45594000000E+02  0.51100000000E-03 0. -1.
    9900012    2    1    2    0    0  0.14490029444E+02 -0.18274466900E+02  0.33305392797E+02  0.50528852405E+02  0.29999977370E+02 0.  0.
         12    1    1    2    0    0 -0.14490029444E+02  0.18274466900E+02 -0.33305392797E+02  0.40659147595E+02  0.00000000000E+00 0. -1.
         11    1    3    3    0    0  0.19526649982E+01 -0.24471674598E+01 -0.77679539480E+00  0.32256690032E+01  0.51100000000E-03 0. -1.
        -11    1    3    3    0    0  0.18175086413E+02 -0.15022413377E+02  0.34277751294E+02  0.41604938455E+02  0.51100000000E-03 0.  1.
        -12    1    3    3    0    0 -0.56377219669E+01 -0.80488606311E+00 -0.19556310209E+00  0.56982449471E+01  0.00000000000E+00 0.  1.
</event>
<event>
 7    1  0.2991278E-011  0.5052886E+02  0.7816164E-02  0.1300439E+00
        -11   -1    0    0    0    0  0.00000000000E+00  0.00000000000E+00  0.45593999997E+02  0.45594000000E+02  0.51100000000E-03 0.  1.
         11   -1    0    0    0    0 -0.00000000000E+00 -0.00000000000E+00 -0.45593999997E+02  0.45594000000E+02  0.51100000000E-03 0. -1.
    9900012    2    1    2    0    0 -0.18824147410E+02  0.28879473122E+02  0.21559070885E+02  0.50528855506E+02  0.29999986797E+02 0.  0.
         12    1    1    2    0    0  0.18824147410E+02 -0.28879473122E+02 -0.21559070885E+02  0.40659144494E+02  0.00000000000E+00 0. -1.
         11    1    3    3    0    0 -0.11714164749E+02  0.42292577377E+01 -0.34705008228E+01  0.12928752956E+02  0.51100000000E-03 0. -1.
        -11    1    3    3    0    0 -0.88185250797E+01  0.22881392674E+02  0.25165309287E+02  0.35137121496E+02  0.51100000000E-03 0.  1.
        -12    1    3    3    0    0  0.17085424189E+01  0.17688227109E+01 -0.13573757929E+00  0.24629810536E+01  0.00000000000E+00 0.  1.
</event>
<event>
 7    1  0.2991278E-011  0.5052888E+02  0.7816164E-02  0.1300439E+00
        -11   -1    0    0    0    0  0.00000000000E+00  0.00000000000E+00  0.45593999997E+02  0.45594000000E+02  0.51100000000E-03 0.  1.
         11   -1    0    0    0    0 -0.00000000000E+00 -0.00000000000E+00 -0.45593999997E+02  0.45594000000E+02  0.51100000000E-03 0. -1.
    9900012    2    1    2    0    0 -0.22728547130E+02  0.12239412044E+02  0.31412954376E+02  0.50528883379E+02  0.30000071518E+02 0.  0.
         12    1    1    2    0    0  0.22728547130E+02 -0.12239412044E+02 -0.31412954376E+02  0.40659116621E+02  0.00000000000E+00 0. -1.
         11    1    3    3    0    0  0.25586836486E+01  0.90899686774E+01  0.96157155154E+01  0.13477254086E+02  0.51100000000E-03 0. -1.
        -11    1    3    3    0    0 -0.23731122689E+02  0.15172449655E+01  0.24080217507E+02  0.33842651962E+02  0.51100000000E-03 0.  1.
        -12    1    3    3    0    0 -0.15561080893E+01  0.16321984015E+01 -0.22829786468E+01  0.32089773307E+01  0.00000000000E+00 0.  1.
</event>
<event>
 7    1  0.2991278E-011  0.5052886E+02  0.7816164E-02  0.1300439E+00
        -11   -1    0    0    0    0  0.00000000000E+00  0.00000000000E+00  0.45593999997E+02  0.45594000000E+02  0.51100000000E-03 0. -1.
         11   -1    0    0    0    0 -0.00000000000E+00 -0.00000000000E+00 -0.45593999997E+02  0.45594000000E+02  0.51100000000E-03 0.  1.
    9900012    2    1    2    0    0 -0.96528791100E+01 -0.39458330854E+02  0.17399812443E+01  0.50528862237E+02  0.30000007256E+02 0.  0.
         12    1    1    2    0    0  0.96528791100E+01  0.39458330854E+02 -0.17399812443E+01  0.40659137763E+02  0.00000000000E+00 0. -1.
         11    1    3    3    0    0  0.66417263062E+01 -0.19973915329E+02  0.68870235963E+01  0.22147255274E+02  0.51100000000E-03 0. -1.
        -11    1    3    3    0    0 -0.14367763335E+02 -0.13243617137E+02  0.78815030608E+00  0.19556257293E+02  0.51100000000E-03 0.  1.
         12    1    3    3    0    0 -0.19268420808E+01 -0.62407983878E+01 -0.59351926581E+01  0.88253496707E+01  0.00000000000E+00 0. -1.
</event>
<event>
 7    1  0.2991278E-011  0.5052887E+02  0.7816164E-02  0.1300439E+00
        -11   -1    0    0    0    0  0.00000000000E+00  0.00000000000E+00  0.45593999997E+02  0.45594000000E+02  0.51100000000E-03 0.  1.
         11   -1    0    0    0    0 -0.00000000000E+00 -0.00000000000E+00 -0.45593999997E+02  0.45594000000E+02  0.51100000000E-03 0. -1.
    9900012    2    1    2    0    0  0.28462288526E+00  0.37314914275E+02  0.16145624673E+02  0.50528867771E+02  0.30000024077E+02 0.  0.
         12    1    1    2    0    0 -0.28462288526E+00 -0.37314914275E+02 -0.16145624673E+02  0.40659132229E+02  0.00000000000E+00 0. -1.
         11    1    3    3    0    0 -0.48814308873E+01 -0.18021717064E+01  0.77565587697E+01  0.93402566655E+01  0.51100000000E-03 0. -1.
        -11    1    3    3    0    0  0.64037270975E+01  0.30221463926E+02  0.38683550587E+01  0.31133724057E+02  0.51100000000E-03 0.  1.
         12    1    3    3    0    0 -0.12376733250E+01  0.88956220553E+01  0.45207108448E+01  0.10054887048E+02  0.00000000000E+00 0. -1.
</event>
<event>
 7    1  0.2991278E-011  0.5052886E+02  0.7816164E-02  0.1300439E+00
        -11   -1    0    0    0    0  0.00000000000E+00  0.00000000000E+00  0.45593999997E+02  0.45594000000E+02  0.51100000000E-03 0.  1.
         11   -1    0    0    0    0 -0.00000000000E+00 -0.00000000000E+00 -0.45593999997E+02  0.45594000000E+02  0.51100000000E-03 0. -1.
    9900012    2    1    2    0    0 -0.35696818085E+02 -0.18251853262E+02  0.67655638821E+01  0.50528858057E+02  0.29999994549E+02 0.  0.
         12    1    1    2    0    0  0.35696818085E+02  0.18251853262E+02 -0.67655638821E+01  0.40659141943E+02  0.00000000000E+00 0. -1.
         11    1    3    3    0    0 -0.33230485109E+02 -0.22047023257E+02  0.13150085950E+01  0.39900697023E+02  0.51100000000E-03 0.  1.
        -11    1    3    3    0    0  0.16366478037E+01  0.13720140670E+01  0.54602547386E+01  0.58630555775E+01  0.51100000000E-03 0. -1.
        -12    1    3    3    0    0 -0.41029807805E+01  0.24231559272E+01 -0.96994514761E-02  0.47651054566E+01  0.00000000000E+00 0.  1.
</event>
<event>
 7    1  0.2991278E-011  0.5052886E+02  0.7816164E-02  0.1300439E+00
        -11   -1    0    0    0    0  0.00000000000E+00  0.00000000000E+00  0.45593999997E+02  0.45594000000E+02  0.51100000000E-03 0.  1.
         11   -1    0    0    0    0 -0.00000000000E+00 -0.00000000000E+00 -0.45593999997E+02  0.45594000000E+02  0.51100000000E-03 0. -1.
    9900012    2    1    2    0    0 -0.28076273804E+02  0.28714165870E+02  0.63549570156E+01  0.50528856490E+02  0.29999989787E+02 0.  0.
         12    1    1    2    0    0  0.28076273804E+02 -0.28714165870E+02 -0.63549570156E+01  0.40659143510E+02  0.00000000000E+00 0. -1.
         11    1    3    3    0    0 -0.12821310797E+02  0.98902284944E+00 -0.55764434287E+01  0.14016450989E+02  0.51100000000E-03 0. -1.
        -11    1    3    3    0    0 -0.62316979417E+01  0.98906617921E+01  0.11677760462E+02  0.16523599475E+02  0.51100000000E-03 0.  1.
         12    1    3    3    0    0 -0.90232650648E+01  0.17834481228E+02  0.25363998226E+00  0.19988806026E+02  0.00000000000E+00 0. -1.
</event>
<event>
 7    1  0.2991278E-011  0.5052886E+02  0.7816164E-02  0.1300439E+00
        -11   -1    0    0    0    0  0.00000000000E+00  0.00000000000E+00  0.45593999997E+02  0.45594000000E+02  0.51100000000E-03 0.  1.
         11   -1    0    0    0    0 -0.00000000000E+00 -0.00000000000E+00 -0.45593999997E+02  0.45594000000E+02  0.51100000000E-03 0. -1.
    9900012    2    1    2    0    0  0.16038091899E+02  0.32730547469E+02  0.18018229804E+02  0.50528859150E+02  0.29999997873E+02 0.  0.
         12    1    1    2    0    0 -0.16038091899E+02 -0.32730547469E+02 -0.18018229804E+02  0.40659140850E+02  0.00000000000E+00 0. -1.
         11    1    3    3    0    0  0.18422471736E+02  0.12089979797E+02  0.90816349502E+00  0.22054020893E+02  0.51100000000E-03 0. -1.
        -11    1    3    3    0    0  0.38596365425E+00  0.14980702719E+02  0.69490781159E+01  0.16518477800E+02  0.51100000000E-03 0.  1.
         12    1    3    3    0    0 -0.27703434910E+01  0.56598649532E+01  0.10160988193E+02  0.11956360458E+02  0.00000000000E+00 0. -1.
</event>
<event>
 7    1  0.2991278E-011  0.5052886E+02  0.7816164E-02  0.1300439E+00
        -11   -1    0    0    0    0  0.00000000000E+00  0.00000000000E+00  0.45593999997E+02  0.45594000000E+02  0.51100000000E-03 0.  1.
         11   -1    0    0    0    0 -0.00000000000E+00 -0.00000000000E+00 -0.45593999997E+02  0.45594000000E+02  0.51100000000E-03 0. -1.
    9900012    2    1    2    0    0  0.24812061433E+02  0.30677899148E+02 -0.98180222110E+01  0.50528862665E+02  0.30000008555E+02 0.  0.
         12    1    1    2    0    0 -0.24812061433E+02 -0.30677899148E+02  0.98180222110E+01  0.40659137335E+02  0.00000000000E+00 0. -1.
         11    1    3    3    0    0 -0.56090279430E+01  0.29993076105E+01 -0.41512111300E+01  0.75953666610E+01  0.51100000000E-03 0. -1.
        -11    1    3    3    0    0  0.12717132768E+02  0.12506651807E+02  0.29455343090E+01  0.18078107697E+02  0.51100000000E-03 0.  1.
         12    1    3    3    0    0  0.17703956608E+02  0.15171939730E+02 -0.86123453900E+01  0.24855388307E+02  0.00000000000E+00 0. -1.
</event>
<event>
 7    1  0.2991278E-011  0.5052884E+02  0.7816164E-02  0.1300439E+00
        -11   -1    0    0    0    0  0.00000000000E+00  0.00000000000E+00  0.45593999997E+02  0.45594000000E+02  0.51100000000E-03 0.  1.
         11   -1    0    0    0    0 -0.00000000000E+00 -0.00000000000E+00 -0.45593999997E+02  0.45594000000E+02  0.51100000000E-03 0. -1.
    9900012    2    1    2    0    0 -0.36446564376E+02 -0.17668047099E+02  0.35574103083E+01  0.50528842222E+02  0.29999946418E+02 0.  0.
         12    1    1    2    0    0  0.36446564376E+02  0.17668047099E+02 -0.35574103083E+01  0.40659157778E+02  0.00000000000E+00 0. -1.
         11    1    3    3    0    0 -0.15646133688E+02 -0.20462374446E+02 -0.15577856054E+01  0.25805754467E+02  0.51100000000E-03 0. -1.
        -11    1    3    3    0    0 -0.11704217410E+02  0.62921688832E+01  0.66466513783E+01  0.14857929507E+02  0.51100000000E-03 0.  1.
        -12    1    3    3    0    0 -0.90962132780E+01 -0.34978415364E+01 -0.15314554646E+01  0.98651582477E+01  0.00000000000E+00 0.  1.
</event>
<event>
 7    1  0.2991278E-011  0.5052886E+02  0.7816164E-02  0.1300439E+00
        -11   -1    0    0    0    0  0.00000000000E+00  0.00000000000E+00  0.45593999997E+02  0.45594000000E+02  0.51100000000E-03 0. -1.
         11   -1    0    0    0    0 -0.00000000000E+00 -0.00000000000E+00 -0.45593999997E+02  0.45594000000E+02  0.51100000000E-03 0.  1.
    9900012    2    1    2    0    0  0.91850311228E+01  0.16840739475E+02 -0.35849553470E+02  0.50528858509E+02  0.29999995924E+02 0.  0.
         12    1    1    2    0    0 -0.91850311228E+01 -0.16840739475E+02  0.35849553470E+02  0.40659141491E+02  0.00000000000E+00 0. -1.
         11    1    3    3    0    0  0.39301556001E+01 -0.38454114334E+01 -0.38982058028E+01  0.67401276602E+01  0.51100000000E-03 0. -1.
        -11    1    3    3    0    0  0.62423019383E+01  0.22978112682E+02 -0.33311520504E+02  0.40946518710E+02  0.51100000000E-03 0.  1.
        -12    1    3    3    0    0 -0.98742641561E+00 -0.22919617739E+01  0.13601728366E+01  0.28422121393E+01  0.00000000000E+00 0.  1.
</event>
<event>
 7    1  0.2991278E-011  0.5052882E+02  0.7816164E-02  0.1300439E+00
        -11   -1    0    0    0    0  0.00000000000E+00  0.00000000000E+00  0.45593999997E+02  0.45594000000E+02  0.51100000000E-03 0.  1.
         11   -1    0    0    0    0 -0.00000000000E+00 -0.00000000000E+00 -0.45593999997E+02  0.45594000000E+02  0.51100000000E-03 0. -1.
    9900012    2    1    2    0    0  0.72085056124E+01 -0.39727071167E+02 -0.47922833810E+01  0.50528822480E+02  0.29999886409E+02 0.  0.
         12    1    1    2    0    0 -0.72085056124E+01  0.39727071167E+02  0.47922833810E+01  0.40659177520E+02  0.00000000000E+00 0. -1.
         11    1    3    3    0    0 -0.17732002989E+00  0.12002734440E+01  0.61479578692E+01  0.62665369189E+01  0.51100000000E-03 0. -1.
        -11    1    3    3    0    0  0.51367122904E+01 -0.39619121555E+02 -0.88365456994E+01  0.40916318824E+02  0.51100000000E-03 0.  1.
        -12    1    3    3    0    0  0.22491133519E+01 -0.13082230559E+01 -0.21036955509E+01  0.33459667369E+01  0.00000000000E+00 0.  1.
</event>
<event>
 7    1  0.2991278E-011  0.5052888E+02  0.7816164E-02  0.1300439E+00
        -11   -1    0    0    0    0  0.00000000000E+00  0.00000000000E+00  0.45593999997E+02  0.45594000000E+02  0.51100000000E-03 0.  1.
         11   -1    0    0    0    0 -0.00000000000E+00 -0.00000000000E+00 -0.45593999997E+02  0.45594000000E+02  0.51100000000E-03 0. -1.
    9900012    2    1    2    0    0  0.10992951674E+02  0.28919809619E+02  0.26381116798E+02  0.50528884190E+02  0.30000073985E+02 0.  0.
         12    1    1    2    0    0 -0.10992951674E+02 -0.28919809619E+02 -0.26381116798E+02  0.40659115810E+02  0.00000000000E+00 0. -1.
         11    1    3    3    0    0  0.14494786863E+02  0.22903261266E+02  0.96323877657E+01  0.28765276240E+02  0.51100000000E-03 0. -1.
        -11    1    3    3    0    0 -0.78416849097E+01  0.32283187890E+01  0.12368227420E+02  0.14996236668E+02  0.51100000000E-03 0.  1.
         12    1    3    3    0    0  0.43398497207E+01  0.27882295639E+01  0.43805016126E+01  0.67673712826E+01  0.00000000000E+00 0. -1.
</event>
<event>
 7    1  0.2991278E-011  0.5052886E+02  0.7816164E-02  0.1300439E+00
        -11   -1    0    0    0    0  0.00000000000E+00  0.00000000000E+00  0.45593999997E+02  0.45594000000E+02  0.51100000000E-03 0.  1.
         11   -1    0    0    0    0 -0.00000000000E+00 -0.00000000000E+00 -0.45593999997E+02  0.45594000000E+02  0.51100000000E-03 0. -1.
    9900012    2    1    2    0    0 -0.33856934580E+02 -0.21641708159E+02  0.62056272365E+01  0.50528863750E+02  0.30000011853E+02 0.  0.
         12    1    1    2    0    0  0.33856934580E+02  0.21641708159E+02 -0.62056272365E+01  0.40659136250E+02  0.00000000000E+00 0. -1.
         11    1    3    3    0    0 -0.62038299685E+01  0.51257594297E+01 -0.11976112659E+01  0.81360425892E+01  0.51100000000E-03 0. -1.
        -11    1    3    3    0    0 -0.13433579719E+02 -0.16642769472E+02  0.11751372730E+02  0.24403639095E+02  0.51100000000E-03 0.  1.
         12    1    3    3    0    0 -0.14219524893E+02 -0.10124698117E+02 -0.43481342275E+01  0.17989182066E+02  0.00000000000E+00 0. -1.
</event>
<event>
 7    1  0.2991278E-011  0.5052886E+02  0.7816164E-02  0.1300439E+00
        -11   -1    0    0    0    0  0.00000000000E+00  0.00000000000E+00  0.45593999997E+02  0.45594000000E+02  0.51100000000E-03 0. -1.
         11   -1    0    0    0    0 -0.00000000000E+00 -0.00000000000E+00 -0.45593999997E+02  0.45594000000E+02  0.51100000000E-03 0.  1.
    9900012    2    1    2    0    0  0.42783569650E+01 -0.13949988782E+02 -0.37950750035E+02  0.50528856458E+02  0.29999989691E+02 0.  0.
         12    1    1    2    0    0 -0.42783569650E+01  0.13949988782E+02  0.37950750035E+02  0.40659143542E+02  0.00000000000E+00 0. -1.
         11    1    3    3    0    0 -0.83312551605E+01  0.19226098145E+01 -0.23002302134E+01  0.88542249996E+01  0.51100000000E-03 0. -1.
        -11    1    3    3    0    0 -0.51692486651E+00 -0.43622492283E+00 -0.42520120250E+01  0.43054744248E+01  0.51100000000E-03 0.  1.
         12    1    3    3    0    0  0.13126536992E+02 -0.15436373674E+02 -0.31398507796E+02  0.37369157034E+02  0.00000000000E+00 0. -1.
</event>
<event>
 7    1  0.2991278E-011  0.5052887E+02  0.7816164E-02  0.1300439E+00
        -11   -1    0    0    0    0  0.00000000000E+00  0.00000000000E+00  0.45593999997E+02  0.45594000000E+02  0.51100000000E-03 0.  1.
         11   -1    0    0    0    0 -0.00000000000E+00 -0.00000000000E+00 -0.45593999997E+02  0.45594000000E+02  0.51100000000E-03 0. -1.
    9900012    2    1    2    0    0 -0.51385837896E+01 -0.17199962659E+02  0.36481788578E+02  0.50528872406E+02  0.30000038165E+02 0.  0.
         12    1    1    2    0    0  0.51385837896E+01  0.17199962659E+02 -0.36481788578E+02  0.40659127594E+02  0.00000000000E+00 0. -1.
         11    1    3    3    0    0  0.76676810800E+01 -0.20870233987E+01  0.18884878645E+02  0.20488719861E+02  0.51100000000E-03 0. -1.
        -11    1    3    3    0    0 -0.49505404129E+01 -0.78921711687E+01  0.16960827479E+02  0.19351069355E+02  0.51100000000E-03 0.  1.
         12    1    3    3    0    0 -0.78557244566E+01 -0.72207680917E+01  0.63608245400E+00  0.10689083191E+02  0.00000000000E+00 0. -1.
</event>
<event>
 7    1  0.2991278E-011  0.5052888E+02  0.7816164E-02  0.1300439E+00
        -11   -1    0    0    0    0  0.00000000000E+00  0.00000000000E+00  0.45593999997E+02  0.45594000000E+02  0.51100000000E-03 0.  1.
         11   -1    0    0    0    0 -0.00000000000E+00 -0.00000000000E+00 -0.45593999997E+02  0.45594000000E+02  0.51100000000E-03 0. -1.
    9900012    2    1    2    0    0  0.31671577792E+02  0.22978527720E+02  0.11048197588E+02  0.50528877457E+02  0.30000053519E+02 0.  0.
         12    1    1    2    0    0 -0.31671577792E+02 -0.22978527720E+02 -0.11048197588E+02  0.40659122543E+02  0.00000000000E+00 0. -1.
         11    1    3    3    0    0 -0.29226653031E+01  0.54282091535E+01 -0.13139501723E+01  0.63034825616E+01  0.51100000000E-03 0. -1.
        -11    1    3    3    0    0  0.33535707772E+02  0.13142182250E+02  0.14958045677E+02  0.39001330500E+02  0.51100000000E-03 0.  1.
        -12    1    3    3    0    0  0.10585353230E+01  0.44081363167E+01 -0.25958979166E+01  0.52240643957E+01  0.00000000000E+00 0.  1.
</event>
<event>
 7    1  0.2991278E-011  0.5052889E+02  0.7816164E-02  0.1300439E+00
        -11   -1    0    0    0    0  0.00000000000E+00  0.00000000000E+00  0.45593999997E+02  0.45594000000E+02  0.51100000000E-03 0.  1.
         11   -1    0    0    0    0 -0.00000000000E+00 -0.00000000000E+00 -0.45593999997E+02  0.45594000000E+02  0.51100000000E-03 0. -1.
    9900012    2    1    2    0    0 -0.93442908174E+01 -0.22399544727E+02  0.32620671031E+02  0.50528885974E+02  0.30000079406E+02 0.  0.
         12    1    1    2    0    0  0.93442908174E+01  0.22399544727E+02 -0.32620671031E+02  0.40659114026E+02  0.00000000000E+00 0. -1.
         11    1    3    3    0    0  0.45833165013E+01 -0.25145565060E+01 -0.33214091845E+01  0.61936696558E+01  0.51100000000E-03 0.  1.
        -11    1    3    3    0    0 -0.11326734520E+02 -0.14561988026E+02  0.19432973980E+02  0.26795277347E+02  0.51100000000E-03 0. -1.
        -12    1    3    3    0    0 -0.26008727988E+01 -0.53230001949E+01  0.16509106236E+02  0.17539938971E+02  0.00000000000E+00 0.  1.
</event>
<event>
 7    1  0.2991278E-011  0.5052886E+02  0.7816164E-02  0.1300439E+00
        -11   -1    0    0    0    0  0.00000000000E+00  0.00000000000E+00  0.45593999997E+02  0.45594000000E+02  0.51100000000E-03 0.  1.
         11   -1    0    0    0    0 -0.00000000000E+00 -0.00000000000E+00 -0.45593999997E+02  0.45594000000E+02  0.51100000000E-03 0. -1.
    9900012    2    1    2    0    0  0.18535043266E+02 -0.20441117620E+02  0.29862655965E+02  0.50528864007E+02  0.30000012635E+02 0.  0.
         12    1    1    2    0    0 -0.18535043266E+02  0.20441117620E+02 -0.29862655965E+02  0.40659135993E+02  0.00000000000E+00 0. -1.
         11    1    3    3    0    0  0.50461936483E+01 -0.13763294829E+02 -0.14797930609E+01  0.14733707702E+02  0.51100000000E-03 0. -1.
        -11    1    3    3    0    0  0.49822183119E+01 -0.71111761753E+01  0.14001325604E+02  0.16475085579E+02  0.51100000000E-03 0.  1.
        -12    1    3    3    0    0  0.85066313062E+01  0.43335338378E+00  0.17341123422E+02  0.19320070726E+02  0.00000000000E+00 0.  1.
</event>
<event>
 7    1  0.2991278E-011  0.5052885E+02  0.7816164E-02  0.1300439E+00
        -11   -1    0    0    0    0  0.00000000000E+00  0.00000000000E+00  0.45593999997E+02  0.45594000000E+02  0.51100000000E-03 0. -1.
         11   -1    0    0    0    0 -0.00000000000E+00 -0.00000000000E+00 -0.45593999997E+02  0.45594000000E+02  0.51100000000E-03 0.  1.
    9900012    2    1    2    0    0  0.24268254911E+02  0.17569567941E+02  0.27486878891E+02  0.50528850658E+02  0.29999972060E+02 0.  0.
         12    1    1    2    0    0 -0.24268254911E+02 -0.17569567941E+02 -0.27486878891E+02  0.40659149342E+02  0.00000000000E+00 0. -1.
         11    1    3    3    0    0  0.29641623415E+01  0.14245039162E+02  0.21149052421E+02  0.25670796982E+02  0.51100000000E-03 0. -1.
        -11    1    3    3    0    0  0.50363220697E+01  0.25990820389E+01 -0.26522132503E+01  0.62573159438E+01  0.51100000000E-03 0.  1.
         12    1    3    3    0    0  0.16267770500E+02  0.72544673944E+00  0.89900397199E+01  0.18600737732E+02  0.00000000000E+00 0. -1.
</event>
<event>
 7    1  0.2991278E-011  0.5052886E+02  0.7816164E-02  0.1300439E+00
        -11   -1    0    0    0    0  0.00000000000E+00  0.00000000000E+00  0.45593999997E+02  0.45594000000E+02  0.51100000000E-03 0.  1.
         11   -1    0    0    0    0 -0.00000000000E+00 -0.00000000000E+00 -0.45593999997E+02  0.45594000000E+02  0.51100000000E-03 0. -1.
    9900012    2    1    2    0    0 -0.39110320089E+02 -0.19371400108E+01  0.10945122071E+02  0.50528863929E+02  0.30000012399E+02 0.  0.
         12    1    1    2    0    0  0.39110320089E+02  0.19371400108E+01 -0.10945122071E+02  0.40659136071E+02  0.00000000000E+00 0. -1.
         11    1    3    3    0    0 -0.19880897426E+02  0.25655375685E+01  0.12664776748E+02  0.23711360902E+02  0.51100000000E-03 0.  1.
        -11    1    3    3    0    0 -0.19956771276E+02 -0.20528248863E+01 -0.67566570820E+01  0.21169299114E+02  0.51100000000E-03 0. -1.
         12    1    3    3    0    0  0.72734861315E+00 -0.24498526929E+01  0.50370024050E+01  0.56482039137E+01  0.00000000000E+00 0. -1.
</event>
<event>
 7    1  0.2991278E-011  0.5052887E+02  0.7816164E-02  0.1300439E+00
        -11   -1    0    0    0    0  0.00000000000E+00  0.00000000000E+00  0.45593999997E+02  0.45594000000E+02  0.51100000000E-03 0.  1.
         11   -1    0    0    0    0 -0.00000000000E+00 -0.00000000000E+00 -0.45593999997E+02  0.45594000000E+02  0.51100000000E-03 0. -1.
    9900012    2    1    2    0    0  0.16066825166E+02 -0.10038020820E+02  0.35975831952E+02  0.50528865509E+02  0.30000017201E+02 0.  0.
         12    1    1    2    0    0 -0.16066825166E+02  0.10038020820E+02 -0.35975831952E+02  0.40659134491E+02  0.00000000000E+00 0. -1.
         11    1    3    3    0    0  0.89081735330E+01 -0.42363271818E+01  0.42494970284E+00  0.98733280203E+01  0.51100000000E-03 0. -1.
        -11    1    3    3    0    0  0.15038736993E+01 -0.11473436930E+02  0.23362993381E+02  0.26071648415E+02  0.51100000000E-03 0.  1.
         12    1    3    3    0    0  0.56547779337E+01  0.56717432921E+01  0.12187888869E+02  0.14583889074E+02  0.00000000000E+00 0. -1.
</event>
<event>
 7    1  0.2991278E-011  0.5052885E+02  0.7816164E-02  0.1300439E+00
        -11   -1    0    0    0    0  0.00000000000E+00  0.00000000000E+00  0.45593999997E+02  0.45594000000E+02  0.51100000000E-03 0.  1.
         11   -1    0    0    0    0 -0.00000000000E+00 -0.00000000000E+00 -0.45593999997E+02  0.45594000000E+02  0.51100000000E-03 0. -1.
    9900012    2    1    2    0    0  0.17149578059E+02  0.59892415652E+01  0.36375638861E+02  0.50528854108E+02  0.29999982548E+02 0.  0.
         12    1    1    2    0    0 -0.17149578059E+02 -0.59892415652E+01 -0.36375638861E+02  0.40659145892E+02  0.00000000000E+00 0. -1.
         11    1    3    3    0    0  0.14160579843E+02  0.55255400784E+01  0.12863737097E+02  0.19913044644E+02  0.51100000000E-03 0. -1.
        -11    1    3    3    0    0 -0.45115524094E+01  0.58425924748E+00  0.22606684088E+02  0.23059870548E+02  0.51100000000E-03 0.  1.
        -12    1    3    3    0    0  0.75005506255E+01 -0.12055776068E+00  0.90521767622E+00  0.75559389159E+01  0.00000000000E+00 0.  1.
</event>
<event>
 7    1  0.2991278E-011  0.5052885E+02  0.7816164E-02  0.1300439E+00
        -11   -1    0    0    0    0  0.00000000000E+00  0.00000000000E+00  0.45593999997E+02  0.45594000000E+02  0.51100000000E-03 0.  1.
         11   -1    0    0    0    0 -0.00000000000E+00 -0.00000000000E+00 -0.45593999997E+02  0.45594000000E+02  0.51100000000E-03 0. -1.
    9900012    2    1    2    0    0 -0.34582387569E+02 -0.21207170037E+02 -0.27350701399E+01  0.50528853432E+02  0.29999980492E+02 0.  0.
         12    1    1    2    0    0  0.34582387569E+02  0.21207170037E+02  0.27350701399E+01  0.40659146568E+02  0.00000000000E+00 0. -1.
         11    1    3    3    0    0 -0.24730717205E+01 -0.11553094870E+02  0.63345263870E+01  0.13405831180E+02  0.51100000000E-03 0. -1.
        -11    1    3    3    0    0 -0.11723022010E+02 -0.69434398574E+01 -0.94028978406E+01  0.16554609333E+02  0.51100000000E-03 0.  1.
         12    1    3    3    0    0 -0.20386293839E+02 -0.27106353095E+01  0.33330131369E+00  0.20568412920E+02  0.00000000000E+00 0. -1.
</event>
<event>
 7    1  0.2991278E-011  0.5052887E+02  0.7816164E-02  0.1300439E+00
        -11   -1    0    0    0    0  0.00000000000E+00  0.00000000000E+00  0.45593999997E+02  0.45594000000E+02  0.51100000000E-03 0. -1.
         11   -1    0    0    0    0 -0.00000000000E+00 -0.00000000000E+00 -0.45593999997E+02  0.45594000000E+02  0.51100000000E-03 0.  1.
    9900012    2    1    2    0    0  0.73091379156E+01  0.31349894919E+02 -0.24837986760E+02  0.50528868248E+02  0.30000025528E+02 0.  0.
         12    1    1    2    0    0 -0.73091379156E+01 -0.31349894919E+02  0.24837986760E+02  0.40659131752E+02  0.00000000000E+00 0. -1.
         11    1    3    3    0    0 -0.21071875210E+01 -0.11615857852E+01 -0.26518652424E+01  0.35807695136E+01  0.51100000000E-03 0. -1.
        -11    1    3    3    0    0  0.15212992396E+02  0.18761597733E+02 -0.59096242219E+01  0.24866771923E+02  0.51100000000E-03 0.  1.
        -12    1    3    3    0    0 -0.57966669596E+01  0.13749882971E+02 -0.16276497296E+02  0.22081326812E+02  0.00000000000E+00 0.  1.
</event>
<event>
 7    1  0.2991278E-011  0.5052884E+02  0.7816164E-02  0.1300439E+00
        -11   -1    0    0    0    0  0.00000000000E+00  0.00000000000E+00  0.45593999997E+02  0.45594000000E+02  0.51100000000E-03 0. -1.
         11   -1    0    0    0    0 -0.00000000000E+00 -0.00000000000E+00 -0.45593999997E+02  0.45594000000E+02  0.51100000000E-03 0.  1.
    9900012    2    1    2    0    0 -0.34567741402E+02  0.19070591486E+02  0.97237590402E+01  0.50528835041E+02  0.29999924591E+02 0.  0.
         12    1    1    2    0    0  0.34567741402E+02 -0.19070591486E+02 -0.97237590402E+01  0.40659164959E+02  0.00000000000E+00 0. -1.
         11    1    3    3    0    0 -0.31912801424E+02  0.19094039935E+02  0.14646738864E+02  0.39969190827E+02  0.51100000000E-03 0. -1.
        -11    1    3    3    0    0 -0.29874721392E+01 -0.40077180935E+01 -0.13018399478E+01  0.51654217263E+01  0.51100000000E-03 0.  1.
         12    1    3    3    0    0  0.33253216158E+00  0.39842696450E+01 -0.36211398758E+01  0.53942224873E+01  0.00000000000E+00 0. -1.
</event>
<event>
 7    1  0.2991278E-011  0.5052886E+02  0.7816164E-02  0.1300439E+00
        -11   -1    0    0    0    0  0.00000000000E+00  0.00000000000E+00  0.45593999997E+02  0.45594000000E+02  0.51100000000E-03 0. -1.
         11   -1    0    0    0    0 -0.00000000000E+00 -0.00000000000E+00 -0.45593999997E+02  0.45594000000E+02  0.51100000000E-03 0.  1.
    9900012    2    1    2    0    0 -0.22612479925E+02  0.10624565728E+01 -0.33774433482E+02  0.50528863027E+02  0.30000009658E+02 0.  0.
         12    1    1    2    0    0  0.22612479925E+02 -0.10624565728E+01  0.33774433482E+02  0.40659136973E+02  0.00000000000E+00 0. -1.
         11    1    3    3    0    0 -0.17994177322E+02  0.93689458232E+01 -0.14599602050E+02  0.24994318227E+02  0.51100000000E-03 0. -1.
        -11    1    3    3    0    0 -0.89580942701E+01 -0.52446878248E+01 -0.78115779565E+01  0.12991341492E+02  0.51100000000E-03 0.  1.
         12    1    3    3    0    0  0.43397916675E+01 -0.30618014256E+01 -0.11363253476E+02  0.12543203309E+02  0.00000000000E+00 0. -1.
</event>
<event>
 7    1  0.2991278E-011  0.5052886E+02  0.7816164E-02  0.1300439E+00
        -11   -1    0    0    0    0  0.00000000000E+00  0.00000000000E+00  0.45593999997E+02  0.45594000000E+02  0.51100000000E-03 0. -1.
         11   -1    0    0    0    0 -0.00000000000E+00 -0.00000000000E+00 -0.45593999997E+02  0.45594000000E+02  0.51100000000E-03 0.  1.
    9900012    2    1    2    0    0 -0.17611780067E+02  0.36118697553E+02 -0.61992692482E+01  0.50528855282E+02  0.29999986114E+02 0.  0.
         12    1    1    2    0    0  0.17611780067E+02 -0.36118697553E+02  0.61992692482E+01  0.40659144718E+02  0.00000000000E+00 0. -1.
         11    1    3    3    0    0 -0.35240546508E+01  0.28683060176E+00 -0.95892984871E+01  0.10220365880E+02  0.51100000000E-03 0. -1.
        -11    1    3    3    0    0 -0.15127456254E+02  0.27364660359E+02  0.40417604059E+00  0.31270240291E+02  0.51100000000E-03 0.  1.
        -12    1    3    3    0    0  0.10397308382E+01  0.84672065916E+01  0.29858531983E+01  0.90382491115E+01  0.00000000000E+00 0.  1.
</event>
<event>
 7    1  0.2991278E-011  0.5052885E+02  0.7816164E-02  0.1300439E+00
        -11   -1    0    0    0    0  0.00000000000E+00  0.00000000000E+00  0.45593999997E+02  0.45594000000E+02  0.51100000000E-03 0. -1.
         11   -1    0    0    0    0 -0.00000000000E+00 -0.00000000000E+00 -0.45593999997E+02  0.45594000000E+02  0.51100000000E-03 0.  1.
    9900012    2    1    2    0    0  0.55131795098E+01 -0.37678157890E+02 -0.14252280126E+02  0.50528853193E+02  0.29999979766E+02 0.  0.
         12    1    1    2    0    0 -0.55131795098E+01  0.37678157890E+02  0.14252280126E+02  0.40659146807E+02  0.00000000000E+00 0. -1.
         11    1    3    3    0    0  0.72525519137E+00  0.32188088678E+01 -0.14275891056E+01  0.35950989605E+01  0.51100000000E-03 0. -1.
        -11    1    3    3    0    0  0.87969575559E+01 -0.39110515558E+02 -0.89398409705E+01  0.41072370838E+02  0.51100000000E-03 0.  1.
        -12    1    3    3    0    0 -0.40090332375E+01 -0.17864511997E+01 -0.38848500499E+01  0.58613833946E+01  0.00000000000E+00 0.  1.
</event>
<event>
 7    1  0.2991278E-011  0.5052885E+02  0.7816164E-02  0.1300439E+00
        -11   -1    0    0    0    0  0.00000000000E+00  0.00000000000E+00  0.45593999997E+02  0.45594000000E+02  0.51100000000E-03 0.  1.
         11   -1    0    0    0    0 -0.00000000000E+00 -0.00000000000E+00 -0.45593999997E+02  0.45594000000E+02  0.51100000000E-03 0. -1.
    9900012    2    1    2    0    0  0.24942581690E+02  0.24180124630E+02  0.21127136533E+02  0.50528847197E+02  0.29999961541E+02 0.  0.
         12    1    1    2    0    0 -0.24942581690E+02 -0.24180124630E+02 -0.21127136533E+02  0.40659152803E+02  0.00000000000E+00 0. -1.
         11    1    3    3    0    0  0.14476406393E+02  0.25756927132E+01 -0.33338519730E+01  0.15076972649E+02  0.51100000000E-03 0. -1.
        -11    1    3    3    0    0  0.95688245573E+01  0.16211710527E+02  0.13379651517E+02  0.23095389943E+02  0.51100000000E-03 0.  1.
        -12    1    3    3    0    0  0.89735073957E+00  0.53927213901E+01  0.11081336989E+02  0.12356484605E+02  0.00000000000E+00 0.  1.
</event>
<event>
 7    1  0.2991278E-011  0.5052885E+02  0.7816164E-02  0.1300439E+00
        -11   -1    0    0    0    0  0.00000000000E+00  0.00000000000E+00  0.45593999997E+02  0.45594000000E+02  0.51100000000E-03 0.  1.
         11   -1    0    0    0    0 -0.00000000000E+00 -0.00000000000E+00 -0.45593999997E+02  0.45594000000E+02  0.51100000000E-03 0. -1.
    9900012    2    1    2    0    0  0.30259851782E+02 -0.74679830995E+01  0.26110100766E+02  0.50528846499E+02  0.29999959418E+02 0.  0.
         12    1    1    2    0    0 -0.30259851782E+02  0.74679830995E+01 -0.26110100766E+02  0.40659153501E+02  0.00000000000E+00 0. -1.
         11    1    3    3    0    0  0.10095797127E+01  0.20746750664E+01 -0.55393433564E+01  0.60006543734E+01  0.51100000000E-03 0. -1.
        -11    1    3    3    0    0  0.17315701571E+02 -0.45424737714E+01  0.22129950248E+02  0.28464052542E+02  0.51100000000E-03 0.  1.
         12    1    3    3    0    0  0.11934570498E+02 -0.50001843945E+01  0.95194938738E+01  0.16064139584E+02  0.00000000000E+00 0. -1.
</event>
<event>
 7    1  0.2991278E-011  0.5052888E+02  0.7816164E-02  0.1300439E+00
        -11   -1    0    0    0    0  0.00000000000E+00  0.00000000000E+00  0.45593999997E+02  0.45594000000E+02  0.51100000000E-03 0. -1.
         11   -1    0    0    0    0 -0.00000000000E+00 -0.00000000000E+00 -0.45593999997E+02  0.45594000000E+02  0.51100000000E-03 0.  1.
    9900012    2    1    2    0    0  0.26617193525E+02 -0.19213300215E+02 -0.23990377521E+02  0.50528879130E+02  0.30000058604E+02 0.  0.
         12    1    1    2    0    0 -0.26617193525E+02  0.19213300215E+02  0.23990377521E+02  0.40659120870E+02  0.00000000000E+00 0. -1.
         11    1    3    3    0    0 -0.15659819937E+01  0.66184910193E+00  0.45970654462E+01  0.49013625469E+01  0.51100000000E-03 0. -1.
        -11    1    3    3    0    0  0.25968962695E+02 -0.17042012595E+02 -0.21805292802E+02  0.37951126613E+02  0.51100000000E-03 0.  1.
         12    1    3    3    0    0  0.22142128239E+01 -0.28331367223E+01 -0.67821501653E+01  0.76763899707E+01  0.00000000000E+00 0. -1.
</event>
<event>
 7    1  0.2991278E-011  0.5052884E+02  0.7816164E-02  0.1300439E+00
        -11   -1    0    0    0    0  0.00000000000E+00  0.00000000000E+00  0.45593999997E+02  0.45594000000E+02  0.51100000000E-03 0.  1.
         11   -1    0    0    0    0 -0.00000000000E+00 -0.00000000000E+00 -0.45593999997E+02  0.45594000000E+02  0.51100000000E-03 0. -1.
    9900012    2    1    2    0    0 -0.35998830191E+02 -0.49124018307E+01  0.18251560461E+02  0.50528844498E+02  0.29999953336E+02 0.  0.
         12    1    1    2    0    0  0.35998830191E+02  0.49124018307E+01 -0.18251560461E+02  0.40659155502E+02  0.00000000000E+00 0. -1.
         11    1    3    3    0    0 -0.68271826620E+01 -0.22308439541E+01 -0.80715953187E+01  0.10804524011E+02  0.51100000000E-03 0. -1.
        -11    1    3    3    0    0 -0.19335508968E+02  0.24646289093E+00  0.15251793596E+02  0.24628029949E+02  0.51100000000E-03 0.  1.
         12    1    3    3    0    0 -0.98361385609E+01 -0.29280207675E+01  0.11071362184E+02  0.15096290538E+02  0.00000000000E+00 0. -1.
</event>
<event>
 7    1  0.2991278E-011  0.5052886E+02  0.7816164E-02  0.1300439E+00
        -11   -1    0    0    0    0  0.00000000000E+00  0.00000000000E+00  0.45593999997E+02  0.45594000000E+02  0.51100000000E-03 0.  1.
         11   -1    0    0    0    0 -0.00000000000E+00 -0.00000000000E+00 -0.45593999997E+02  0.45594000000E+02  0.51100000000E-03 0. -1.
    9900012    2    1    2    0    0 -0.23589780512E+02  0.32603146170E+02  0.58071414907E+01  0.50528858628E+02  0.29999996286E+02 0.  0.
         12    1    1    2    0    0  0.23589780512E+02 -0.32603146170E+02 -0.58071414907E+01  0.40659141372E+02  0.00000000000E+00 0. -1.
         11    1    3    3    0    0 -0.11325134840E+02  0.19547298949E+02 -0.90704506027E+01  0.24343965366E+02  0.51100000000E-03 0. -1.
        -11    1    3    3    0    0 -0.11871588992E+02  0.51943689101E+01  0.58790764533E+01  0.14229533857E+02  0.51100000000E-03 0.  1.
         12    1    3    3    0    0 -0.39305667956E+00  0.78614783113E+01  0.89985156401E+01  0.11955359406E+02  0.00000000000E+00 0. -1.
</event>
<event>
 7    1  0.2991278E-011  0.5052877E+02  0.7816164E-02  0.1300439E+00
        -11   -1    0    0    0    0  0.00000000000E+00  0.00000000000E+00  0.45593999997E+02  0.45594000000E+02  0.51100000000E-03 0. -1.
         11   -1    0    0    0    0 -0.00000000000E+00 -0.00000000000E+00 -0.45593999997E+02  0.45594000000E+02  0.51100000000E-03 0.  1.
    9900012    2    1    2    0    0  0.38512307709E+02 -0.44454004236E+00 -0.13029872660E+02  0.50528769283E+02  0.29999724712E+02 0.  0.
         12    1    1    2    0    0 -0.38512307709E+02  0.44454004236E+00  0.13029872660E+02  0.40659230717E+02  0.00000000000E+00 0. -1.
         11    1    3    3    0    0  0.29292838190E+02  0.53909238740E+01  0.15606195391E+01  0.29825625945E+02  0.51100000000E-03 0. -1.
        -11    1    3    3    0    0  0.66754147965E+01 -0.45134793284E+01 -0.27406409259E+01  0.85113906795E+01  0.51100000000E-03 0.  1.
         12    1    3    3    0    0  0.25440547231E+01 -0.13219845880E+01 -0.11849851274E+02  0.12191752659E+02  0.00000000000E+00 0. -1.
</event>
<event>
 7    1  0.2991278E-011  0.5052886E+02  0.7816164E-02  0.1300439E+00
        -11   -1    0    0    0    0  0.00000000000E+00  0.00000000000E+00  0.45593999997E+02  0.45594000000E+02  0.51100000000E-03 0.  1.
         11   -1    0    0    0    0 -0.00000000000E+00 -0.00000000000E+00 -0.45593999997E+02  0.45594000000E+02  0.51100000000E-03 0. -1.
    9900012    2    1    2    0    0  0.24620255764E+02  0.18091822543E+02  0.26827125117E+02  0.50528859836E+02  0.29999999957E+02 0.  0.
         12    1    1    2    0    0 -0.24620255764E+02 -0.18091822543E+02 -0.26827125117E+02  0.40659140164E+02  0.00000000000E+00 0. -1.
         11    1    3    3    0    0  0.11026518770E+02  0.45392324397E+01 -0.31765018920E+01  0.12340134191E+02  0.51100000000E-03 0. -1.
        -11    1    3    3    0    0  0.33393367707E+01  0.99125454019E+00  0.17140591696E+02  0.17490958795E+02  0.51100000000E-03 0.  1.
        -12    1    3    3    0    0  0.10254400224E+02  0.12561335563E+02  0.12863035314E+02  0.20697766849E+02  0.00000000000E+00 0.  1.
</event>
<event>
 7    1  0.2991278E-011  0.5052886E+02  0.7816164E-02  0.1300439E+00
        -11   -1    0    0    0    0  0.00000000000E+00  0.00000000000E+00  0.45593999997E+02  0.45594000000E+02  0.51100000000E-03 0.  1.
         11   -1    0    0    0    0 -0.00000000000E+00 -0.00000000000E+00 -0.45593999997E+02  0.45594000000E+02  0.51100000000E-03 0. -1.
    9900012    2    1    2    0    0  0.19703295611E+02 -0.11549054073E+02  0.33638746423E+02  0.50528858730E+02  0.29999996596E+02 0.  0.
         12    1    1    2    0    0 -0.19703295611E+02  0.11549054073E+02 -0.33638746423E+02  0.40659141270E+02  0.00000000000E+00 0. -1.
         11    1    3    3    0    0 -0.57324846073E+01 -0.79879099439E+00  0.34211259019E+01  0.67233585003E+01  0.51100000000E-03 0. -1.
        -11    1    3    3    0    0  0.22373728122E+02 -0.97640510576E+01  0.31905096773E+02  0.40172821702E+02  0.51100000000E-03 0.  1.
        -12    1    3    3    0    0  0.30620520957E+01 -0.98621202059E+00 -0.16874762519E+01  0.36326785279E+01  0.00000000000E+00 0.  1.
</event>
<event>
 7    1  0.2991278E-011  0.5052887E+02  0.7816164E-02  0.1300439E+00
        -11   -1    0    0    0    0  0.00000000000E+00  0.00000000000E+00  0.45593999997E+02  0.45594000000E+02  0.51100000000E-03 0.  1.
         11   -1    0    0    0    0 -0.00000000000E+00 -0.00000000000E+00 -0.45593999997E+02  0.45594000000E+02  0.51100000000E-03 0. -1.
    9900012    2    1    2    0    0 -0.35441018569E+02  0.71087589139E+00  0.19914653501E+02  0.50528873523E+02  0.30000041562E+02 0.  0.
         12    1    1    2    0    0  0.35441018569E+02 -0.71087589139E+00 -0.19914653501E+02  0.40659126477E+02  0.00000000000E+00 0. -1.
         11    1    3    3    0    0  0.15877666757E+01 -0.22051282326E+01  0.25084160145E+01  0.36980731065E+01  0.51100000000E-03 0. -1.
        -11    1    3    3    0    0 -0.25076491313E+02  0.44670986489E+01  0.22269921684E+02  0.33833929700E+02  0.51100000000E-03 0.  1.
        -12    1    3    3    0    0 -0.11952293932E+02 -0.15510945249E+01 -0.48636841966E+01  0.12996870717E+02  0.00000000000E+00 0.  1.
</event>
<event>
 7    1  0.2991278E-011  0.5052886E+02  0.7816164E-02  0.1300439E+00
        -11   -1    0    0    0    0  0.00000000000E+00  0.00000000000E+00  0.45593999997E+02  0.45594000000E+02  0.51100000000E-03 0.  1.
         11   -1    0    0    0    0 -0.00000000000E+00 -0.00000000000E+00 -0.45593999997E+02  0.45594000000E+02  0.51100000000E-03 0. -1.
    9900012    2    1    2    0    0 -0.97021907698E+01  0.14458856052E+02  0.36742006203E+02  0.50528855348E+02  0.29999986314E+02 0.  0.
         12    1    1    2    0    0  0.97021907698E+01 -0.14458856052E+02 -0.36742006203E+02  0.40659144652E+02  0.00000000000E+00 0. -1.
         11    1    3    3    0    0  0.35317068050E+01  0.90074170639E+01  0.14918498094E+01  0.97893887058E+01  0.51100000000E-03 0. -1.
        -11    1    3    3    0    0 -0.15648455705E+02  0.15622860789E+01  0.29035332113E+02  0.33020681624E+02  0.51100000000E-03 0.  1.
        -12    1    3    3    0    0  0.24145581299E+01  0.38891529096E+01  0.62148242805E+01  0.77187850180E+01  0.00000000000E+00 0.  1.
</event>
<event>
 7    1  0.2991278E-011  0.5052886E+02  0.7816164E-02  0.1300439E+00
        -11   -1    0    0    0    0  0.00000000000E+00  0.00000000000E+00  0.45593999997E+02  0.45594000000E+02  0.51100000000E-03 0.  1.
         11   -1    0    0    0    0 -0.00000000000E+00 -0.00000000000E+00 -0.45593999997E+02  0.45594000000E+02  0.51100000000E-03 0. -1.
    9900012    2    1    2    0    0  0.34288612085E+02  0.83731335591E+01  0.20182844332E+02  0.50528862163E+02  0.30000007029E+02 0.  0.
         12    1    1    2    0    0 -0.34288612085E+02 -0.83731335591E+01 -0.20182844332E+02  0.40659137837E+02  0.00000000000E+00 0. -1.
         11    1    3    3    0    0  0.88610641484E+01 -0.68502655674E+01  0.29766181153E+01  0.11588997017E+02  0.51100000000E-03 0. -1.
        -11    1    3    3    0    0  0.14751232718E+02  0.12381241323E+02  0.94659263895E+00  0.19281857828E+02  0.51100000000E-03 0.  1.
        -12    1    3    3    0    0  0.10676315219E+02  0.28421578038E+01  0.16259633578E+02  0.19658007318E+02  0.00000000000E+00 0.  1.
</event>
<event>
 7    1  0.2991278E-011  0.5052886E+02  0.7816164E-02  0.1300439E+00
        -11   -1    0    0    0    0  0.00000000000E+00  0.00000000000E+00  0.45593999997E+02  0.45594000000E+02  0.51100000000E-03 0. -1.
         11   -1    0    0    0    0 -0.00000000000E+00 -0.00000000000E+00 -0.45593999997E+02  0.45594000000E+02  0.51100000000E-03 0.  1.
    9900012    2    1    2    0    0 -0.55815499837E+01 -0.38997948699E+02 -0.10058424087E+02  0.50528860829E+02  0.30000002977E+02 0.  0.
         12    1    1    2    0    0  0.55815499837E+01  0.38997948699E+02  0.10058424087E+02  0.40659139171E+02  0.00000000000E+00 0. -1.
         11    1    3    3    0    0 -0.77982225564E+01 -0.33338611081E+02 -0.43437886231E+01  0.34512950667E+02  0.51100000000E-03 0. -1.
        -11    1    3    3    0    0  0.69746084603E+01 -0.54963070869E+01 -0.41176136647E+00  0.88895501827E+01  0.51100000000E-03 0.  1.
         12    1    3    3    0    0 -0.47579358876E+01 -0.16303053102E+00 -0.53028740977E+01  0.71263599797E+01  0.00000000000E+00 0. -1.
</event>
<event>
 7    1  0.2991278E-011  0.5052886E+02  0.7816164E-02  0.1300439E+00
        -11   -1    0    0    0    0  0.00000000000E+00  0.00000000000E+00  0.45593999997E+02  0.45594000000E+02  0.51100000000E-03 0. -1.
         11   -1    0    0    0    0 -0.00000000000E+00 -0.00000000000E+00 -0.45593999997E+02  0.45594000000E+02  0.51100000000E-03 0.  1.
    9900012    2    1    2    0    0  0.59815828118E+01  0.38178322178E+02 -0.12641290435E+02  0.50528857841E+02  0.29999993893E+02 0.  0.
         12    1    1    2    0    0 -0.59815828118E+01 -0.38178322178E+02  0.12641290435E+02  0.40659142159E+02  0.00000000000E+00 0. -1.
         11    1    3    3    0    0  0.99950939260E+01  0.12774604491E+02 -0.78449215308E+01  0.18017636265E+02  0.51100000000E-03 0. -1.
        -11    1    3    3    0    0 -0.45293289793E+00  0.20203996722E+02  0.50410743801E+01  0.20828323574E+02  0.51100000000E-03 0.  1.
        -12    1    3    3    0    0 -0.35605782163E+01  0.51997209656E+01 -0.98374432845E+01  0.11682898002E+02  0.00000000000E+00 0.  1.
</event>
<event>
 7    1  0.2991278E-011  0.5052886E+02  0.7816164E-02  0.1300439E+00
        -11   -1    0    0    0    0  0.00000000000E+00  0.00000000000E+00  0.45593999997E+02  0.45594000000E+02  0.51100000000E-03 0.  1.
         11   -1    0    0    0    0 -0.00000000000E+00 -0.00000000000E+00 -0.45593999997E+02  0.45594000000E+02  0.51100000000E-03 0. -1.
    9900012    2    1    2    0    0  0.25657065684E+02 -0.31536678785E+02 -0.56447793196E+00  0.50528858793E+02  0.29999996789E+02 0.  0.
         12    1    1    2    0    0 -0.25657065684E+02  0.31536678785E+02  0.56447793196E+00  0.40659141207E+02  0.00000000000E+00 0. -1.
         11    1    3    3    0    0  0.16234524020E+02 -0.81876612816E+01 -0.31244607019E+01  0.18448843388E+02  0.51100000000E-03 0. -1.
        -11    1    3    3    0    0  0.87961341902E+00 -0.17778315363E+02  0.90730068982E+01  0.19979030791E+02  0.51100000000E-03 0.  1.
        -12    1    3    3    0    0  0.85429282451E+01 -0.55707021404E+01 -0.65130241283E+01  0.12100984614E+02  0.00000000000E+00 0.  1.
</event>
<event>
 7    1  0.2991278E-011  0.5052885E+02  0.7816164E-02  0.1300439E+00
        -11   -1    0    0    0    0  0.00000000000E+00  0.00000000000E+00  0.45593999997E+02  0.45594000000E+02  0.51100000000E-03 0.  1.
         11   -1    0    0    0    0 -0.00000000000E+00 -0.00000000000E+00 -0.45593999997E+02  0.45594000000E+02  0.51100000000E-03 0. -1.
    9900012    2    1    2    0    0  0.34526425134E+02 -0.21360827148E+02  0.21925922353E+01  0.50528850603E+02  0.29999971894E+02 0.  0.
         12    1    1    2    0    0 -0.34526425134E+02  0.21360827148E+02 -0.21925922353E+01  0.40659149397E+02  0.00000000000E+00 0. -1.
         11    1    3    3    0    0  0.24399775851E+02 -0.17685106959E+02  0.11062107162E+02  0.32101125913E+02  0.51100000000E-03 0. -1.
        -11    1    3    3    0    0  0.12618009260E+02 -0.31825350720E+01 -0.90973831559E+01  0.15877816844E+02  0.51100000000E-03 0.  1.
         12    1    3    3    0    0 -0.24913599777E+01 -0.49318511657E+00  0.22786822886E+00  0.25499078469E+01  0.00000000000E+00 0. -1.
</event>
<event>
 7    1  0.2991278E-011  0.5052884E+02  0.7816164E-02  0.1300439E+00
        -11   -1    0    0    0    0  0.00000000000E+00  0.00000000000E+00  0.45593999997E+02  0.45594000000E+02  0.51100000000E-03 0.  1.
         11   -1    0    0    0    0 -0.00000000000E+00 -0.00000000000E+00 -0.45593999997E+02  0.45594000000E+02  0.51100000000E-03 0. -1.
    9900012    2    1    2    0    0  0.21061953593E+02  0.30580225587E+02  0.16565358167E+02  0.50528841409E+02  0.29999943947E+02 0.  0.
         12    1    1    2    0    0 -0.21061953593E+02 -0.30580225587E+02 -0.16565358167E+02  0.40659158591E+02  0.00000000000E+00 0. -1.
         11    1    3    3    0    0 -0.35388684611E+00  0.32157928425E+01  0.22038111759E+01  0.39145042427E+01  0.51100000000E-03 0. -1.
        -11    1    3    3    0    0  0.62294103388E+01  0.18912346168E+02 -0.50670102651E+01  0.20546459160E+02  0.51100000000E-03 0.  1.
        -12    1    3    3    0    0  0.15186430101E+02  0.84520865773E+01  0.19428557256E+02  0.26067878006E+02  0.00000000000E+00 0.  1.
</event>
<event>
 7    1  0.2991278E-011  0.5052891E+02  0.7816164E-02  0.1300439E+00
        -11   -1    0    0    0    0  0.00000000000E+00  0.00000000000E+00  0.45593999997E+02  0.45594000000E+02  0.51100000000E-03 0.  1.
         11   -1    0    0    0    0 -0.00000000000E+00 -0.00000000000E+00 -0.45593999997E+02  0.45594000000E+02  0.51100000000E-03 0. -1.
    9900012    2    1    2    0    0 -0.12674429320E+02 -0.25291465460E+02  0.29203807144E+02  0.50528908330E+02  0.30000147361E+02 0.  0.
         12    1    1    2    0    0  0.12674429320E+02  0.25291465460E+02 -0.29203807144E+02  0.40659091670E+02  0.00000000000E+00 0. -1.
         11    1    3    3    0    0  0.17342921820E+01 -0.38788392096E+01  0.24688916860E+01  0.49141214276E+01  0.51100000000E-03 0. -1.
        -11    1    3    3    0    0 -0.13088569545E+02 -0.28308720971E+01  0.23001655576E+02  0.26615796983E+02  0.51100000000E-03 0.  1.
        -12    1    3    3    0    0 -0.13201519571E+01 -0.18581754154E+02  0.37332598817E+01  0.18998989919E+02  0.00000000000E+00 0.  1.
</event>
<event>
 7    1  0.2991278E-011  0.5052886E+02  0.7816164E-02  0.1300439E+00
        -11   -1    0    0    0    0  0.00000000000E+00  0.00000000000E+00  0.45593999997E+02  0.45594000000E+02  0.51100000000E-03 0.  1.
         11   -1    0    0    0    0 -0.00000000000E+00 -0.00000000000E+00 -0.45593999997E+02  0.45594000000E+02  0.51100000000E-03 0. -1.
    9900012    2    1    2    0    0 -0.55159555841E+01  0.13366357748E+02  0.38001057374E+02  0.50528860227E+02  0.30000001147E+02 0.  0.
         12    1    1    2    0    0  0.55159555841E+01 -0.13366357748E+02 -0.38001057374E+02  0.40659139773E+02  0.00000000000E+00 0. -1.
         11    1    3    3    0    0 -0.43499782513E+01 -0.58179205131E+01  0.26778981618E+02  0.27746790205E+02  0.51100000000E-03 0. -1.
        -11    1    3    3    0    0 -0.24192723670E+01  0.89292034427E+01  0.70877746857E+01  0.11654188224E+02  0.51100000000E-03 0.  1.
         12    1    3    3    0    0  0.12532950341E+01  0.10255074819E+02  0.41343010702E+01  0.11127881799E+02  0.00000000000E+00 0. -1.
</event>
<event>
 7    1  0.2991278E-011  0.5052887E+02  0.7816164E-02  0.1300439E+00
        -11   -1    0    0    0    0  0.00000000000E+00  0.00000000000E+00  0.45593999997E+02  0.45594000000E+02  0.51100000000E-03 0.  1.
         11   -1    0    0    0    0 -0.00000000000E+00 -0.00000000000E+00 -0.45593999997E+02  0.45594000000E+02  0.51100000000E-03 0. -1.
    9900012    2    1    2    0    0 -0.29822158398E+02 -0.23400811773E+02  0.14703941280E+02  0.50528868033E+02  0.30000024872E+02 0.  0.
         12    1    1    2    0    0  0.29822158398E+02  0.23400811773E+02 -0.14703941280E+02  0.40659131967E+02  0.00000000000E+00 0. -1.
         11    1    3    3    0    0 -0.41244892168E+01 -0.53986828305E+01  0.29962338615E+00  0.68005118953E+01  0.51100000000E-03 0. -1.
        -11    1    3    3    0    0 -0.13382609324E+02 -0.53821447406E+01  0.20504588493E+02  0.25069899558E+02  0.51100000000E-03 0.  1.
        -12    1    3    3    0    0 -0.12315059857E+02 -0.12619984202E+02 -0.61002705991E+01  0.18658456579E+02  0.00000000000E+00 0.  1.
</event>
<event>
 7    1  0.2991278E-011  0.5052884E+02  0.7816164E-02  0.1300439E+00
        -11   -1    0    0    0    0  0.00000000000E+00  0.00000000000E+00  0.45593999997E+02  0.45594000000E+02  0.51100000000E-03 0.  1.
         11   -1    0    0    0    0 -0.00000000000E+00 -0.00000000000E+00 -0.45593999997E+02  0.45594000000E+02  0.51100000000E-03 0. -1.
    9900012    2    1    2    0    0  0.16159730919E+02 -0.16378439775E+02  0.33522787177E+02  0.50528838020E+02  0.29999933646E+02 0.  0.
         12    1    1    2    0    0 -0.16159730919E+02  0.16378439775E+02 -0.33522787177E+02  0.40659161980E+02  0.00000000000E+00 0. -1.
         11    1    3    3    0    0 -0.53025905897E+00 -0.10262885935E+02  0.53609332663E-01  0.10276715264E+02  0.51100000000E-03 0. -1.
        -11    1    3    3    0    0  0.18347550782E+02 -0.28845883348E+01  0.26063557855E+02  0.32004101579E+02  0.51100000000E-03 0.  1.
        -12    1    3    3    0    0 -0.16575608048E+01 -0.32309655049E+01  0.74056199888E+01  0.82480211769E+01  0.00000000000E+00 0.  1.
</event>
<event>
 7    1  0.2991278E-011  0.5052886E+02  0.7816164E-02  0.1300439E+00
        -11   -1    0    0    0    0  0.00000000000E+00  0.00000000000E+00  0.45593999997E+02  0.45594000000E+02  0.51100000000E-03 0. -1.
         11   -1    0    0    0    0 -0.00000000000E+00 -0.00000000000E+00 -0.45593999997E+02  0.45594000000E+02  0.51100000000E-03 0.  1.
    9900012    2    1    2    0    0  0.95207833058E+01  0.37447723388E+02 -0.12656546862E+02  0.50528862280E+02  0.30000007385E+02 0.  0.
         12    1    1    2    0    0 -0.95207833058E+01 -0.37447723388E+02  0.12656546862E+02  0.40659137720E+02  0.00000000000E+00 0. -1.
         11    1    3    3    0    0  0.14099912155E+02  0.19394955508E+02 -0.42321004639E+01  0.24349178560E+02  0.51100000000E-03 0.  1.
        -11    1    3    3    0    0 -0.83790205925E+01  0.28869206897E+01 -0.11539157651E+01  0.89372153948E+01  0.51100000000E-03 0. -1.
        -12    1    3    3    0    0  0.37998917438E+01  0.15165847190E+02 -0.72705306329E+01  0.17242468325E+02  0.00000000000E+00 0.  1.
</event>
<event>
 7    1  0.2991278E-011  0.5052887E+02  0.7816164E-02  0.1300439E+00
        -11   -1    0    0    0    0  0.00000000000E+00  0.00000000000E+00  0.45593999997E+02  0.45594000000E+02  0.51100000000E-03 0.  1.
         11   -1    0    0    0    0 -0.00000000000E+00 -0.00000000000E+00 -0.45593999997E+02  0.45594000000E+02  0.51100000000E-03 0. -1.
    9900012    2    1    2    0    0  0.34143218257E+02 -0.20917162851E+02  0.70624323595E+01  0.50528868117E+02  0.30000025128E+02 0.  0.
         12    1    1    2    0    0 -0.34143218257E+02  0.20917162851E+02 -0.70624323595E+01  0.40659131883E+02  0.00000000000E+00 0. -1.
         11    1    3    3    0    0  0.14324344855E+02 -0.82559097582E+01 -0.11511266366E+01  0.16573231255E+02  0.51100000000E-03 0. -1.
        -11    1    3    3    0    0  0.44927547465E+01 -0.16231899820E+02  0.67738249593E+01  0.18153350154E+02  0.51100000000E-03 0.  1.
        -12    1    3    3    0    0  0.15326118656E+02  0.35706467270E+01  0.14397340368E+01  0.15802286708E+02  0.00000000000E+00 0.  1.
</event>
<event>
 7    1  0.2991278E-011  0.5052886E+02  0.7816164E-02  0.1300439E+00
        -11   -1    0    0    0    0  0.00000000000E+00  0.00000000000E+00  0.45593999997E+02  0.45594000000E+02  0.51100000000E-03 0. -1.
         11   -1    0    0    0    0 -0.00000000000E+00 -0.00000000000E+00 -0.45593999997E+02  0.45594000000E+02  0.51100000000E-03 0.  1.
    9900012    2    1    2    0    0 -0.11758377093E+00  0.40222011652E+02  0.59448865741E+01  0.50528859286E+02  0.29999998285E+02 0.  0.
         12    1    1    2    0    0  0.11758377093E+00 -0.40222011652E+02 -0.59448865741E+01  0.40659140714E+02  0.00000000000E+00 0. -1.
         11    1    3    3    0    0  0.66909960340E+00 -0.14299475412E+01 -0.81127790535E+00  0.17749975636E+01  0.51100000000E-03 0. -1.
        -11    1    3    3    0    0  0.34235110098E+01  0.38424460080E+02 -0.18755950669E+01  0.38622239930E+02  0.51100000000E-03 0.  1.
        -12    1    3    3    0    0 -0.42101943841E+01  0.32274991125E+01  0.86317595463E+01  0.10131621792E+02  0.00000000000E+00 0.  1.
</event>
<event>
 7    1  0.2991278E-011  0.5052887E+02  0.7816164E-02  0.1300439E+00
        -11   -1    0    0    0    0  0.00000000000E+00  0.00000000000E+00  0.45593999997E+02  0.45594000000E+02  0.51100000000E-03 0. -1.
         11   -1    0    0    0    0 -0.00000000000E+00 -0.00000000000E+00 -0.45593999997E+02  0.45594000000E+02  0.51100000000E-03 0.  1.
    9900012    2    1    2    0    0 -0.18136990384E+02 -0.35853420664E+02  0.62246895002E+01  0.50528868764E+02  0.30000027096E+02 0.  0.
         12    1    1    2    0    0  0.18136990384E+02  0.35853420664E+02 -0.62246895002E+01  0.40659131236E+02  0.00000000000E+00 0. -1.
         11    1    3    3    0    0 -0.96566722120E+01  0.23239913545E+01  0.36755519127E+01  0.10590653245E+02  0.51100000000E-03 0. -1.
        -11    1    3    3    0    0 -0.96537015091E+01 -0.28356985758E+02  0.15047307092E+01  0.29992945986E+02  0.51100000000E-03 0.  1.
         12    1    3    3    0    0  0.11733833368E+01 -0.98204262595E+01  0.10444068783E+01  0.99452695339E+01  0.00000000000E+00 0. -1.
</event>
<event>
 7    1  0.2991278E-011  0.5052885E+02  0.7816164E-02  0.1300439E+00
        -11   -1    0    0    0    0  0.00000000000E+00  0.00000000000E+00  0.45593999997E+02  0.45594000000E+02  0.51100000000E-03 0.  1.
         11   -1    0    0    0    0 -0.00000000000E+00 -0.00000000000E+00 -0.45593999997E+02  0.45594000000E+02  0.51100000000E-03 0. -1.
    9900012    2    1    2    0    0 -0.13188748248E+02  0.27018602216E+02  0.27371851301E+02  0.50528853554E+02  0.29999980862E+02 0.  0.
         12    1    1    2    0    0  0.13188748248E+02 -0.27018602216E+02 -0.27371851301E+02  0.40659146446E+02  0.00000000000E+00 0. -1.
         11    1    3    3    0    0  0.25278430438E+01  0.54641395943E+00 -0.41050060777E+01  0.48517660525E+01  0.51100000000E-03 0. -1.
        -11    1    3    3    0    0 -0.12752127037E+02  0.95910335293E+01  0.14816728922E+02  0.21774758881E+02  0.51100000000E-03 0.  1.
        -12    1    3    3    0    0 -0.29644642555E+01  0.16881154728E+02  0.16660128457E+02  0.23902328620E+02  0.00000000000E+00 0.  1.
</event>
<event>
 7    1  0.2991278E-011  0.5052887E+02  0.7816164E-02  0.1300439E+00
        -11   -1    0    0    0    0  0.00000000000E+00  0.00000000000E+00  0.45593999997E+02  0.45594000000E+02  0.51100000000E-03 0.  1.
         11   -1    0    0    0    0 -0.00000000000E+00 -0.00000000000E+00 -0.45593999997E+02  0.45594000000E+02  0.51100000000E-03 0. -1.
    9900012    2    1    2    0    0  0.12700985529E+02  0.36724849664E+02  0.11963918640E+02  0.50528868609E+02  0.30000026624E+02 0.  0.
         12    1    1    2    0    0 -0.12700985529E+02 -0.36724849664E+02 -0.11963918640E+02  0.40659131391E+02  0.00000000000E+00 0. -1.
         11    1    3    3    0    0 -0.27167699834E+01  0.49024801463E+01 -0.31051187810E+01  0.64075669043E+01  0.51100000000E-03 0. -1.
        -11    1    3    3    0    0  0.44808733565E+01  0.16897126863E+02  0.18333626814E+02  0.25332054687E+02  0.51100000000E-03 0.  1.
        -12    1    3    3    0    0  0.10936882155E+02  0.14925242654E+02 -0.32645893929E+01  0.18789247017E+02  0.00000000000E+00 0.  1.
</event>
<event>
 7    1  0.2991278E-011  0.5052884E+02  0.7816164E-02  0.1300439E+00
        -11   -1    0    0    0    0  0.00000000000E+00  0.00000000000E+00  0.45593999997E+02  0.45594000000E+02  0.51100000000E-03 0. -1.
         11   -1    0    0    0    0 -0.00000000000E+00 -0.00000000000E+00 -0.45593999997E+02  0.45594000000E+02  0.51100000000E-03 0.  1.
    9900012    2    1    2    0    0 -0.86874393617E+01 -0.11776188627E+02 -0.37934377642E+02  0.50528840782E+02  0.29999942041E+02 0.  0.
         12    1    1    2    0    0  0.86874393617E+01  0.11776188627E+02  0.37934377642E+02  0.40659159218E+02  0.00000000000E+00 0. -1.
         11    1    3    3    0    0 -0.24063350152E+01 -0.14998029738E+02 -0.14296566970E+02  0.20859606219E+02  0.51100000000E-03 0. -1.
        -11    1    3    3    0    0 -0.78389098974E+01  0.65533911308E+01 -0.64288836673E+01  0.12071701999E+02  0.51100000000E-03 0.  1.
         12    1    3    3    0    0  0.15578055510E+01 -0.33315500192E+01 -0.17208927005E+02  0.17597532563E+02  0.00000000000E+00 0. -1.
</event>
<event>
 7    1  0.2991278E-011  0.5052889E+02  0.7816164E-02  0.1300439E+00
        -11   -1    0    0    0    0  0.00000000000E+00  0.00000000000E+00  0.45593999997E+02  0.45594000000E+02  0.51100000000E-03 0.  1.
         11   -1    0    0    0    0 -0.00000000000E+00 -0.00000000000E+00 -0.45593999997E+02  0.45594000000E+02  0.51100000000E-03 0. -1.
    9900012    2    1    2    0    0 -0.30727592688E+02 -0.21961693753E+02  0.15055314506E+02  0.50528887371E+02  0.30000083653E+02 0.  0.
         12    1    1    2    0    0  0.30727592688E+02  0.21961693753E+02 -0.15055314506E+02  0.40659112629E+02  0.00000000000E+00 0. -1.
         11    1    3    3    0    0 -0.28666500364E+02 -0.15330287642E+02 -0.11100657648E+01  0.32527191834E+02  0.51100000000E-03 0. -1.
        -11    1    3    3    0    0  0.37417880776E-01 -0.48042771761E+01  0.75582050124E+01  0.89559445372E+01  0.51100000000E-03 0.  1.
         12    1    3    3    0    0 -0.20985102043E+01 -0.18271289347E+01  0.86071752587E+01  0.90457510001E+01  0.00000000000E+00 0. -1.
</event>
<event>
 7    1  0.2991278E-011  0.5052886E+02  0.7816164E-02  0.1300439E+00
        -11   -1    0    0    0    0  0.00000000000E+00  0.00000000000E+00  0.45593999997E+02  0.45594000000E+02  0.51100000000E-03 0.  1.
         11   -1    0    0    0    0 -0.00000000000E+00 -0.00000000000E+00 -0.45593999997E+02  0.45594000000E+02  0.51100000000E-03 0. -1.
    9900012    2    1    2    0    0 -0.34106757807E+01 -0.12720441417E+02  0.38467172777E+02  0.50528859323E+02  0.29999998397E+02 0.  0.
         12    1    1    2    0    0  0.34106757807E+01  0.12720441417E+02 -0.38467172777E+02  0.40659140677E+02  0.00000000000E+00 0. -1.
         11    1    3    3    0    0  0.21429411335E+01 -0.11286827388E+02  0.37115403759E+02  0.38852771660E+02  0.51100000000E-03 0. -1.
        -11    1    3    3    0    0 -0.20087717146E+01  0.39220139573E+01  0.26242265852E+01  0.51287350014E+01  0.51100000000E-03 0.  1.
         12    1    3    3    0    0 -0.35448451995E+01 -0.53556279864E+01 -0.12724575668E+01  0.65473526616E+01  0.00000000000E+00 0. -1.
</event>
<event>
 7    1  0.2991278E-011  0.5052883E+02  0.7816164E-02  0.1300439E+00
        -11   -1    0    0    0    0  0.00000000000E+00  0.00000000000E+00  0.45593999997E+02  0.45594000000E+02  0.51100000000E-03 0. -1.
         11   -1    0    0    0    0 -0.00000000000E+00 -0.00000000000E+00 -0.45593999997E+02  0.45594000000E+02  0.51100000000E-03 0.  1.
    9900012    2    1    2    0    0  0.62245369911E+01  0.45626750229E+01 -0.39919983373E+02  0.50528832072E+02  0.29999915566E+02 0.  0.
         12    1    1    2    0    0 -0.62245369911E+01 -0.45626750229E+01  0.39919983373E+02  0.40659167928E+02  0.00000000000E+00 0. -1.
         11    1    3    3    0    0 -0.25962073483E+01 -0.48850798662E+01  0.84179925931E+00  0.55957952204E+01  0.51100000000E-03 0. -1.
        -11    1    3    3    0    0 -0.14099209117E+01  0.62624033491E+01 -0.25432559439E+02  0.26230147780E+02  0.51100000000E-03 0.  1.
         12    1    3    3    0    0  0.10230665251E+02  0.31853515400E+01 -0.15329223193E+02  0.18702889071E+02  0.00000000000E+00 0. -1.
</event>
<event>
 7    1  0.2991278E-011  0.5052891E+02  0.7816164E-02  0.1300439E+00
        -11   -1    0    0    0    0  0.00000000000E+00  0.00000000000E+00  0.45593999997E+02  0.45594000000E+02  0.51100000000E-03 0. -1.
         11   -1    0    0    0    0 -0.00000000000E+00 -0.00000000000E+00 -0.45593999997E+02  0.45594000000E+02  0.51100000000E-03 0.  1.
    9900012    2    1    2    0    0 -0.16380312759E+02 -0.21647390496E+02 -0.30269412099E+02  0.50528911591E+02  0.30000157273E+02 0.  0.
         12    1    1    2    0    0  0.16380312759E+02  0.21647390496E+02  0.30269412099E+02  0.40659088409E+02  0.00000000000E+00 0. -1.
         11    1    3    3    0    0 -0.16004389173E+02 -0.11147536038E+02 -0.24514165618E+02  0.31326543836E+02  0.51100000000E-03 0. -1.
        -11    1    3    3    0    0  0.36223040101E+01 -0.12825311199E+02 -0.59003657603E+01  0.14574773070E+02  0.51100000000E-03 0.  1.
         12    1    3    3    0    0 -0.39982275958E+01  0.23254567408E+01  0.14511927869E+00  0.46275946847E+01  0.00000000000E+00 0. -1.
</event>
<event>
 7    1  0.2991278E-011  0.5052893E+02  0.7816164E-02  0.1300439E+00
        -11   -1    0    0    0    0  0.00000000000E+00  0.00000000000E+00  0.45593999997E+02  0.45594000000E+02  0.51100000000E-03 0.  1.
         11   -1    0    0    0    0 -0.00000000000E+00 -0.00000000000E+00 -0.45593999997E+02  0.45594000000E+02  0.51100000000E-03 0. -1.
    9900012    2    1    2    0    0  0.47134017426E+01 -0.39604649428E+02  0.79003456940E+01  0.50528931216E+02  0.30000216924E+02 0.  0.
         12    1    1    2    0    0 -0.47134017426E+01  0.39604649428E+02 -0.79003456940E+01  0.40659068784E+02  0.00000000000E+00 0. -1.
         11    1    3    3    0    0  0.10248509046E+02 -0.84284750391E+01  0.63952451965E+01  0.14729911423E+02  0.51100000000E-03 0. -1.
        -11    1    3    3    0    0 -0.68428896049E+01 -0.32497642914E+02 -0.29442837356E+00  0.33211573606E+02  0.51100000000E-03 0.  1.
        -12    1    3    3    0    0  0.13077823011E+01  0.13214685250E+01  0.17995288710E+01  0.25874461864E+01  0.00000000000E+00 0.  1.
</event>
<event>
 7    1  0.2991278E-011  0.5052886E+02  0.7816164E-02  0.1300439E+00
        -11   -1    0    0    0    0  0.00000000000E+00  0.00000000000E+00  0.45593999997E+02  0.45594000000E+02  0.51100000000E-03 0.  1.
         11   -1    0    0    0    0 -0.00000000000E+00 -0.00000000000E+00 -0.45593999997E+02  0.45594000000E+02  0.51100000000E-03 0. -1.
    9900012    2    1    2    0    0 -0.29353080022E+02  0.20427720064E+02  0.19346075355E+02  0.50528859756E+02  0.29999999713E+02 0.  0.
         12    1    1    2    0    0  0.29353080022E+02 -0.20427720064E+02 -0.19346075355E+02  0.40659140244E+02  0.00000000000E+00 0. -1.
         11    1    3    3    0    0 -0.77181589916E+01 -0.15011935473E+01 -0.16305794428E+01  0.80300902776E+01  0.51100000000E-03 0. -1.
        -11    1    3    3    0    0 -0.20608642851E+02  0.16728102815E+02  0.24509433286E+02  0.36128353190E+02  0.51100000000E-03 0.  1.
        -12    1    3    3    0    0 -0.10262781792E+01  0.52008107965E+01 -0.35327784881E+01  0.63704162885E+01  0.00000000000E+00 0.  1.
</event>
<event>
 7    1  0.2991278E-011  0.5052894E+02  0.7816164E-02  0.1300439E+00
        -11   -1    0    0    0    0  0.00000000000E+00  0.00000000000E+00  0.45593999997E+02  0.45594000000E+02  0.51100000000E-03 0.  1.
         11   -1    0    0    0    0 -0.00000000000E+00 -0.00000000000E+00 -0.45593999997E+02  0.45594000000E+02  0.51100000000E-03 0. -1.
    9900012    2    1    2    0    0  0.81128762800E+01 -0.22599573254E+02  0.32811583191E+02  0.50528936259E+02  0.30000232253E+02 0.  0.
         12    1    1    2    0    0 -0.81128762800E+01  0.22599573254E+02 -0.32811583191E+02  0.40659063741E+02  0.00000000000E+00 0. -1.
         11    1    3    3    0    0 -0.27532178459E+01 -0.47852638017E+01 -0.33528049306E+01  0.64591221790E+01  0.51100000000E-03 0. -1.
        -11    1    3    3    0    0  0.67945994191E+01 -0.17474496887E+02  0.20070506772E+02  0.27465430364E+02  0.51100000000E-03 0.  1.
         12    1    3    3    0    0  0.40714947069E+01 -0.33981256510E+00  0.16093881349E+02  0.16604383716E+02  0.00000000000E+00 0. -1.
</event>
<event>
 7    1  0.2991278E-011  0.5052886E+02  0.7816164E-02  0.1300439E+00
        -11   -1    0    0    0    0  0.00000000000E+00  0.00000000000E+00  0.45593999997E+02  0.45594000000E+02  0.51100000000E-03 0. -1.
         11   -1    0    0    0    0 -0.00000000000E+00 -0.00000000000E+00 -0.45593999997E+02  0.45594000000E+02  0.51100000000E-03 0.  1.
    9900012    2    1    2    0    0  0.65012930451E+01  0.11632612669E+02 -0.38413292665E+02  0.50528861517E+02  0.30000005068E+02 0.  0.
         12    1    1    2    0    0 -0.65012930451E+01 -0.11632612669E+02  0.38413292665E+02  0.40659138483E+02  0.00000000000E+00 0. -1.
         11    1    3    3    0    0 -0.31610089919E+01 -0.18463562427E+01 -0.20735185203E+02  0.21055852272E+02  0.51100000000E-03 0. -1.
        -11    1    3    3    0    0  0.14212226103E+02  0.12036242020E+02 -0.15482188773E+02  0.24218931897E+02  0.51100000000E-03 0.  1.
         12    1    3    3    0    0 -0.45499240664E+01  0.14427268917E+01 -0.21959186891E+01  0.52540773485E+01  0.00000000000E+00 0. -1.
</event>
<event>
 7    1  0.2991278E-011  0.5052885E+02  0.7816164E-02  0.1300439E+00
        -11   -1    0    0    0    0  0.00000000000E+00  0.00000000000E+00  0.45593999997E+02  0.45594000000E+02  0.51100000000E-03 0.  1.
         11   -1    0    0    0    0 -0.00000000000E+00 -0.00000000000E+00 -0.45593999997E+02  0.45594000000E+02  0.51100000000E-03 0. -1.
    9900012    2    1    2    0    0 -0.21894083598E+02  0.32276669919E+02 -0.11490510829E+02  0.50528853959E+02  0.29999982094E+02 0.  0.
         12    1    1    2    0    0  0.21894083598E+02 -0.32276669919E+02  0.11490510829E+02  0.40659146041E+02  0.00000000000E+00 0. -1.
         11    1    3    3    0    0 -0.14141344843E+02  0.24861784859E+02 -0.15689801468E+02  0.32622934428E+02  0.51100000000E-03 0.  1.
        -11    1    3    3    0    0 -0.98498608287E+01  0.55444849805E+01  0.75045584064E+01  0.13567588923E+02  0.51100000000E-03 0. -1.
         12    1    3    3    0    0  0.20971220737E+01  0.18704000795E+01 -0.33052677675E+01  0.43383306080E+01  0.00000000000E+00 0. -1.
</event>
<event>
 7    1  0.2991278E-011  0.5052885E+02  0.7816164E-02  0.1300439E+00
        -11   -1    0    0    0    0  0.00000000000E+00  0.00000000000E+00  0.45593999997E+02  0.45594000000E+02  0.51100000000E-03 0.  1.
         11   -1    0    0    0    0 -0.00000000000E+00 -0.00000000000E+00 -0.45593999997E+02  0.45594000000E+02  0.51100000000E-03 0. -1.
    9900012    2    1    2    0    0 -0.52564600537E+01 -0.33470833983E+02  0.22477527156E+02  0.50528851867E+02  0.29999975736E+02 0.  0.
         12    1    1    2    0    0  0.52564600537E+01  0.33470833983E+02 -0.22477527156E+02  0.40659148133E+02  0.00000000000E+00 0. -1.
         11    1    3    3    0    0  0.72250174344E+01 -0.10325235638E+02 -0.24575548480E+01  0.12839429271E+02  0.51100000000E-03 0. -1.
        -11    1    3    3    0    0 -0.12982524652E+02 -0.13971953498E+02  0.17040059581E+02  0.25575868737E+02  0.51100000000E-03 0.  1.
         12    1    3    3    0    0  0.50104716394E+00 -0.91736448474E+01  0.78950224229E+01  0.12113553859E+02  0.00000000000E+00 0. -1.
</event>
<event>
 7    1  0.2991278E-011  0.5052887E+02  0.7816164E-02  0.1300439E+00
        -11   -1    0    0    0    0  0.00000000000E+00  0.00000000000E+00  0.45593999997E+02  0.45594000000E+02  0.51100000000E-03 0.  1.
         11   -1    0    0    0    0 -0.00000000000E+00 -0.00000000000E+00 -0.45593999997E+02  0.45594000000E+02  0.51100000000E-03 0. -1.
    9900012    2    1    2    0    0 -0.28363444646E+02  0.96084218079E+01  0.27501964963E+02  0.50528870169E+02  0.30000031365E+02 0.  0.
         12    1    1    2    0    0  0.28363444646E+02 -0.96084218079E+01 -0.27501964963E+02  0.40659129831E+02  0.00000000000E+00 0. -1.
         11    1    3    3    0    0 -0.87134699299E+01  0.15983773802E+02  0.73824509093E+01  0.19644494518E+02  0.51100000000E-03 0. -1.
        -11    1    3    3    0    0 -0.87854544357E+01 -0.28204571701E+01  0.19702262472E+01  0.94350930052E+01  0.51100000000E-03 0.  1.
         12    1    3    3    0    0 -0.10864520280E+02 -0.35548948242E+01  0.18149287807E+02  0.21449282646E+02  0.00000000000E+00 0. -1.
</event>
<event>
 7    1  0.2991278E-011  0.5052886E+02  0.7816164E-02  0.1300439E+00
        -11   -1    0    0    0    0  0.00000000000E+00  0.00000000000E+00  0.45593999997E+02  0.45594000000E+02  0.51100000000E-03 0.  1.
         11   -1    0    0    0    0 -0.00000000000E+00 -0.00000000000E+00 -0.45593999997E+02  0.45594000000E+02  0.51100000000E-03 0. -1.
    9900012    2    1    2    0    0  0.75366861409E+01 -0.31485762730E+02  0.24596972124E+02  0.50528856744E+02  0.29999990558E+02 0.  0.
         12    1    1    2    0    0 -0.75366861409E+01  0.31485762730E+02 -0.24596972124E+02  0.40659143256E+02  0.00000000000E+00 0. -1.
         11    1    3    3    0    0  0.72107760674E+01  0.49679462417E+00  0.94559071167E+01  0.11901944213E+02  0.51100000000E-03 0. -1.
        -11    1    3    3    0    0 -0.60982414859E+01 -0.12302904946E+02  0.10812851663E+02  0.17477636587E+02  0.51100000000E-03 0.  1.
        -12    1    3    3    0    0  0.64241515595E+01 -0.19679652408E+02  0.43282133447E+01  0.21149275943E+02  0.00000000000E+00 0.  1.
</event>
<event>
 7    1  0.2991278E-011  0.5052886E+02  0.7816164E-02  0.1300439E+00
        -11   -1    0    0    0    0  0.00000000000E+00  0.00000000000E+00  0.45593999997E+02  0.45594000000E+02  0.51100000000E-03 0.  1.
         11   -1    0    0    0    0 -0.00000000000E+00 -0.00000000000E+00 -0.45593999997E+02  0.45594000000E+02  0.51100000000E-03 0. -1.
    9900012    2    1    2    0    0  0.39052272221E+02  0.10991737624E+02 -0.26957951516E+01  0.50528861137E+02  0.30000003911E+02 0.  0.
         12    1    1    2    0    0 -0.39052272221E+02 -0.10991737624E+02  0.26957951516E+01  0.40659138863E+02  0.00000000000E+00 0. -1.
         11    1    3    3    0    0  0.27194624416E+02  0.14964497126E+02  0.90864834040E+01  0.32342664582E+02  0.51100000000E-03 0.  1.
        -11    1    3    3    0    0  0.31848090594E+01 -0.35963796373E+01 -0.62863600926E+01  0.79117178106E+01  0.51100000000E-03 0. -1.
        -12    1    3    3    0    0  0.86728387451E+01 -0.37637986449E+00 -0.54959184630E+01  0.10274478744E+02  0.00000000000E+00 0.  1.
</event>
<event>
 7    1  0.2991278E-011  0.5052885E+02  0.7816164E-02  0.1300439E+00
        -11   -1    0    0    0    0  0.00000000000E+00  0.00000000000E+00  0.45593999997E+02  0.45594000000E+02  0.51100000000E-03 0.  1.
         11   -1    0    0    0    0 -0.00000000000E+00 -0.00000000000E+00 -0.45593999997E+02  0.45594000000E+02  0.51100000000E-03 0. -1.
    9900012    2    1    2    0    0 -0.22622584542E+02  0.11654557731E+02  0.31710506445E+02  0.50528852612E+02  0.29999978000E+02 0.  0.
         12    1    1    2    0    0  0.22622584542E+02 -0.11654557731E+02 -0.31710506445E+02  0.40659147388E+02  0.00000000000E+00 0. -1.
         11    1    3    3    0    0 -0.43048565481E+01  0.12376634153E+02  0.19652083210E+02  0.23620271752E+02  0.51100000000E-03 0.  1.
        -11    1    3    3    0    0 -0.75396249277E+01  0.45444308064E+01 -0.13622716964E+01  0.89080626311E+01  0.51100000000E-03 0. -1.
         12    1    3    3    0    0 -0.10778103066E+02 -0.52665072280E+01  0.13420694932E+02  0.18000518230E+02  0.00000000000E+00 0. -1.
</event>
<event>
 7    1  0.2991278E-011  0.5052887E+02  0.7816164E-02  0.1300439E+00
        -11   -1    0    0    0    0  0.00000000000E+00  0.00000000000E+00  0.45593999997E+02  0.45594000000E+02  0.51100000000E-03 0.  1.
         11   -1    0    0    0    0 -0.00000000000E+00 -0.00000000000E+00 -0.45593999997E+02  0.45594000000E+02  0.51100000000E-03 0. -1.
    9900012    2    1    2    0    0 -0.29552637575E+02 -0.19221176390E+01  0.27858781554E+02  0.50528872690E+02  0.30000039030E+02 0.  0.
         12    1    1    2    0    0  0.29552637575E+02  0.19221176390E+01 -0.27858781554E+02  0.40659127310E+02  0.00000000000E+00 0. -1.
         11    1    3    3    0    0 -0.41567406244E+01 -0.96306556965E+01  0.16662827348E+02  0.19689536238E+02  0.51100000000E-03 0. -1.
        -11    1    3    3    0    0 -0.13256806888E+02  0.91850667457E+00  0.10458825846E+02  0.16910754617E+02  0.51100000000E-03 0.  1.
         12    1    3    3    0    0 -0.12139090063E+02  0.67900313829E+01  0.73712836032E+00  0.13928581836E+02  0.00000000000E+00 0. -1.
</event>
<event>
 7    1  0.2991278E-011  0.5052886E+02  0.7816164E-02  0.1300439E+00
        -11   -1    0    0    0    0  0.00000000000E+00  0.00000000000E+00  0.45593999997E+02  0.45594000000E+02  0.51100000000E-03 0.  1.
         11   -1    0    0    0    0 -0.00000000000E+00 -0.00000000000E+00 -0.45593999997E+02  0.45594000000E+02  0.51100000000E-03 0. -1.
    9900012    2    1    2    0    0 -0.94601708849E+01  0.24020756951E+01  0.39470251603E+02  0.50528861268E+02  0.30000004310E+02 0.  0.
         12    1    1    2    0    0  0.94601708849E+01 -0.24020756951E+01 -0.39470251603E+02  0.40659138732E+02  0.00000000000E+00 0. -1.
         11    1    3    3    0    0  0.46311889163E+00 -0.11753491292E+02  0.13345390471E+02  0.17789280023E+02  0.51100000000E-03 0. -1.
        -11    1    3    3    0    0 -0.27433603722E+01  0.11490904332E+02  0.18367207900E+02  0.21838526388E+02  0.51100000000E-03 0.  1.
        -12    1    3    3    0    0 -0.71799294043E+01  0.26646626558E+01  0.77576532324E+01  0.10901054857E+02  0.00000000000E+00 0.  1.
</event>
<event>
 7    1  0.2991278E-011  0.5052886E+02  0.7816164E-02  0.1300439E+00
        -11   -1    0    0    0    0  0.00000000000E+00  0.00000000000E+00  0.45593999997E+02  0.45594000000E+02  0.51100000000E-03 0.  1.
         11   -1    0    0    0    0 -0.00000000000E+00 -0.00000000000E+00 -0.45593999997E+02  0.45594000000E+02  0.51100000000E-03 0. -1.
    9900012    2    1    2    0    0 -0.34521042068E+01  0.28194746349E+02  0.29091319688E+02  0.50528860482E+02  0.30000001921E+02 0.  0.
         12    1    1    2    0    0  0.34521042068E+01 -0.28194746349E+02 -0.29091319688E+02  0.40659139518E+02  0.00000000000E+00 0. -1.
         11    1    3    3    0    0  0.55813680604E+01  0.56826862229E+01 -0.29150955110E+01  0.84818850636E+01  0.51100000000E-03 0. -1.
        -11    1    3    3    0    0 -0.10774370362E+02  0.10325158159E+02  0.18583249512E+02  0.23833445206E+02  0.51100000000E-03 0.  1.
        -12    1    3    3    0    0  0.17408980947E+01  0.12186901968E+02  0.13423165687E+02  0.18213530213E+02  0.00000000000E+00 0.  1.
</event>
<event>
 7    1  0.2991278E-011  0.5052888E+02  0.7816164E-02  0.1300439E+00
        -11   -1    0    0    0    0  0.00000000000E+00  0.00000000000E+00  0.45593999997E+02  0.45594000000E+02  0.51100000000E-03 0.  1.
         11   -1    0    0    0    0 -0.00000000000E+00 -0.00000000000E+00 -0.45593999997E+02  0.45594000000E+02  0.51100000000E-03 0. -1.
    9900012    2    1    2    0    0  0.26839380026E+01  0.36002862448E+02  0.18701716230E+02  0.50528882725E+02  0.30000069531E+02 0.  0.
         12    1    1    2    0    0 -0.26839380026E+01 -0.36002862448E+02 -0.18701716230E+02  0.40659117275E+02  0.00000000000E+00 0. -1.
         11    1    3    3    0    0 -0.28069172997E+01  0.23769012633E+02  0.59804053950E+01  0.24670022198E+02  0.51100000000E-03 0.  1.
        -11    1    3    3    0    0  0.52113333439E+01 -0.38033290346E+01  0.31364732094E+01  0.71736163419E+01  0.51100000000E-03 0. -1.
         12    1    3    3    0    0  0.27952195842E+00  0.16037178849E+02  0.95848376255E+01  0.18685244185E+02  0.00000000000E+00 0. -1.
</event>
<event>
 7    1  0.2991278E-011  0.5052887E+02  0.7816164E-02  0.1300439E+00
        -11   -1    0    0    0    0  0.00000000000E+00  0.00000000000E+00  0.45593999997E+02  0.45594000000E+02  0.51100000000E-03 0.  1.
         11   -1    0    0    0    0 -0.00000000000E+00 -0.00000000000E+00 -0.45593999997E+02  0.45594000000E+02  0.51100000000E-03 0. -1.
    9900012    2    1    2    0    0 -0.17283018421E+02  0.20958085653E+02  0.30252615000E+02  0.50528870714E+02  0.30000033021E+02 0.  0.
         12    1    1    2    0    0  0.17283018421E+02 -0.20958085653E+02 -0.30252615000E+02  0.40659129286E+02  0.00000000000E+00 0. -1.
         11    1    3    3    0    0 -0.37676010145E+01 -0.67044767564E+01  0.26927208190E+01  0.81483477866E+01  0.51100000000E-03 0. -1.
        -11    1    3    3    0    0 -0.13129441559E+02  0.17223702382E+02  0.20068416116E+02  0.29525912095E+02  0.51100000000E-03 0.  1.
         12    1    3    3    0    0 -0.38597584745E+00  0.10438860028E+02  0.74914780651E+01  0.12854610832E+02  0.00000000000E+00 0. -1.
</event>
<event>
 7    1  0.2991278E-011  0.5052886E+02  0.7816164E-02  0.1300439E+00
        -11   -1    0    0    0    0  0.00000000000E+00  0.00000000000E+00  0.45593999997E+02  0.45594000000E+02  0.51100000000E-03 0.  1.
         11   -1    0    0    0    0 -0.00000000000E+00 -0.00000000000E+00 -0.45593999997E+02  0.45594000000E+02  0.51100000000E-03 0. -1.
    9900012    2    1    2    0    0  0.36263468920E+02  0.18327461385E+02 -0.14935065214E+01  0.50528861043E+02  0.30000003628E+02 0.  0.
         12    1    1    2    0    0 -0.36263468920E+02 -0.18327461385E+02  0.14935065214E+01  0.40659138957E+02  0.00000000000E+00 0. -1.
         11    1    3    3    0    0 -0.43441540198E+01  0.11046325034E+01  0.97713109240E+00  0.45876652612E+01  0.51100000000E-03 0. -1.
        -11    1    3    3    0    0  0.35934972884E+02  0.17805003707E+02  0.95938487715E+00  0.40115593636E+02  0.51100000000E-03 0.  1.
         12    1    3    3    0    0  0.46726500564E+01 -0.58217482547E+00 -0.34300224910E+01  0.58256021462E+01  0.00000000000E+00 0. -1.
</event>
<event>
 7    1  0.2991278E-011  0.5052885E+02  0.7816164E-02  0.1300439E+00
        -11   -1    0    0    0    0  0.00000000000E+00  0.00000000000E+00  0.45593999997E+02  0.45594000000E+02  0.51100000000E-03 0. -1.
         11   -1    0    0    0    0 -0.00000000000E+00 -0.00000000000E+00 -0.45593999997E+02  0.45594000000E+02  0.51100000000E-03 0.  1.
    9900012    2    1    2    0    0  0.29430532364E+02 -0.17231716554E+02 -0.22137705995E+02  0.50528851985E+02  0.29999976092E+02 0.  0.
         12    1    1    2    0    0 -0.29430532364E+02  0.17231716554E+02  0.22137705995E+02  0.40659148015E+02  0.00000000000E+00 0. -1.
         11    1    3    3    0    0  0.19258506358E+02 -0.14806785426E+02 -0.20944610879E+02  0.32075032143E+02  0.51100000000E-03 0. -1.
        -11    1    3    3    0    0 -0.23138430032E+01  0.35495366843E+01  0.12069090157E+01  0.44056452138E+01  0.51100000000E-03 0.  1.
        -12    1    3    3    0    0  0.12485869009E+02 -0.59744678124E+01 -0.24000041309E+01  0.14048174628E+02  0.00000000000E+00 0.  1.
</event>
<event>
 7    1  0.2991278E-011  0.5052886E+02  0.7816164E-02  0.1300439E+00
        -11   -1    0    0    0    0  0.00000000000E+00  0.00000000000E+00  0.45593999997E+02  0.45594000000E+02  0.51100000000E-03 0.  1.
         11   -1    0    0    0    0 -0.00000000000E+00 -0.00000000000E+00 -0.45593999997E+02  0.45594000000E+02  0.51100000000E-03 0. -1.
    9900012    2    1    2    0    0  0.21704095628E+02  0.27153334321E+02  0.21090140369E+02  0.50528863849E+02  0.30000012156E+02 0.  0.
         12    1    1    2    0    0 -0.21704095628E+02 -0.27153334321E+02 -0.21090140369E+02  0.40659136151E+02  0.00000000000E+00 0. -1.
         11    1    3    3    0    0  0.79323656062E+01  0.21305454437E+02  0.18328476316E+02  0.29202360473E+02  0.51100000000E-03 0.  1.
        -11    1    3    3    0    0  0.16090263271E+02  0.31738676582E+01 -0.64657993710E+00  0.16413045845E+02  0.51100000000E-03 0. -1.
         12    1    3    3    0    0 -0.23185332495E+01  0.26740122260E+01  0.34082439899E+01  0.49134575309E+01  0.00000000000E+00 0. -1.
</event>
<event>
 7    1  0.2991278E-011  0.5052887E+02  0.7816164E-02  0.1300439E+00
        -11   -1    0    0    0    0  0.00000000000E+00  0.00000000000E+00  0.45593999997E+02  0.45594000000E+02  0.51100000000E-03 0. -1.
         11   -1    0    0    0    0 -0.00000000000E+00 -0.00000000000E+00 -0.45593999997E+02  0.45594000000E+02  0.51100000000E-03 0.  1.
    9900012    2    1    2    0    0 -0.37435333060E+02  0.15858652710E+02  0.51341956151E+00  0.50528872774E+02  0.30000039285E+02 0.  0.
         12    1    1    2    0    0  0.37435333060E+02 -0.15858652710E+02 -0.51341956151E+00  0.40659127226E+02  0.00000000000E+00 0. -1.
         11    1    3    3    0    0 -0.28453765522E+02  0.21578516436E+01 -0.26333551429E+01  0.28656720951E+02  0.51100000000E-03 0. -1.
        -11    1    3    3    0    0  0.22782315153E+01  0.24178465313E+01 -0.32955053942E+01  0.46793885018E+01  0.51100000000E-03 0.  1.
         12    1    3    3    0    0 -0.11259799053E+02  0.11282954535E+02  0.64422800986E+01  0.17192763321E+02  0.00000000000E+00 0. -1.
</event>
<event>
 7    1  0.2991278E-011  0.5052886E+02  0.7816164E-02  0.1300439E+00
        -11   -1    0    0    0    0  0.00000000000E+00  0.00000000000E+00  0.45593999997E+02  0.45594000000E+02  0.51100000000E-03 0.  1.
         11   -1    0    0    0    0 -0.00000000000E+00 -0.00000000000E+00 -0.45593999997E+02  0.45594000000E+02  0.51100000000E-03 0. -1.
    9900012    2    1    2    0    0 -0.10424033614E+02 -0.22079806099E+02  0.32511347259E+02  0.50528855705E+02  0.29999987402E+02 0.  0.
         12    1    1    2    0    0  0.10424033614E+02  0.22079806099E+02 -0.32511347259E+02  0.40659144295E+02  0.00000000000E+00 0. -1.
         11    1    3    3    0    0 -0.20219405423E+01  0.19439653084E+01  0.37014909692E+01  0.46441662689E+01  0.51100000000E-03 0. -1.
        -11    1    3    3    0    0  0.17253029133E+01 -0.25421074728E+02  0.20070789790E+02  0.32435232596E+02  0.51100000000E-03 0.  1.
        -12    1    3    3    0    0 -0.10127395985E+02  0.13973033211E+01  0.87390665004E+01  0.13449456841E+02  0.00000000000E+00 0.  1.
</event>
<event>
 7    1  0.2991278E-011  0.5052886E+02  0.7816164E-02  0.1300439E+00
        -11   -1    0    0    0    0  0.00000000000E+00  0.00000000000E+00  0.45593999997E+02  0.45594000000E+02  0.51100000000E-03 0.  1.
         11   -1    0    0    0    0 -0.00000000000E+00 -0.00000000000E+00 -0.45593999997E+02  0.45594000000E+02  0.51100000000E-03 0. -1.
    9900012    2    1    2    0    0 -0.34428494049E+02 -0.17506466758E+01  0.21558753012E+02  0.50528858374E+02  0.29999995514E+02 0.  0.
         12    1    1    2    0    0  0.34428494049E+02  0.17506466758E+01 -0.21558753012E+02  0.40659141626E+02  0.00000000000E+00 0. -1.
         11    1    3    3    0    0  0.12774423732E+01 -0.31502509486E+01 -0.43831213561E+01  0.55468633605E+01  0.51100000000E-03 0. -1.
        -11    1    3    3    0    0 -0.20091164345E+02  0.48703704102E+01  0.16079030092E+02  0.26189895029E+02  0.51100000000E-03 0.  1.
         12    1    3    3    0    0 -0.15614772077E+02 -0.34707661375E+01  0.98628442762E+01  0.18792099985E+02  0.00000000000E+00 0. -1.
</event>
<event>
 7    1  0.2991278E-011  0.5052886E+02  0.7816164E-02  0.1300439E+00
        -11   -1    0    0    0    0  0.00000000000E+00  0.00000000000E+00  0.45593999997E+02  0.45594000000E+02  0.51100000000E-03 0. -1.
         11   -1    0    0    0    0 -0.00000000000E+00 -0.00000000000E+00 -0.45593999997E+02  0.45594000000E+02  0.51100000000E-03 0.  1.
    9900012    2    1    2    0    0  0.37163565612E+02 -0.16037594308E+02  0.38510932049E+01  0.50528856391E+02  0.29999989485E+02 0.  0.
         12    1    1    2    0    0 -0.37163565612E+02  0.16037594308E+02 -0.38510932049E+01  0.40659143609E+02  0.00000000000E+00 0. -1.
         11    1    3    3    0    0  0.20740651177E+02 -0.18454248450E+02 -0.15839182544E-01  0.27762099132E+02  0.51100000000E-03 0. -1.
        -11    1    3    3    0    0  0.18162833520E+02  0.92395934484E+00 -0.98231195947E-01  0.18186584945E+02  0.51100000000E-03 0.  1.
         12    1    3    3    0    0 -0.17399190844E+01  0.14926947970E+01  0.39651635834E+01  0.45801723134E+01  0.00000000000E+00 0. -1.
</event>
<event>
 7    1  0.2991278E-011  0.5052886E+02  0.7816164E-02  0.1300439E+00
        -11   -1    0    0    0    0  0.00000000000E+00  0.00000000000E+00  0.45593999997E+02  0.45594000000E+02  0.51100000000E-03 0.  1.
         11   -1    0    0    0    0 -0.00000000000E+00 -0.00000000000E+00 -0.45593999997E+02  0.45594000000E+02  0.51100000000E-03 0. -1.
    9900012    2    1    2    0    0 -0.20688663411E+02  0.22801815599E+02  0.26556016181E+02  0.50528861006E+02  0.30000003514E+02 0.  0.
         12    1    1    2    0    0  0.20688663411E+02 -0.22801815599E+02 -0.26556016181E+02  0.40659138994E+02  0.00000000000E+00 0. -1.
         11    1    3    3    0    0 -0.58892396345E+01  0.64726688824E+01 -0.29221547284E+01  0.92259186237E+01  0.51100000000E-03 0. -1.
        -11    1    3    3    0    0 -0.15790370397E+02  0.75286516646E+01  0.26884579004E+02  0.32074865263E+02  0.51100000000E-03 0.  1.
         12    1    3    3    0    0  0.99094661973E+00  0.88004950516E+01  0.25935919055E+01  0.92280771198E+01  0.00000000000E+00 0. -1.
</event>
<event>
 7    1  0.2991278E-011  0.5052887E+02  0.7816164E-02  0.1300439E+00
        -11   -1    0    0    0    0  0.00000000000E+00  0.00000000000E+00  0.45593999997E+02  0.45594000000E+02  0.51100000000E-03 0.  1.
         11   -1    0    0    0    0 -0.00000000000E+00 -0.00000000000E+00 -0.45593999997E+02  0.45594000000E+02  0.51100000000E-03 0. -1.
    9900012    2    1    2    0    0 -0.30728832745E+02 -0.11565807806E+02  0.23981989231E+02  0.50528869665E+02  0.30000029835E+02 0.  0.
         12    1    1    2    0    0  0.30728832745E+02  0.11565807806E+02 -0.23981989231E+02  0.40659130335E+02  0.00000000000E+00 0. -1.
         11    1    3    3    0    0 -0.11215444477E+02 -0.11649979986E+02  0.62085056083E+01  0.17322060230E+02  0.51100000000E-03 0. -1.
        -11    1    3    3    0    0 -0.13134557627E+02 -0.47967149477E+01  0.20421137082E+02  0.24749705419E+02  0.51100000000E-03 0.  1.
        -12    1    3    3    0    0 -0.63788306410E+01  0.48808871270E+01 -0.26476534591E+01  0.84571040157E+01  0.00000000000E+00 0.  1.
</event>
<event>
 7    1  0.2991278E-011  0.5052885E+02  0.7816164E-02  0.1300439E+00
        -11   -1    0    0    0    0  0.00000000000E+00  0.00000000000E+00  0.45593999997E+02  0.45594000000E+02  0.51100000000E-03 0.  1.
         11   -1    0    0    0    0 -0.00000000000E+00 -0.00000000000E+00 -0.45593999997E+02  0.45594000000E+02  0.51100000000E-03 0. -1.
    9900012    2    1    2    0    0 -0.27406651368E+02 -0.27765935523E+02 -0.11449672437E+02  0.50528847112E+02  0.29999961281E+02 0.  0.
         12    1    1    2    0    0  0.27406651368E+02  0.27765935523E+02  0.11449672437E+02  0.40659152888E+02  0.00000000000E+00 0. -1.
         11    1    3    3    0    0  0.39911424922E+01 -0.54514843959E+01 -0.23714730736E+01  0.71604319221E+01  0.51100000000E-03 0. -1.
        -11    1    3    3    0    0 -0.24418722212E+02 -0.15538890183E+02  0.15195228377E+01  0.28983444455E+02  0.51100000000E-03 0.  1.
        -12    1    3    3    0    0 -0.69790716481E+01 -0.67755609438E+01 -0.10597722201E+02  0.14384970734E+02  0.00000000000E+00 0.  1.
</event>
<event>
 7    1  0.2991278E-011  0.5052888E+02  0.7816164E-02  0.1300439E+00
        -11   -1    0    0    0    0  0.00000000000E+00  0.00000000000E+00  0.45593999997E+02  0.45594000000E+02  0.51100000000E-03 0.  1.
         11   -1    0    0    0    0 -0.00000000000E+00 -0.00000000000E+00 -0.45593999997E+02  0.45594000000E+02  0.51100000000E-03 0. -1.
    9900012    2    1    2    0    0  0.28029445460E+02 -0.12528576597E+02  0.26656128136E+02  0.50528877880E+02  0.30000054805E+02 0.  0.
         12    1    1    2    0    0 -0.28029445460E+02  0.12528576597E+02 -0.26656128136E+02  0.40659122120E+02  0.00000000000E+00 0. -1.
         11    1    3    3    0    0  0.26997650881E+02 -0.34404879710E+01  0.89410868373E+01  0.28647044257E+02  0.51100000000E-03 0. -1.
        -11    1    3    3    0    0 -0.64910595176E+00 -0.84451096264E+01  0.69189712782E+01  0.10936790157E+02  0.51100000000E-03 0.  1.
         12    1    3    3    0    0  0.16809005308E+01 -0.64297899976E+00  0.10796070020E+02  0.10945043466E+02  0.00000000000E+00 0. -1.
</event>
<event>
 7    1  0.2991278E-011  0.5052891E+02  0.7816164E-02  0.1300439E+00
        -11   -1    0    0    0    0  0.00000000000E+00  0.00000000000E+00  0.45593999997E+02  0.45594000000E+02  0.51100000000E-03 0.  1.
         11   -1    0    0    0    0 -0.00000000000E+00 -0.00000000000E+00 -0.45593999997E+02  0.45594000000E+02  0.51100000000E-03 0. -1.
    9900012    2    1    2    0    0 -0.16359641644E+02 -0.10070265170E+02  0.35834525727E+02  0.50528913078E+02  0.30000161791E+02 0.  0.
         12    1    1    2    0    0  0.16359641644E+02  0.10070265170E+02 -0.35834525727E+02  0.40659086922E+02  0.00000000000E+00 0. -1.
         11    1    3    3    0    0 -0.15752508280E+02 -0.14098779548E+02  0.27248783638E+02  0.34487871953E+02  0.51100000000E-03 0. -1.
        -11    1    3    3    0    0 -0.18472536499E+01 -0.14100766186E+01  0.10016281641E+02  0.10282342160E+02  0.51100000000E-03 0.  1.
         12    1    3    3    0    0  0.12401202859E+01  0.54385909966E+01 -0.14305395529E+01  0.57586989646E+01  0.00000000000E+00 0. -1.
</event>
<event>
 7    1  0.2991278E-011  0.5052882E+02  0.7816164E-02  0.1300439E+00
        -11   -1    0    0    0    0  0.00000000000E+00  0.00000000000E+00  0.45593999997E+02  0.45594000000E+02  0.51100000000E-03 0.  1.
         11   -1    0    0    0    0 -0.00000000000E+00 -0.00000000000E+00 -0.45593999997E+02  0.45594000000E+02  0.51100000000E-03 0. -1.
    9900012    2    1    2    0    0  0.31502064396E+02  0.19974126861E+02  0.16180942330E+02  0.50528822687E+02  0.29999887039E+02 0.  0.
         12    1    1    2    0    0 -0.31502064396E+02 -0.19974126861E+02 -0.16180942330E+02  0.40659177313E+02  0.00000000000E+00 0. -1.
         11    1    3    3    0    0  0.53656882844E+01  0.15096121344E+02 -0.10153325351E+01  0.16053485317E+02  0.51100000000E-03 0. -1.
        -11    1    3    3    0    0  0.11828645317E+02  0.25175682894E-01  0.33213570081E+00  0.11833334198E+02  0.51100000000E-03 0.  1.
         12    1    3    3    0    0  0.14307730794E+02  0.48528298343E+01  0.16864139164E+02  0.22642003172E+02  0.00000000000E+00 0. -1.
</event>
<event>
 7    1  0.2991278E-011  0.5052886E+02  0.7816164E-02  0.1300439E+00
        -11   -1    0    0    0    0  0.00000000000E+00  0.00000000000E+00  0.45593999997E+02  0.45594000000E+02  0.51100000000E-03 0.  1.
         11   -1    0    0    0    0 -0.00000000000E+00 -0.00000000000E+00 -0.45593999997E+02  0.45594000000E+02  0.51100000000E-03 0. -1.
    9900012    2    1    2    0    0  0.28614368682E+02 -0.27427134186E+02  0.90628655228E+01  0.50528864296E+02  0.30000013515E+02 0.  0.
         12    1    1    2    0    0 -0.28614368682E+02  0.27427134186E+02 -0.90628655228E+01  0.40659135704E+02  0.00000000000E+00 0. -1.
         11    1    3    3    0    0  0.17160771220E+02 -0.26387331640E+02  0.16698687471E+02  0.35631860792E+02  0.51100000000E-03 0.  1.
        -11    1    3    3    0    0  0.79723721755E+01  0.19352017959E+01 -0.51527316821E+01  0.96878464142E+01  0.51100000000E-03 0. -1.
         12    1    3    3    0    0  0.34812252857E+01 -0.29750043415E+01 -0.24830902662E+01  0.52091570903E+01  0.00000000000E+00 0. -1.
</event>
<event>
 7    1  0.2991278E-011  0.5052882E+02  0.7816164E-02  0.1300439E+00
        -11   -1    0    0    0    0  0.00000000000E+00  0.00000000000E+00  0.45593999997E+02  0.45594000000E+02  0.51100000000E-03 0.  1.
         11   -1    0    0    0    0 -0.00000000000E+00 -0.00000000000E+00 -0.45593999997E+02  0.45594000000E+02  0.51100000000E-03 0. -1.
    9900012    2    1    2    0    0  0.19152133736E+02  0.30811242497E+02  0.18358437806E+02  0.50528817402E+02  0.29999870974E+02 0.  0.
         12    1    1    2    0    0 -0.19152133736E+02 -0.30811242497E+02 -0.18358437806E+02  0.40659182598E+02  0.00000000000E+00 0. -1.
         11    1    3    3    0    0  0.17133124831E+02  0.15345823544E+02  0.27699318437E+01  0.23167019433E+02  0.51100000000E-03 0. -1.
        -11    1    3    3    0    0  0.20956476162E+01  0.73667547224E+01  0.17445397028E+02  0.19052629524E+02  0.51100000000E-03 0.  1.
        -12    1    3    3    0    0 -0.76638711202E-01  0.80986642307E+01 -0.18568910654E+01  0.83091684448E+01  0.00000000000E+00 0.  1.
</event>
<event>
 7    1  0.2991278E-011  0.5052886E+02  0.7816164E-02  0.1300439E+00
        -11   -1    0    0    0    0  0.00000000000E+00  0.00000000000E+00  0.45593999997E+02  0.45594000000E+02  0.51100000000E-03 0. -1.
         11   -1    0    0    0    0 -0.00000000000E+00 -0.00000000000E+00 -0.45593999997E+02  0.45594000000E+02  0.51100000000E-03 0.  1.
    9900012    2    1    2    0    0 -0.25935439744E+02 -0.18550328571E+02 -0.25227047804E+02  0.50528859998E+02  0.30000000449E+02 0.  0.
         12    1    1    2    0    0  0.25935439744E+02  0.18550328571E+02  0.25227047804E+02  0.40659140002E+02  0.00000000000E+00 0. -1.
         11    1    3    3    0    0 -0.13562136571E+02  0.10905003770E+01  0.14025215483E+01  0.13678004475E+02  0.51100000000E-03 0. -1.
        -11    1    3    3    0    0 -0.35258546023E+01 -0.14884174971E+02 -0.14216275520E+02  0.20882356312E+02  0.51100000000E-03 0.  1.
        -12    1    3    3    0    0 -0.88474485704E+01 -0.47566539778E+01 -0.12413293833E+02  0.15968499211E+02  0.00000000000E+00 0.  1.
</event>
<event>
 7    1  0.2991278E-011  0.5052886E+02  0.7816164E-02  0.1300439E+00
        -11   -1    0    0    0    0  0.00000000000E+00  0.00000000000E+00  0.45593999997E+02  0.45594000000E+02  0.51100000000E-03 0.  1.
         11   -1    0    0    0    0 -0.00000000000E+00 -0.00000000000E+00 -0.45593999997E+02  0.45594000000E+02  0.51100000000E-03 0. -1.
    9900012    2    1    2    0    0  0.11873616009E+01 -0.28242542045E+02  0.29225236347E+02  0.50528862672E+02  0.30000008577E+02 0.  0.
         12    1    1    2    0    0 -0.11873616009E+01  0.28242542045E+02 -0.29225236347E+02  0.40659137328E+02  0.00000000000E+00 0. -1.
         11    1    3    3    0    0 -0.83979745489E+01 -0.12501674151E+02  0.13241653595E+01  0.15118572924E+02  0.51100000000E-03 0. -1.
        -11    1    3    3    0    0  0.15869357972E+01 -0.12650762893E+02  0.20188008460E+02  0.23877098921E+02  0.51100000000E-03 0.  1.
         12    1    3    3    0    0  0.79984003525E+01 -0.30901050008E+01  0.77130625269E+01  0.11533190827E+02  0.00000000000E+00 0. -1.
</event>
<event>
 7    1  0.2991278E-011  0.5052886E+02  0.7816164E-02  0.1300439E+00
        -11   -1    0    0    0    0  0.00000000000E+00  0.00000000000E+00  0.45593999997E+02  0.45594000000E+02  0.51100000000E-03 0.  1.
         11   -1    0    0    0    0 -0.00000000000E+00 -0.00000000000E+00 -0.45593999997E+02  0.45594000000E+02  0.51100000000E-03 0. -1.
    9900012    2    1    2    0    0  0.18021101395E+02  0.63749155131E+01  0.35885460353E+02  0.50528857018E+02  0.29999991392E+02 0.  0.
         12    1    1    2    0    0 -0.18021101395E+02 -0.63749155131E+01 -0.35885460353E+02  0.40659142982E+02  0.00000000000E+00 0. -1.
         11    1    3    3    0    0  0.13000650478E+02  0.17316610312E+01 -0.45426229987E+00  0.13123334838E+02  0.51100000000E-03 0. -1.
        -11    1    3    3    0    0  0.28462000461E+01  0.55953245373E+01  0.22307667276E+02  0.23174134956E+02  0.51100000000E-03 0.  1.
         12    1    3    3    0    0  0.21742508710E+01 -0.95207005538E+00  0.14032055377E+02  0.14231387224E+02  0.00000000000E+00 0. -1.
</event>
<event>
 7    1  0.2991278E-011  0.5052887E+02  0.7816164E-02  0.1300439E+00
        -11   -1    0    0    0    0  0.00000000000E+00  0.00000000000E+00  0.45593999997E+02  0.45594000000E+02  0.51100000000E-03 0.  1.
         11   -1    0    0    0    0 -0.00000000000E+00 -0.00000000000E+00 -0.45593999997E+02  0.45594000000E+02  0.51100000000E-03 0. -1.
    9900012    2    1    2    0    0 -0.27222597404E+02  0.73630049126E+01  0.29289608024E+02  0.50528870779E+02  0.30000033220E+02 0.  0.
         12    1    1    2    0    0  0.27222597404E+02 -0.73630049126E+01 -0.29289608024E+02  0.40659129221E+02  0.00000000000E+00 0. -1.
         11    1    3    3    0    0 -0.13623879653E+02  0.12653459678E+01 -0.34006432248E+01  0.14098779090E+02  0.51100000000E-03 0. -1.
        -11    1    3    3    0    0 -0.16502753246E+01  0.22229247576E+01  0.11209532207E+02  0.11546359413E+02  0.51100000000E-03 0.  1.
         12    1    3    3    0    0 -0.11948442426E+02  0.38747341872E+01  0.21480719042E+02  0.24883732276E+02  0.00000000000E+00 0. -1.
</event>
<event>
 7    1  0.2991278E-011  0.5052887E+02  0.7816164E-02  0.1300439E+00
        -11   -1    0    0    0    0  0.00000000000E+00  0.00000000000E+00  0.45593999997E+02  0.45594000000E+02  0.51100000000E-03 0. -1.
         11   -1    0    0    0    0 -0.00000000000E+00 -0.00000000000E+00 -0.45593999997E+02  0.45594000000E+02  0.51100000000E-03 0.  1.
    9900012    2    1    2    0    0  0.39832975913E+02 -0.55725769474E+01 -0.59535934821E+01  0.50528869915E+02  0.30000030595E+02 0.  0.
         12    1    1    2    0    0 -0.39832975913E+02  0.55725769474E+01  0.59535934821E+01  0.40659130085E+02  0.00000000000E+00 0. -1.
         11    1    3    3    0    0 -0.11539378481E+01  0.43737686839E+01  0.65556813675E-01  0.45239057256E+01  0.51100000000E-03 0. -1.
        -11    1    3    3    0    0  0.26871343265E+02 -0.61005738036E+00  0.26163281055E+01  0.27005303774E+02  0.51100000000E-03 0.  1.
        -12    1    3    3    0    0  0.14115570495E+02 -0.93362882509E+01 -0.86354784013E+01  0.18999660416E+02  0.00000000000E+00 0.  1.
</event>
<event>
 7    1  0.2991278E-011  0.5052886E+02  0.7816164E-02  0.1300439E+00
        -11   -1    0    0    0    0  0.00000000000E+00  0.00000000000E+00  0.45593999997E+02  0.45594000000E+02  0.51100000000E-03 0.  1.
         11   -1    0    0    0    0 -0.00000000000E+00 -0.00000000000E+00 -0.45593999997E+02  0.45594000000E+02  0.51100000000E-03 0. -1.
    9900012    2    1    2    0    0 -0.42533931713E+01 -0.33018085099E+02  0.23342673164E+02  0.50528859730E+02  0.29999999636E+02 0.  0.
         12    1    1    2    0    0  0.42533931713E+01  0.33018085099E+02 -0.23342673164E+02  0.40659140270E+02  0.00000000000E+00 0. -1.
         11    1    3    3    0    0 -0.50336295657E+01 -0.18120536416E+02  0.57225432341E+01  0.19658045883E+02  0.51100000000E-03 0. -1.
        -11    1    3    3    0    0  0.55624121881E+01  0.33295980828E+01  0.50722536191E+01  0.82313066873E+01  0.51100000000E-03 0.  1.
        -12    1    3    3    0    0 -0.47821757937E+01 -0.18227146766E+02  0.12547876311E+02  0.22639507160E+02  0.00000000000E+00 0.  1.
</event>
<event>
 7    1  0.2991278E-011  0.5052889E+02  0.7816164E-02  0.1300439E+00
        -11   -1    0    0    0    0  0.00000000000E+00  0.00000000000E+00  0.45593999997E+02  0.45594000000E+02  0.51100000000E-03 0.  1.
         11   -1    0    0    0    0 -0.00000000000E+00 -0.00000000000E+00 -0.45593999997E+02  0.45594000000E+02  0.51100000000E-03 0. -1.
    9900012    2    1    2    0    0  0.21062094321E+02  0.20674965865E+02  0.27966007745E+02  0.50528885156E+02  0.30000076921E+02 0.  0.
         12    1    1    2    0    0 -0.21062094321E+02 -0.20674965865E+02 -0.27966007745E+02  0.40659114844E+02  0.00000000000E+00 0. -1.
         11    1    3    3    0    0  0.70652447342E+01  0.84337108985E+01  0.19307771781E+02  0.22222403427E+02  0.51100000000E-03 0. -1.
        -11    1    3    3    0    0  0.88738541569E+01  0.14751513510E+02 -0.83035434851E+00  0.17234904323E+02  0.51100000000E-03 0.  1.
         12    1    3    3    0    0  0.51229954296E+01 -0.25102585437E+01  0.94885903124E+01  0.11071577405E+02  0.00000000000E+00 0. -1.
</event>
<event>
 7    1  0.2991278E-011  0.5052885E+02  0.7816164E-02  0.1300439E+00
        -11   -1    0    0    0    0  0.00000000000E+00  0.00000000000E+00  0.45593999997E+02  0.45594000000E+02  0.51100000000E-03 0.  1.
         11   -1    0    0    0    0 -0.00000000000E+00 -0.00000000000E+00 -0.45593999997E+02  0.45594000000E+02  0.51100000000E-03 0. -1.
    9900012    2    1    2    0    0  0.20743350032E+02  0.24502726526E+02  0.24949870678E+02  0.50528853125E+02  0.29999979558E+02 0.  0.
         12    1    1    2    0    0 -0.20743350032E+02 -0.24502726526E+02 -0.24949870678E+02  0.40659146875E+02  0.00000000000E+00 0. -1.
         11    1    3    3    0    0  0.75268500961E+01 -0.12874852058E+01 -0.46483365702E+01  0.89396937115E+01  0.51100000000E-03 0. -1.
        -11    1    3    3    0    0  0.21775815904E+01  0.62495232209E+01  0.50258954741E+01  0.83101159829E+01  0.51100000000E-03 0.  1.
         12    1    3    3    0    0  0.11038918346E+02  0.19540688511E+02  0.24572311774E+02  0.33279043430E+02  0.00000000000E+00 0. -1.
</event>
<event>
 7    1  0.2991278E-011  0.5052885E+02  0.7816164E-02  0.1300439E+00
        -11   -1    0    0    0    0  0.00000000000E+00  0.00000000000E+00  0.45593999997E+02  0.45594000000E+02  0.51100000000E-03 0. -1.
         11   -1    0    0    0    0 -0.00000000000E+00 -0.00000000000E+00 -0.45593999997E+02  0.45594000000E+02  0.51100000000E-03 0.  1.
    9900012    2    1    2    0    0 -0.10027431610E+02 -0.36867552405E+02 -0.13906846914E+02  0.50528853476E+02  0.29999980624E+02 0.  0.
         12    1    1    2    0    0  0.10027431610E+02  0.36867552405E+02  0.13906846914E+02  0.40659146524E+02  0.00000000000E+00 0. -1.
         11    1    3    3    0    0  0.12791643460E+01  0.29608890806E+01 -0.12965369213E+01  0.34762240753E+01  0.51100000000E-03 0. -1.
        -11    1    3    3    0    0 -0.52723091652E+01 -0.29218494440E+02 -0.16841283374E+02  0.34134242151E+02  0.51100000000E-03 0.  1.
        -12    1    3    3    0    0 -0.60342867905E+01 -0.10609947046E+02  0.42309733812E+01  0.12918387250E+02  0.00000000000E+00 0.  1.
</event>
<event>
 7    1  0.2991278E-011  0.5052877E+02  0.7816164E-02  0.1300439E+00
        -11   -1    0    0    0    0  0.00000000000E+00  0.00000000000E+00  0.45593999997E+02  0.45594000000E+02  0.51100000000E-03 0.  1.
         11   -1    0    0    0    0 -0.00000000000E+00 -0.00000000000E+00 -0.45593999997E+02  0.45594000000E+02  0.51100000000E-03 0. -1.
    9900012    2    1    2    0    0  0.19422541060E+02  0.10576833649E+02  0.34118452711E+02  0.50528765788E+02  0.29999714089E+02 0.  0.
         12    1    1    2    0    0 -0.19422541060E+02 -0.10576833649E+02 -0.34118452711E+02  0.40659234212E+02  0.00000000000E+00 0. -1.
         11    1    3    3    0    0 -0.11440610766E+00  0.23961909494E+01 -0.26982494977E+00  0.24140475530E+01  0.51100000000E-03 0. -1.
        -11    1    3    3    0    0  0.22350468453E+02  0.25791266847E+01  0.35218470295E+02  0.41791577916E+02  0.51100000000E-03 0.  1.
        -12    1    3    3    0    0 -0.28135212853E+01  0.56015160152E+01 -0.83019263393E+00  0.63231403196E+01  0.00000000000E+00 0.  1.
</event>
<event>
 7    1  0.2991278E-011  0.5052886E+02  0.7816164E-02  0.1300439E+00
        -11   -1    0    0    0    0  0.00000000000E+00  0.00000000000E+00  0.45593999997E+02  0.45594000000E+02  0.51100000000E-03 0.  1.
         11   -1    0    0    0    0 -0.00000000000E+00 -0.00000000000E+00 -0.45593999997E+02  0.45594000000E+02  0.51100000000E-03 0. -1.
    9900012    2    1    2    0    0 -0.20719932289E+02 -0.26611575527E+02  0.22708467742E+02  0.50528855232E+02  0.29999985964E+02 0.  0.
         12    1    1    2    0    0  0.20719932289E+02  0.26611575527E+02 -0.22708467742E+02  0.40659144768E+02  0.00000000000E+00 0. -1.
         11    1    3    3    0    0 -0.86078103499E+01 -0.23238620213E+02  0.16401986634E+02  0.29717890811E+02  0.51100000000E-03 0. -1.
        -11    1    3    3    0    0  0.48304772811E+00  0.39604949744E+01  0.46738910198E+01  0.61452512623E+01  0.51100000000E-03 0.  1.
        -12    1    3    3    0    0 -0.12595169667E+02 -0.73334502883E+01  0.16325900876E+01  0.14665713159E+02  0.00000000000E+00 0.  1.
</event>
<event>
 7    1  0.2991278E-011  0.5052891E+02  0.7816164E-02  0.1300439E+00
        -11   -1    0    0    0    0  0.00000000000E+00  0.00000000000E+00  0.45593999997E+02  0.45594000000E+02  0.51100000000E-03 0.  1.
         11   -1    0    0    0    0 -0.00000000000E+00 -0.00000000000E+00 -0.45593999997E+02  0.45594000000E+02  0.51100000000E-03 0. -1.
    9900012    2    1    2    0    0 -0.36209127951E+01 -0.13957153833E+02  0.38016426626E+02  0.50528906970E+02  0.30000143225E+02 0.  0.
         12    1    1    2    0    0  0.36209127951E+01  0.13957153833E+02 -0.38016426626E+02  0.40659093030E+02  0.00000000000E+00 0. -1.
         11    1    3    3    0    0 -0.10802247352E+02 -0.11015494871E+02  0.22156737926E+02  0.26999087224E+02  0.51100000000E-03 0. -1.
        -11    1    3    3    0    0  0.10828485906E+02 -0.54453755101E+01  0.14506571862E+02  0.18903672895E+02  0.51100000000E-03 0.  1.
         12    1    3    3    0    0 -0.36471513488E+01  0.25037165477E+01  0.13531168380E+01  0.46261468513E+01  0.00000000000E+00 0. -1.
</event>
<event>
 7    1  0.2991278E-011  0.5052887E+02  0.7816164E-02  0.1300439E+00
        -11   -1    0    0    0    0  0.00000000000E+00  0.00000000000E+00  0.45593999997E+02  0.45594000000E+02  0.51100000000E-03 0.  1.
         11   -1    0    0    0    0 -0.00000000000E+00 -0.00000000000E+00 -0.45593999997E+02  0.45594000000E+02  0.51100000000E-03 0. -1.
    9900012    2    1    2    0    0 -0.71632843862E+01 -0.35593450817E+02 -0.18301864315E+02  0.50528872837E+02  0.30000039476E+02 0.  0.
         12    1    1    2    0    0  0.71632843862E+01  0.35593450817E+02  0.18301864315E+02  0.40659127163E+02  0.00000000000E+00 0. -1.
         11    1    3    3    0    0 -0.16142458669E+02 -0.18592041137E+02 -0.40783053274E+01  0.24957474634E+02  0.51100000000E-03 0. -1.
        -11    1    3    3    0    0  0.31907405510E+01  0.58349161174E-01 -0.27521552778E+01  0.42140940690E+01  0.51100000000E-03 0.  1.
         12    1    3    3    0    0  0.57884337322E+01 -0.17059758841E+02 -0.11471403709E+02  0.21357304134E+02  0.00000000000E+00 0. -1.
</event>
<event>
 7    1  0.2991278E-011  0.5052886E+02  0.7816164E-02  0.1300439E+00
        -11   -1    0    0    0    0  0.00000000000E+00  0.00000000000E+00  0.45593999997E+02  0.45594000000E+02  0.51100000000E-03 0. -1.
         11   -1    0    0    0    0 -0.00000000000E+00 -0.00000000000E+00 -0.45593999997E+02  0.45594000000E+02  0.51100000000E-03 0.  1.
    9900012    2    1    2    0    0 -0.21524412251E+02  0.85387560922E+01 -0.33420874385E+02  0.50528861753E+02  0.30000005785E+02 0.  0.
         12    1    1    2    0    0  0.21524412251E+02 -0.85387560922E+01  0.33420874385E+02  0.40659138247E+02  0.00000000000E+00 0. -1.
         11    1    3    3    0    0  0.56384674123E+01  0.27313993576E+01 -0.10971845573E+02  0.12634644939E+02  0.51100000000E-03 0. -1.
        -11    1    3    3    0    0 -0.24325006658E+02  0.64999512104E+00 -0.15797200371E+02  0.29011721466E+02  0.51100000000E-03 0.  1.
         12    1    3    3    0    0 -0.28378730051E+01  0.51573616135E+01 -0.66518284405E+01  0.88824953480E+01  0.00000000000E+00 0. -1.
</event>
<event>
 7    1  0.2991278E-011  0.5052886E+02  0.7816164E-02  0.1300439E+00
        -11   -1    0    0    0    0  0.00000000000E+00  0.00000000000E+00  0.45593999997E+02  0.45594000000E+02  0.51100000000E-03 0. -1.
         11   -1    0    0    0    0 -0.00000000000E+00 -0.00000000000E+00 -0.45593999997E+02  0.45594000000E+02  0.51100000000E-03 0.  1.
    9900012    2    1    2    0    0  0.20703160830E+02 -0.34417456051E+02 -0.63232503437E+01  0.50528860261E+02  0.30000001251E+02 0.  0.
         12    1    1    2    0    0 -0.20703160830E+02  0.34417456051E+02  0.63232503437E+01  0.40659139739E+02  0.00000000000E+00 0. -1.
         11    1    3    3    0    0  0.58731245217E+01 -0.10652842526E+02  0.36183768046E+01  0.12691307911E+02  0.51100000000E-03 0. -1.
        -11    1    3    3    0    0 -0.58678296068E+01 -0.39559403024E+01 -0.52385727389E+01  0.88047448897E+01  0.51100000000E-03 0.  1.
        -12    1    3    3    0    0  0.20697865915E+02 -0.19808673223E+02 -0.47030544094E+01  0.29032807461E+02  0.00000000000E+00 0.  1.
</event>
<event>
 7    1  0.2991278E-011  0.5052889E+02  0.7816164E-02  0.1300439E+00
        -11   -1    0    0    0    0  0.00000000000E+00  0.00000000000E+00  0.45593999997E+02  0.45594000000E+02  0.51100000000E-03 0.  1.
         11   -1    0    0    0    0 -0.00000000000E+00 -0.00000000000E+00 -0.45593999997E+02  0.45594000000E+02  0.51100000000E-03 0. -1.
    9900012    2    1    2    0    0 -0.13385970932E+02  0.37819344791E+02 -0.66088254171E+01  0.50528885012E+02  0.30000076483E+02 0.  0.
         12    1    1    2    0    0  0.13385970932E+02 -0.37819344791E+02  0.66088254171E+01  0.40659114988E+02  0.00000000000E+00 0. -1.
         11    1    3    3    0    0  0.23371378306E+01  0.43608175897E+01 -0.73372730555E+01  0.88495491095E+01  0.51100000000E-03 0. -1.
        -11    1    3    3    0    0 -0.96387050588E+01  0.34101608716E+02 -0.48950281654E+00  0.35440992727E+02  0.51100000000E-03 0.  1.
         12    1    3    3    0    0 -0.60844037038E+01 -0.64308151480E+00  0.12179504549E+01  0.62383431755E+01  0.00000000000E+00 0. -1.
</event>
<event>
 7    1  0.2991278E-011  0.5052886E+02  0.7816164E-02  0.1300439E+00
        -11   -1    0    0    0    0  0.00000000000E+00  0.00000000000E+00  0.45593999997E+02  0.45594000000E+02  0.51100000000E-03 0.  1.
         11   -1    0    0    0    0 -0.00000000000E+00 -0.00000000000E+00 -0.45593999997E+02  0.45594000000E+02  0.51100000000E-03 0. -1.
    9900012    2    1    2    0    0  0.32403082814E+02 -0.24003610038E+02  0.51993166800E+01  0.50528856322E+02  0.29999989275E+02 0.  0.
         12    1    1    2    0    0 -0.32403082814E+02  0.24003610038E+02 -0.51993166800E+01  0.40659143678E+02  0.00000000000E+00 0. -1.
         11    1    3    3    0    0  0.75278692020E+01  0.43036472118E+01  0.20266025325E+01  0.89049038249E+01  0.51100000000E-03 0. -1.
        -11    1    3    3    0    0  0.95775385476E+01 -0.23237928498E+02  0.41680708187E+01  0.25477507338E+02  0.51100000000E-03 0.  1.
        -12    1    3    3    0    0  0.15297675065E+02 -0.50693287515E+01 -0.99535667122E+00  0.16146445159E+02  0.00000000000E+00 0.  1.
</event>
<event>
 7    1  0.2991278E-011  0.5052886E+02  0.7816164E-02  0.1300439E+00
        -11   -1    0    0    0    0  0.00000000000E+00  0.00000000000E+00  0.45593999997E+02  0.45594000000E+02  0.51100000000E-03 0. -1.
         11   -1    0    0    0    0 -0.00000000000E+00 -0.00000000000E+00 -0.45593999997E+02  0.45594000000E+02  0.51100000000E-03 0.  1.
    9900012    2    1    2    0    0 -0.18546446018E+02 -0.17464077132E+02 -0.31689130001E+02  0.50528860681E+02  0.30000002525E+02 0.  0.
         12    1    1    2    0    0  0.18546446018E+02  0.17464077132E+02  0.31689130001E+02  0.40659139319E+02  0.00000000000E+00 0. -1.
         11    1    3    3    0    0 -0.45004518627E+01  0.67710820467E+01 -0.26722245786E+01  0.85581775812E+01  0.51100000000E-03 0. -1.
        -11    1    3    3    0    0 -0.71904863880E+01 -0.86064557638E+01 -0.19327804163E+02  0.22345876339E+02  0.51100000000E-03 0.  1.
         12    1    3    3    0    0 -0.68555077670E+01 -0.15628703415E+02 -0.96891012592E+01  0.19624806761E+02  0.00000000000E+00 0. -1.
</event>
<event>
 7    1  0.2991278E-011  0.5052886E+02  0.7816164E-02  0.1300439E+00
        -11   -1    0    0    0    0  0.00000000000E+00  0.00000000000E+00  0.45593999997E+02  0.45594000000E+02  0.51100000000E-03 0.  1.
         11   -1    0    0    0    0 -0.00000000000E+00 -0.00000000000E+00 -0.45593999997E+02  0.45594000000E+02  0.51100000000E-03 0. -1.
    9900012    2    1    2    0    0 -0.17756297398E+01  0.37444623328E+02  0.15745246578E+02  0.50528862443E+02  0.30000007880E+02 0.  0.
         12    1    1    2    0    0  0.17756297398E+01 -0.37444623328E+02 -0.15745246578E+02  0.40659137557E+02  0.00000000000E+00 0. -1.
         11    1    3    3    0    0  0.20203593543E+01  0.34386109596E+00 -0.56106439499E+01  0.59732251061E+01  0.51100000000E-03 0. -1.
        -11    1    3    3    0    0 -0.55555518914E+01  0.75485105213E+01  0.67063997475E+01  0.11524754476E+02  0.51100000000E-03 0.  1.
         12    1    3    3    0    0  0.17595627973E+01  0.29552251710E+02  0.14649490780E+02  0.33030882860E+02  0.00000000000E+00 0. -1.
</event>
<event>
 7    1  0.2991278E-011  0.5052886E+02  0.7816164E-02  0.1300439E+00
        -11   -1    0    0    0    0  0.00000000000E+00  0.00000000000E+00  0.45593999997E+02  0.45594000000E+02  0.51100000000E-03 0. -1.
         11   -1    0    0    0    0 -0.00000000000E+00 -0.00000000000E+00 -0.45593999997E+02  0.45594000000E+02  0.51100000000E-03 0.  1.
    9900012    2    1    2    0    0  0.20403122596E+02 -0.27860221234E+02 -0.21463602348E+02  0.50528861241E+02  0.30000004229E+02 0.  0.
         12    1    1    2    0    0 -0.20403122596E+02  0.27860221234E+02  0.21463602348E+02  0.40659138759E+02  0.00000000000E+00 0. -1.
         11    1    3    3    0    0  0.22114071707E+02 -0.25123588354E+02 -0.24825470885E+02  0.41671703399E+02  0.51100000000E-03 0. -1.
        -11    1    3    3    0    0  0.29878258333E+01 -0.11049641995E+01  0.17130301380E+01  0.36169768602E+01  0.51100000000E-03 0.  1.
         12    1    3    3    0    0 -0.46987749444E+01 -0.16316686804E+01  0.16488383993E+01  0.52401809824E+01  0.00000000000E+00 0. -1.
</event>
<event>
 7    1  0.2991278E-011  0.5052886E+02  0.7816164E-02  0.1300439E+00
        -11   -1    0    0    0    0  0.00000000000E+00  0.00000000000E+00  0.45593999997E+02  0.45594000000E+02  0.51100000000E-03 0. -1.
         11   -1    0    0    0    0 -0.00000000000E+00 -0.00000000000E+00 -0.45593999997E+02  0.45594000000E+02  0.51100000000E-03 0.  1.
    9900012    2    1    2    0    0 -0.22055005144E+02 -0.33951915089E+02 -0.37429908225E+01  0.50528858710E+02  0.29999996536E+02 0.  0.
         12    1    1    2    0    0  0.22055005144E+02  0.33951915089E+02  0.37429908225E+01  0.40659141290E+02  0.00000000000E+00 0. -1.
         11    1    3    3    0    0 -0.37683147944E+01  0.63841660422E+00 -0.10289646193E+01  0.39580981038E+01  0.51100000000E-03 0. -1.
        -11    1    3    3    0    0 -0.13106630314E+02 -0.30706824056E+02 -0.11802834974E+02  0.35411858402E+02  0.51100000000E-03 0.  1.
        -12    1    3    3    0    0 -0.51800600348E+01 -0.38835076372E+01  0.90888087706E+01  0.11158902204E+02  0.00000000000E+00 0.  1.
</event>
<event>
 7    1  0.2991278E-011  0.5052881E+02  0.7816164E-02  0.1300439E+00
        -11   -1    0    0    0    0  0.00000000000E+00  0.00000000000E+00  0.45593999997E+02  0.45594000000E+02  0.51100000000E-03 0. -1.
         11   -1    0    0    0    0 -0.00000000000E+00 -0.00000000000E+00 -0.45593999997E+02  0.45594000000E+02  0.51100000000E-03 0.  1.
    9900012    2    1    2    0    0  0.37328200257E+02 -0.51470299972E+01 -0.15273622458E+02  0.50528806756E+02  0.29999838616E+02 0.  0.
         12    1    1    2    0    0 -0.37328200257E+02  0.51470299972E+01  0.15273622458E+02  0.40659193244E+02  0.00000000000E+00 0. -1.
         11    1    3    3    0    0  0.93816717026E+01  0.43642397149E+01  0.20590006981E+01  0.10549968548E+02  0.51100000000E-03 0. -1.
        -11    1    3    3    0    0  0.21764339807E+02 -0.33727976452E+01 -0.21087792742E+02  0.30491921130E+02  0.51100000000E-03 0.  1.
        -12    1    3    3    0    0  0.61821887482E+01 -0.61384720669E+01  0.37551695867E+01  0.94869170788E+01  0.00000000000E+00 0.  1.
</event>
<event>
 7    1  0.2991278E-011  0.5052884E+02  0.7816164E-02  0.1300439E+00
        -11   -1    0    0    0    0  0.00000000000E+00  0.00000000000E+00  0.45593999997E+02  0.45594000000E+02  0.51100000000E-03 0.  1.
         11   -1    0    0    0    0 -0.00000000000E+00 -0.00000000000E+00 -0.45593999997E+02  0.45594000000E+02  0.51100000000E-03 0. -1.
    9900012    2    1    2    0    0 -0.34610856065E+01 -0.19921189170E+02  0.35275126644E+02  0.50528838040E+02  0.29999933707E+02 0.  0.
         12    1    1    2    0    0  0.34610856065E+01  0.19921189170E+02 -0.35275126644E+02  0.40659161960E+02  0.00000000000E+00 0. -1.
         11    1    3    3    0    0  0.47515218295E+01 -0.80137277030E+01  0.23386687532E+02  0.25174072880E+02  0.51100000000E-03 0.  1.
        -11    1    3    3    0    0 -0.60345734832E+01 -0.92275135323E+01 -0.18581385287E+01  0.11181044771E+02  0.51100000000E-03 0. -1.
         12    1    3    3    0    0 -0.21780339529E+01 -0.26799479346E+01  0.13746577641E+02  0.14173720390E+02  0.00000000000E+00 0. -1.
</event>
<event>
 7    1  0.2991278E-011  0.5052889E+02  0.7816164E-02  0.1300439E+00
        -11   -1    0    0    0    0  0.00000000000E+00  0.00000000000E+00  0.45593999997E+02  0.45594000000E+02  0.51100000000E-03 0. -1.
         11   -1    0    0    0    0 -0.00000000000E+00 -0.00000000000E+00 -0.45593999997E+02  0.45594000000E+02  0.51100000000E-03 0.  1.
    9900012    2    1    2    0    0 -0.32739401435E+02  0.72771180335E+01  0.22985609917E+02  0.50528891347E+02  0.30000095738E+02 0.  0.
         12    1    1    2    0    0  0.32739401435E+02 -0.72771180335E+01 -0.22985609917E+02  0.40659108653E+02  0.00000000000E+00 0. -1.
         11    1    3    3    0    0  0.51564892288E-01 -0.12573861627E+01  0.21321515478E+01  0.24758330687E+01  0.51100000000E-03 0. -1.
        -11    1    3    3    0    0 -0.26303114454E+02  0.17183135260E+02  0.10615608406E+02  0.33163309688E+02  0.51100000000E-03 0.  1.
        -12    1    3    3    0    0 -0.64878518729E+01 -0.86486310639E+01  0.10237849964E+02  0.14889748590E+02  0.00000000000E+00 0.  1.
</event>
<event>
 7    1  0.2991278E-011  0.5052887E+02  0.7816164E-02  0.1300439E+00
        -11   -1    0    0    0    0  0.00000000000E+00  0.00000000000E+00  0.45593999997E+02  0.45594000000E+02  0.51100000000E-03 0.  1.
         11   -1    0    0    0    0 -0.00000000000E+00 -0.00000000000E+00 -0.45593999997E+02  0.45594000000E+02  0.51100000000E-03 0. -1.
    9900012    2    1    2    0    0  0.13904981894E+02 -0.10941092471E+01  0.38191874878E+02  0.50528869374E+02  0.30000028950E+02 0.  0.
         12    1    1    2    0    0 -0.13904981894E+02  0.10941092471E+01 -0.38191874878E+02  0.40659130626E+02  0.00000000000E+00 0. -1.
         11    1    3    3    0    0 -0.83679300204E+00 -0.34004637707E+01 -0.26038613206E+01  0.43638824941E+01  0.51100000000E-03 0. -1.
        -11    1    3    3    0    0  0.17763437928E+02  0.34556569536E+01  0.36930937083E+02  0.41126334703E+02  0.51100000000E-03 0.  1.
        -12    1    3    3    0    0 -0.30216630322E+01 -0.11493024300E+01  0.38647991155E+01  0.50386521768E+01  0.00000000000E+00 0.  1.
</event>
<event>
 7    1  0.2991278E-011  0.5052885E+02  0.7816164E-02  0.1300439E+00
        -11   -1    0    0    0    0  0.00000000000E+00  0.00000000000E+00  0.45593999997E+02  0.45594000000E+02  0.51100000000E-03 0.  1.
         11   -1    0    0    0    0 -0.00000000000E+00 -0.00000000000E+00 -0.45593999997E+02  0.45594000000E+02  0.51100000000E-03 0. -1.
    9900012    2    1    2    0    0  0.37198737887E+02 -0.37382519607E+01  0.15982675311E+02  0.50528849269E+02  0.29999967838E+02 0.  0.
         12    1    1    2    0    0 -0.37198737887E+02  0.37382519607E+01 -0.15982675311E+02  0.40659150731E+02  0.00000000000E+00 0. -1.
         11    1    3    3    0    0  0.15658592937E+02  0.41946608383E+00 -0.48536859789E+01  0.16398955833E+02  0.51100000000E-03 0. -1.
        -11    1    3    3    0    0  0.13970645642E+01 -0.44644001134E+01  0.10483791671E+02  0.11480093459E+02  0.51100000000E-03 0.  1.
        -12    1    3    3    0    0  0.20143080385E+02  0.30668206887E+00  0.10352569619E+02  0.22649799977E+02  0.00000000000E+00 0.  1.
</event>
<event>
 7    1  0.2991278E-011  0.5052886E+02  0.7816164E-02  0.1300439E+00
        -11   -1    0    0    0    0  0.00000000000E+00  0.00000000000E+00  0.45593999997E+02  0.45594000000E+02  0.51100000000E-03 0.  1.
         11   -1    0    0    0    0 -0.00000000000E+00 -0.00000000000E+00 -0.45593999997E+02  0.45594000000E+02  0.51100000000E-03 0. -1.
    9900012    2    1    2    0    0 -0.47234300781E+01 -0.26669158863E+02  0.30325084208E+02  0.50528861317E+02  0.30000004460E+02 0.  0.
         12    1    1    2    0    0  0.47234300781E+01  0.26669158863E+02 -0.30325084208E+02  0.40659138683E+02  0.00000000000E+00 0. -1.
         11    1    3    3    0    0 -0.61080631562E+00 -0.22839184919E+02  0.16855886639E+02  0.28392294144E+02  0.51100000000E-03 0. -1.
        -11    1    3    3    0    0  0.52119535681E+01  0.17148887102E+01  0.94595613872E+00  0.55677766264E+01  0.51100000000E-03 0.  1.
        -12    1    3    3    0    0 -0.93245773305E+01 -0.55448626548E+01  0.12523241431E+02  0.16568790547E+02  0.00000000000E+00 0.  1.
</event>
<event>
 7    1  0.2991278E-011  0.5052887E+02  0.7816164E-02  0.1300439E+00
        -11   -1    0    0    0    0  0.00000000000E+00  0.00000000000E+00  0.45593999997E+02  0.45594000000E+02  0.51100000000E-03 0.  1.
         11   -1    0    0    0    0 -0.00000000000E+00 -0.00000000000E+00 -0.45593999997E+02  0.45594000000E+02  0.51100000000E-03 0. -1.
    9900012    2    1    2    0    0  0.23413383752E+02 -0.30836502203E+02  0.12413230465E+02  0.50528871906E+02  0.30000036644E+02 0.  0.
         12    1    1    2    0    0 -0.23413383752E+02  0.30836502203E+02 -0.12413230465E+02  0.40659128094E+02  0.00000000000E+00 0. -1.
         11    1    3    3    0    0  0.82842308346E+01 -0.23412923849E+02  0.11593762384E+02  0.27408188743E+02  0.51100000000E-03 0. -1.
        -11    1    3    3    0    0  0.64464622196E+01  0.66501150742E+00 -0.64996799094E+01  0.91785050329E+01  0.51100000000E-03 0.  1.
        -12    1    3    3    0    0  0.86826906979E+01 -0.80885898608E+01  0.73191479904E+01  0.13942178130E+02  0.00000000000E+00 0.  1.
</event>
<event>
 7    1  0.2991278E-011  0.5052886E+02  0.7816164E-02  0.1300439E+00
        -11   -1    0    0    0    0  0.00000000000E+00  0.00000000000E+00  0.45593999997E+02  0.45594000000E+02  0.51100000000E-03 0.  1.
         11   -1    0    0    0    0 -0.00000000000E+00 -0.00000000000E+00 -0.45593999997E+02  0.45594000000E+02  0.51100000000E-03 0. -1.
    9900012    2    1    2    0    0  0.28237216429E+02 -0.92281615285E+01  0.27760876725E+02  0.50528860395E+02  0.30000001656E+02 0.  0.
         12    1    1    2    0    0 -0.28237216429E+02  0.92281615285E+01 -0.27760876725E+02  0.40659139605E+02  0.00000000000E+00 0. -1.
         11    1    3    3    0    0  0.26469182561E+02 -0.48701131458E+01  0.10495203679E+02  0.28887452778E+02  0.51100000000E-03 0. -1.
        -11    1    3    3    0    0 -0.17388476815E+01 -0.77417445937E+01  0.86125057709E+01  0.11710399503E+02  0.51100000000E-03 0.  1.
        -12    1    3    3    0    0  0.35068815501E+01  0.33836962109E+01  0.86531672754E+01  0.99310081135E+01  0.00000000000E+00 0.  1.
</event>
<event>
 7    1  0.2991278E-011  0.5052886E+02  0.7816164E-02  0.1300439E+00
        -11   -1    0    0    0    0  0.00000000000E+00  0.00000000000E+00  0.45593999997E+02  0.45594000000E+02  0.51100000000E-03 0.  1.
         11   -1    0    0    0    0 -0.00000000000E+00 -0.00000000000E+00 -0.45593999997E+02  0.45594000000E+02  0.51100000000E-03 0. -1.
    9900012    2    1    2    0    0 -0.36412256850E+02 -0.12852081372E+02  0.12733314264E+02  0.50528859126E+02  0.29999997799E+02 0.  0.
         12    1    1    2    0    0  0.36412256850E+02  0.12852081372E+02 -0.12733314264E+02  0.40659140874E+02  0.00000000000E+00 0. -1.
         11    1    3    3    0    0 -0.89799062434E+00  0.38562570362E+00 -0.47185879127E+01  0.48187307972E+01  0.51100000000E-03 0. -1.
        -11    1    3    3    0    0 -0.25139543487E+02 -0.17717648138E+02  0.10798548629E+02  0.32596324256E+02  0.51100000000E-03 0.  1.
        -12    1    3    3    0    0 -0.10374722738E+02  0.44799410624E+01  0.66533535473E+01  0.13113804072E+02  0.00000000000E+00 0.  1.
</event>
<event>
 7    1  0.2991278E-011  0.5052887E+02  0.7816164E-02  0.1300439E+00
        -11   -1    0    0    0    0  0.00000000000E+00  0.00000000000E+00  0.45593999997E+02  0.45594000000E+02  0.51100000000E-03 0. -1.
         11   -1    0    0    0    0 -0.00000000000E+00 -0.00000000000E+00 -0.45593999997E+02  0.45594000000E+02  0.51100000000E-03 0.  1.
    9900012    2    1    2    0    0  0.35146374598E+02  0.15196863684E+01 -0.20385975161E+02  0.50528867234E+02  0.30000022444E+02 0.  0.
         12    1    1    2    0    0 -0.35146374598E+02 -0.15196863684E+01  0.20385975161E+02  0.40659132766E+02  0.00000000000E+00 0. -1.
         11    1    3    3    0    0  0.21904244261E+02  0.87862904447E+01 -0.15997824621E+01  0.23654896335E+02  0.51100000000E-03 0. -1.
        -11    1    3    3    0    0  0.99292382256E+01 -0.10369176243E+02 -0.16215785462E+02  0.21657822746E+02  0.51100000000E-03 0.  1.
        -12    1    3    3    0    0  0.33128921111E+01  0.31025721663E+01 -0.25704072365E+01  0.52161481524E+01  0.00000000000E+00 0.  1.
</event>
<event>
 7    1  0.2991278E-011  0.5052887E+02  0.7816164E-02  0.1300439E+00
        -11   -1    0    0    0    0  0.00000000000E+00  0.00000000000E+00  0.45593999997E+02  0.45594000000E+02  0.51100000000E-03 0.  1.
         11   -1    0    0    0    0 -0.00000000000E+00 -0.00000000000E+00 -0.45593999997E+02  0.45594000000E+02  0.51100000000E-03 0. -1.
    9900012    2    1    2    0    0 -0.17589526470E+02  0.24817967993E+02  0.26978549058E+02  0.50528867126E+02  0.30000022117E+02 0.  0.
         12    1    1    2    0    0  0.17589526470E+02 -0.24817967993E+02 -0.26978549058E+02  0.40659132874E+02  0.00000000000E+00 0. -1.
         11    1    3    3    0    0  0.35258769943E+01  0.61974820945E+01  0.14908272524E+02  0.16525652265E+02  0.51100000000E-03 0. -1.
        -11    1    3    3    0    0 -0.12822128796E+02  0.26172089257E+01  0.16679968833E+01  0.13192383533E+02  0.51100000000E-03 0.  1.
         12    1    3    3    0    0 -0.82932746681E+01  0.16003276973E+02  0.10402279651E+02  0.20810831327E+02  0.00000000000E+00 0. -1.
</event>
<event>
 7    1  0.2991278E-011  0.5052887E+02  0.7816164E-02  0.1300439E+00
        -11   -1    0    0    0    0  0.00000000000E+00  0.00000000000E+00  0.45593999997E+02  0.45594000000E+02  0.51100000000E-03 0.  1.
         11   -1    0    0    0    0 -0.00000000000E+00 -0.00000000000E+00 -0.45593999997E+02  0.45594000000E+02  0.51100000000E-03 0. -1.
    9900012    2    1    2    0    0  0.14561914995E+02  0.19910696588E+02  0.32321507817E+02  0.50528867268E+02  0.30000022549E+02 0.  0.
         12    1    1    2    0    0 -0.14561914995E+02 -0.19910696588E+02 -0.32321507817E+02  0.40659132732E+02  0.00000000000E+00 0. -1.
         11    1    3    3    0    0  0.12447885879E+02  0.19779114356E+02  0.12132677100E+02  0.26331826398E+02  0.51100000000E-03 0.  1.
        -11    1    3    3    0    0  0.71336588910E+01 -0.13230724845E+01  0.73149732030E+01  0.10302836658E+02  0.51100000000E-03 0. -1.
         12    1    3    3    0    0 -0.50196297755E+01  0.14546547168E+01  0.12873857513E+02  0.13894204213E+02  0.00000000000E+00 0. -1.
</event>
<event>
 7    1  0.2991278E-011  0.5052885E+02  0.7816164E-02  0.1300439E+00
        -11   -1    0    0    0    0  0.00000000000E+00  0.00000000000E+00  0.45593999997E+02  0.45594000000E+02  0.51100000000E-03 0.  1.
         11   -1    0    0    0    0 -0.00000000000E+00 -0.00000000000E+00 -0.45593999997E+02  0.45594000000E+02  0.51100000000E-03 0. -1.
    9900012    2    1    2    0    0 -0.24856475499E+02  0.26021490779E+02  0.18926275570E+02  0.50528852646E+02  0.29999978102E+02 0.  0.
         12    1    1    2    0    0  0.24856475499E+02 -0.26021490779E+02 -0.18926275570E+02  0.40659147354E+02  0.00000000000E+00 0. -1.
         11    1    3    3    0    0  0.25430378455E+01  0.16534940892E+02  0.22588520216E+01  0.16881164785E+02  0.51100000000E-03 0. -1.
        -11    1    3    3    0    0 -0.44908583974E+01  0.27902255125E+00  0.32230089780E+01  0.55347493045E+01  0.51100000000E-03 0.  1.
         12    1    3    3    0    0 -0.22908654947E+02  0.92075273361E+01  0.13444414570E+02  0.28112938556E+02  0.00000000000E+00 0. -1.
</event>
<event>
 7    1  0.2991278E-011  0.5052886E+02  0.7816164E-02  0.1300439E+00
        -11   -1    0    0    0    0  0.00000000000E+00  0.00000000000E+00  0.45593999997E+02  0.45594000000E+02  0.51100000000E-03 0.  1.
         11   -1    0    0    0    0 -0.00000000000E+00 -0.00000000000E+00 -0.45593999997E+02  0.45594000000E+02  0.51100000000E-03 0. -1.
    9900012    2    1    2    0    0 -0.27268847879E+02  0.74258877616E+01  0.29230671260E+02  0.50528855690E+02  0.29999987356E+02 0.  0.
         12    1    1    2    0    0  0.27268847879E+02 -0.74258877616E+01 -0.29230671260E+02  0.40659144310E+02  0.00000000000E+00 0. -1.
         11    1    3    3    0    0 -0.45652648408E+01 -0.10860916437E+01  0.14928416541E+02  0.15648605651E+02  0.51100000000E-03 0. -1.
        -11    1    3    3    0    0 -0.75599757687E+01  0.72610787201E+01 -0.38865155367E+01  0.11179512560E+02  0.51100000000E-03 0.  1.
        -12    1    3    3    0    0 -0.15143607269E+02  0.12509006852E+01  0.18188770255E+02  0.23700737479E+02  0.00000000000E+00 0.  1.
</event>
<event>
 7    1  0.2991278E-011  0.5052886E+02  0.7816164E-02  0.1300439E+00
        -11   -1    0    0    0    0  0.00000000000E+00  0.00000000000E+00  0.45593999997E+02  0.45594000000E+02  0.51100000000E-03 0. -1.
         11   -1    0    0    0    0 -0.00000000000E+00 -0.00000000000E+00 -0.45593999997E+02  0.45594000000E+02  0.51100000000E-03 0.  1.
    9900012    2    1    2    0    0  0.17921337368E+02  0.23517755979E+02 -0.27908891450E+02  0.50528863249E+02  0.30000010332E+02 0.  0.
         12    1    1    2    0    0 -0.17921337368E+02 -0.23517755979E+02  0.27908891450E+02  0.40659136751E+02  0.00000000000E+00 0. -1.
         11    1    3    3    0    0  0.14609678624E+02  0.46511890284E+01  0.11662939665E+00  0.15332640723E+02  0.51100000000E-03 0. -1.
        -11    1    3    3    0    0  0.49694322619E+01  0.12743373306E+02 -0.24172685795E+02  0.27774224724E+02  0.51100000000E-03 0.  1.
        -12    1    3    3    0    0 -0.16577735170E+01  0.61231936448E+01 -0.38528350515E+01  0.74219978024E+01  0.00000000000E+00 0.  1.
</event>
<event>
 7    1  0.2991278E-011  0.5052885E+02  0.7816164E-02  0.1300439E+00
        -11   -1    0    0    0    0  0.00000000000E+00  0.00000000000E+00  0.45593999997E+02  0.45594000000E+02  0.51100000000E-03 0. -1.
         11   -1    0    0    0    0 -0.00000000000E+00 -0.00000000000E+00 -0.45593999997E+02  0.45594000000E+02  0.51100000000E-03 0.  1.
    9900012    2    1    2    0    0 -0.35448408798E+02 -0.19886678693E+02  0.10473090486E+01  0.50528849344E+02  0.29999968067E+02 0.  0.
         12    1    1    2    0    0  0.35448408798E+02  0.19886678693E+02 -0.10473090486E+01  0.40659150656E+02  0.00000000000E+00 0. -1.
         11    1    3    3    0    0  0.32259028858E+01 -0.51326965699E+01  0.40862748239E-01  0.60623999812E+01  0.51100000000E-03 0. -1.
        -11    1    3    3    0    0 -0.19485423022E+02 -0.23354424239E+01  0.70016203957E+01  0.20836474992E+02  0.51100000000E-03 0.  1.
        -12    1    3    3    0    0 -0.19188888662E+02 -0.12418539700E+02 -0.59951740953E+01  0.23629974371E+02  0.00000000000E+00 0.  1.
</event>
<event>
 7    1  0.2991278E-011  0.5052895E+02  0.7816164E-02  0.1300438E+00
        -11   -1    0    0    0    0  0.00000000000E+00  0.00000000000E+00  0.45593999997E+02  0.45594000000E+02  0.51100000000E-03 0.  1.
         11   -1    0    0    0    0 -0.00000000000E+00 -0.00000000000E+00 -0.45593999997E+02  0.45594000000E+02  0.51100000000E-03 0. -1.
    9900012    2    1    2    0    0 -0.14905087588E+02  0.18801051954E+02  0.32825557653E+02  0.50528949030E+02  0.30000271069E+02 0.  0.
         12    1    1    2    0    0  0.14905087588E+02 -0.18801051954E+02 -0.32825557653E+02  0.40659050970E+02  0.00000000000E+00 0. -1.
         11    1    3    3    0    0  0.70285963637E+01  0.15390784435E+01  0.82226506443E+00  0.72419644708E+01  0.51100000000E-03 0. -1.
        -11    1    3    3    0    0 -0.87875556487E+01  0.45818998843E+01  0.16877856672E+02  0.19572352616E+02  0.51100000000E-03 0.  1.
         12    1    3    3    0    0 -0.13146128303E+02  0.12680073626E+02  0.15125435917E+02  0.23714631943E+02  0.00000000000E+00 0. -1.
</event>
<event>
 7    1  0.2991278E-011  0.5052886E+02  0.7816164E-02  0.1300439E+00
        -11   -1    0    0    0    0  0.00000000000E+00  0.00000000000E+00  0.45593999997E+02  0.45594000000E+02  0.51100000000E-03 0.  1.
         11   -1    0    0    0    0 -0.00000000000E+00 -0.00000000000E+00 -0.45593999997E+02  0.45594000000E+02  0.51100000000E-03 0. -1.
    9900012    2    1    2    0    0 -0.16640762077E+02  0.37090097341E+02  0.75844854962E+00  0.50528861698E+02  0.30000005618E+02 0.  0.
         12    1    1    2    0    0  0.16640762077E+02 -0.37090097341E+02 -0.75844854962E+00  0.40659138302E+02  0.00000000000E+00 0. -1.
         11    1    3    3    0    0  0.22332421381E+01  0.41457094509E+01  0.78437237263E+01  0.91486763772E+01  0.51100000000E-03 0. -1.
        -11    1    3    3    0    0 -0.17345792077E+01  0.17814320844E+02 -0.26958152404E+01  0.18100447846E+02  0.51100000000E-03 0.  1.
         12    1    3    3    0    0 -0.17139425007E+02  0.15130067046E+02 -0.43894599363E+01  0.23279737475E+02  0.00000000000E+00 0. -1.
</event>
<event>
 7    1  0.2991278E-011  0.5052886E+02  0.7816164E-02  0.1300439E+00
        -11   -1    0    0    0    0  0.00000000000E+00  0.00000000000E+00  0.45593999997E+02  0.45594000000E+02  0.51100000000E-03 0.  1.
         11   -1    0    0    0    0 -0.00000000000E+00 -0.00000000000E+00 -0.45593999997E+02  0.45594000000E+02  0.51100000000E-03 0. -1.
    9900012    2    1    2    0    0 -0.13616022066E+02  0.37986682853E+02 -0.49780652522E+01  0.50528864929E+02  0.30000015439E+02 0.  0.
         12    1    1    2    0    0  0.13616022066E+02 -0.37986682853E+02  0.49780652522E+01  0.40659135071E+02  0.00000000000E+00 0. -1.
         11    1    3    3    0    0 -0.51149721360E+01  0.15561766119E+02 -0.80737960204E+01  0.18262466622E+02  0.51100000000E-03 0. -1.
        -11    1    3    3    0    0 -0.33097107357E+01  0.23694361336E+02  0.77822515853E+01  0.25158306467E+02  0.51100000000E-03 0.  1.
         12    1    3    3    0    0 -0.51913391946E+01 -0.12694446029E+01 -0.46865208171E+01  0.71080918397E+01  0.00000000000E+00 0. -1.
</event>
<event>
 7    1  0.2991278E-011  0.5052888E+02  0.7816164E-02  0.1300439E+00
        -11   -1    0    0    0    0  0.00000000000E+00  0.00000000000E+00  0.45593999997E+02  0.45594000000E+02  0.51100000000E-03 0.  1.
         11   -1    0    0    0    0 -0.00000000000E+00 -0.00000000000E+00 -0.45593999997E+02  0.45594000000E+02  0.51100000000E-03 0. -1.
    9900012    2    1    2    0    0 -0.33005953511E+02  0.10279560509E+02  0.21403303820E+02  0.50528883607E+02  0.30000072212E+02 0.  0.
         12    1    1    2    0    0  0.33005953511E+02 -0.10279560509E+02 -0.21403303820E+02  0.40659116393E+02  0.00000000000E+00 0. -1.
         11    1    3    3    0    0 -0.11164572634E+02  0.38724815573E+00 -0.29884669094E+01  0.11564107313E+02  0.51100000000E-03 0. -1.
        -11    1    3    3    0    0 -0.22130083984E+02  0.11271352280E+02  0.26570623234E+02  0.36370070369E+02  0.51100000000E-03 0.  1.
        -12    1    3    3    0    0  0.28870310646E+00 -0.13790399265E+01 -0.21788525039E+01  0.25947059248E+01  0.00000000000E+00 0.  1.
</event>
<event>
 7    1  0.2991278E-011  0.5052885E+02  0.7816164E-02  0.1300439E+00
        -11   -1    0    0    0    0  0.00000000000E+00  0.00000000000E+00  0.45593999997E+02  0.45594000000E+02  0.51100000000E-03 0.  1.
         11   -1    0    0    0    0 -0.00000000000E+00 -0.00000000000E+00 -0.45593999997E+02  0.45594000000E+02  0.51100000000E-03 0. -1.
    9900012    2    1    2    0    0 -0.15043675763E+02  0.38088982618E+01  0.37581200800E+02  0.50528849246E+02  0.29999967768E+02 0.  0.
         12    1    1    2    0    0  0.15043675763E+02 -0.38088982618E+01 -0.37581200800E+02  0.40659150754E+02  0.00000000000E+00 0. -1.
         11    1    3    3    0    0  0.40434766369E+01  0.47532759570E+00 -0.25400058650E+01  0.47986737430E+01  0.51100000000E-03 0. -1.
        -11    1    3    3    0    0 -0.81637886520E+01 -0.24275801154E+01  0.23696779309E+02  0.25180904278E+02  0.51100000000E-03 0.  1.
         12    1    3    3    0    0 -0.10923363748E+02  0.57611507815E+01  0.16424427356E+02  0.20549271225E+02  0.00000000000E+00 0. -1.
</event>
<event>
 7    1  0.2991278E-011  0.5052886E+02  0.7816164E-02  0.1300439E+00
        -11   -1    0    0    0    0  0.00000000000E+00  0.00000000000E+00  0.45593999997E+02  0.45594000000E+02  0.51100000000E-03 0.  1.
         11   -1    0    0    0    0 -0.00000000000E+00 -0.00000000000E+00 -0.45593999997E+02  0.45594000000E+02  0.51100000000E-03 0. -1.
    9900012    2    1    2    0    0  0.14623509675E+02  0.33735602475E+02  0.17355918219E+02  0.50528858263E+02  0.29999995176E+02 0.  0.
         12    1    1    2    0    0 -0.14623509675E+02 -0.33735602475E+02 -0.17355918219E+02  0.40659141737E+02  0.00000000000E+00 0. -1.
         11    1    3    3    0    0 -0.59955729093E+01  0.18908345964E+02  0.11602837017E+02  0.22980388785E+02  0.51100000000E-03 0. -1.
        -11    1    3    3    0    0  0.18817738848E+02  0.12171158359E+02  0.78144608477E+01  0.23734156605E+02  0.51100000000E-03 0.  1.
         12    1    3    3    0    0  0.18013437363E+01  0.26560981522E+01 -0.20613796457E+01  0.38143128732E+01  0.00000000000E+00 0. -1.
</event>
<event>
 7    1  0.2991278E-011  0.5052885E+02  0.7816164E-02  0.1300439E+00
        -11   -1    0    0    0    0  0.00000000000E+00  0.00000000000E+00  0.45593999997E+02  0.45594000000E+02  0.51100000000E-03 0.  1.
         11   -1    0    0    0    0 -0.00000000000E+00 -0.00000000000E+00 -0.45593999997E+02  0.45594000000E+02  0.51100000000E-03 0. -1.
    9900012    2    1    2    0    0  0.70263872785E+01  0.34352719508E+02  0.20583654659E+02  0.50528852260E+02  0.29999976929E+02 0.  0.
         12    1    1    2    0    0 -0.70263872785E+01 -0.34352719508E+02 -0.20583654659E+02  0.40659147740E+02  0.00000000000E+00 0. -1.
         11    1    3    3    0    0  0.11237648225E+02  0.19454589243E+02  0.57479188769E+01  0.23190609132E+02  0.51100000000E-03 0. -1.
        -11    1    3    3    0    0 -0.71706692457E+01  0.16981505477E+02  0.14924855911E+02  0.23717954168E+02  0.51100000000E-03 0.  1.
        -12    1    3    3    0    0  0.29594082993E+01 -0.20833752119E+01 -0.89120128100E-01  0.36202889599E+01  0.00000000000E+00 0.  1.
</event>
<event>
 7    1  0.2991278E-011  0.5052890E+02  0.7816164E-02  0.1300439E+00
        -11   -1    0    0    0    0  0.00000000000E+00  0.00000000000E+00  0.45593999997E+02  0.45594000000E+02  0.51100000000E-03 0.  1.
         11   -1    0    0    0    0 -0.00000000000E+00 -0.00000000000E+00 -0.45593999997E+02  0.45594000000E+02  0.51100000000E-03 0. -1.
    9900012    2    1    2    0    0 -0.35537166096E+02  0.19637046444E+02 -0.21583367640E+01  0.50528902804E+02  0.30000130563E+02 0.  0.
         12    1    1    2    0    0  0.35537166096E+02 -0.19637046444E+02  0.21583367640E+01  0.40659097196E+02  0.00000000000E+00 0. -1.
         11    1    3    3    0    0  0.24148068769E+01  0.24358694908E+01  0.44612838110E+01  0.56274155642E+01  0.51100000000E-03 0. -1.
        -11    1    3    3    0    0 -0.32760266192E+02  0.19720427349E+02 -0.77649762567E+01  0.39018266906E+02  0.51100000000E-03 0.  1.
         12    1    3    3    0    0 -0.51917067810E+01 -0.25192503960E+01  0.11453556818E+01  0.58832203337E+01  0.00000000000E+00 0. -1.
</event>
<event>
 7    1  0.2991278E-011  0.5052886E+02  0.7816164E-02  0.1300439E+00
        -11   -1    0    0    0    0  0.00000000000E+00  0.00000000000E+00  0.45593999997E+02  0.45594000000E+02  0.51100000000E-03 0.  1.
         11   -1    0    0    0    0 -0.00000000000E+00 -0.00000000000E+00 -0.45593999997E+02  0.45594000000E+02  0.51100000000E-03 0. -1.
    9900012    2    1    2    0    0  0.21134548688E+02 -0.67583849373E+01  0.34070816055E+02  0.50528862996E+02  0.30000009563E+02 0.  0.
         12    1    1    2    0    0 -0.21134548688E+02  0.67583849373E+01 -0.34070816055E+02  0.40659137004E+02  0.00000000000E+00 0. -1.
         11    1    3    3    0    0 -0.14774299517E+01 -0.96575365864E+01  0.17554126771E+02  0.20089753088E+02  0.51100000000E-03 0. -1.
        -11    1    3    3    0    0  0.21628518440E+02 -0.85036832116E+00  0.14648382560E+02  0.26136010561E+02  0.51100000000E-03 0.  1.
         12    1    3    3    0    0  0.98346020010E+00  0.37495199703E+01  0.18683067248E+01  0.43030993471E+01  0.00000000000E+00 0. -1.
</event>
<event>
 7    1  0.2991278E-011  0.5052886E+02  0.7816164E-02  0.1300439E+00
        -11   -1    0    0    0    0  0.00000000000E+00  0.00000000000E+00  0.45593999997E+02  0.45594000000E+02  0.51100000000E-03 0.  1.
         11   -1    0    0    0    0 -0.00000000000E+00 -0.00000000000E+00 -0.45593999997E+02  0.45594000000E+02  0.51100000000E-03 0. -1.
    9900012    2    1    2    0    0 -0.38650192718E+01  0.61384030967E+01  0.40006840146E+02  0.50528860499E+02  0.30000001971E+02 0.  0.
         12    1    1    2    0    0  0.38650192718E+01 -0.61384030967E+01 -0.40006840146E+02  0.40659139501E+02  0.00000000000E+00 0. -1.
         11    1    3    3    0    0  0.17339551628E+01 -0.65000480288E+01  0.17232189424E+01  0.69445452456E+01  0.51100000000E-03 0. -1.
        -11    1    3    3    0    0 -0.75059701460E+01  0.58161099141E+01  0.34011027953E+02  0.35311708328E+02  0.51100000000E-03 0.  1.
        -12    1    3    3    0    0  0.19069957114E+01  0.68223412114E+01  0.42725932501E+01  0.82726069245E+01  0.00000000000E+00 0.  1.
</event>
<event>
 7    1  0.2991278E-011  0.5052886E+02  0.7816164E-02  0.1300439E+00
        -11   -1    0    0    0    0  0.00000000000E+00  0.00000000000E+00  0.45593999997E+02  0.45594000000E+02  0.51100000000E-03 0. -1.
         11   -1    0    0    0    0 -0.00000000000E+00 -0.00000000000E+00 -0.45593999997E+02  0.45594000000E+02  0.51100000000E-03 0.  1.
    9900012    2    1    2    0    0 -0.35489467540E+02  0.10937842445E+02 -0.16553762021E+02  0.50528859076E+02  0.29999997647E+02 0.  0.
         12    1    1    2    0    0  0.35489467540E+02 -0.10937842445E+02  0.16553762021E+02  0.40659140924E+02  0.00000000000E+00 0. -1.
         11    1    3    3    0    0 -0.15539563208E+00 -0.66383615750E+01 -0.51676488817E+01  0.84140708001E+01  0.51100000000E-03 0. -1.
        -11    1    3    3    0    0 -0.29086583214E+02  0.10304244117E+02 -0.99396481870E+01  0.32419182227E+02  0.51100000000E-03 0.  1.
         12    1    3    3    0    0 -0.62474886941E+01  0.72719599022E+01 -0.14464649521E+01  0.96956060491E+01  0.00000000000E+00 0. -1.
</event>
<event>
 7    1  0.2991278E-011  0.5052895E+02  0.7816164E-02  0.1300438E+00
        -11   -1    0    0    0    0  0.00000000000E+00  0.00000000000E+00  0.45593999997E+02  0.45594000000E+02  0.51100000000E-03 0.  1.
         11   -1    0    0    0    0 -0.00000000000E+00 -0.00000000000E+00 -0.45593999997E+02  0.45594000000E+02  0.51100000000E-03 0. -1.
    9900012    2    1    2    0    0 -0.16957715290E+02 -0.14877669686E+02  0.33826754342E+02  0.50528948456E+02  0.30000269325E+02 0.  0.
         12    1    1    2    0    0  0.16957715290E+02  0.14877669686E+02 -0.33826754342E+02  0.40659051544E+02  0.00000000000E+00 0. -1.
         11    1    3    3    0    0 -0.13048916195E+02 -0.13201304093E+02  0.32595917319E+01  0.18846049510E+02  0.51100000000E-03 0. -1.
        -11    1    3    3    0    0 -0.12383108404E+01 -0.35889300178E+01  0.24418265976E+02  0.24711647981E+02  0.51100000000E-03 0.  1.
         12    1    3    3    0    0 -0.26704882548E+01  0.19125644247E+01  0.61488966346E+01  0.69712509652E+01  0.00000000000E+00 0. -1.
</event>
<event>
 7    1  0.2991278E-011  0.5052884E+02  0.7816164E-02  0.1300439E+00
        -11   -1    0    0    0    0  0.00000000000E+00  0.00000000000E+00  0.45593999997E+02  0.45594000000E+02  0.51100000000E-03 0.  1.
         11   -1    0    0    0    0 -0.00000000000E+00 -0.00000000000E+00 -0.45593999997E+02  0.45594000000E+02  0.51100000000E-03 0. -1.
    9900012    2    1    2    0    0 -0.15078641127E+02  0.34206971868E+02  0.15990159144E+02  0.50528837046E+02  0.29999930686E+02 0.  0.
         12    1    1    2    0    0  0.15078641127E+02 -0.34206971868E+02 -0.15990159144E+02  0.40659162954E+02  0.00000000000E+00 0. -1.
         11    1    3    3    0    0  0.14740862534E+01 -0.15749669738E+01  0.23517856319E+01  0.31912923982E+01  0.51100000000E-03 0. -1.
        -11    1    3    3    0    0 -0.22053880866E+02  0.30974384775E+02  0.11554908278E+02  0.39740433805E+02  0.51100000000E-03 0.  1.
        -12    1    3    3    0    0  0.55011534855E+01  0.48075540674E+01  0.20834652342E+01  0.75971108432E+01  0.00000000000E+00 0.  1.
</event>
<event>
 7    1  0.2991278E-011  0.5052886E+02  0.7816164E-02  0.1300439E+00
        -11   -1    0    0    0    0  0.00000000000E+00  0.00000000000E+00  0.45593999997E+02  0.45594000000E+02  0.51100000000E-03 0. -1.
         11   -1    0    0    0    0 -0.00000000000E+00 -0.00000000000E+00 -0.45593999997E+02  0.45594000000E+02  0.51100000000E-03 0.  1.
    9900012    2    1    2    0    0  0.25003763362E+02 -0.31362875907E+02  0.66593941982E+01  0.50528859595E+02  0.29999999223E+02 0.  0.
         12    1    1    2    0    0 -0.25003763362E+02  0.31362875907E+02 -0.66593941982E+01  0.40659140405E+02  0.00000000000E+00 0. -1.
         11    1    3    3    0    0  0.14052763241E+02 -0.86036504075E+01  0.81608169391E+01  0.18387547102E+02  0.51100000000E-03 0. -1.
        -11    1    3    3    0    0  0.12394608614E+02 -0.25809576109E+02 -0.21221289876E+01  0.28709997794E+02  0.51100000000E-03 0.  1.
        -12    1    3    3    0    0 -0.14436084932E+01  0.30503506091E+01  0.62070624661E+00  0.34313146992E+01  0.00000000000E+00 0.  1.
</event>
<event>
 7    1  0.2991278E-011  0.5052886E+02  0.7816164E-02  0.1300439E+00
        -11   -1    0    0    0    0  0.00000000000E+00  0.00000000000E+00  0.45593999997E+02  0.45594000000E+02  0.51100000000E-03 0.  1.
         11   -1    0    0    0    0 -0.00000000000E+00 -0.00000000000E+00 -0.45593999997E+02  0.45594000000E+02  0.51100000000E-03 0. -1.
    9900012    2    1    2    0    0  0.21492591950E+02 -0.29091229714E+02  0.18572402323E+02  0.50528864704E+02  0.30000014753E+02 0.  0.
         12    1    1    2    0    0 -0.21492591950E+02  0.29091229714E+02 -0.18572402323E+02  0.40659135296E+02  0.00000000000E+00 0. -1.
         11    1    3    3    0    0  0.12182520638E+02 -0.13357516975E+02 -0.28217069800E+01  0.18297516207E+02  0.51100000000E-03 0. -1.
        -11    1    3    3    0    0 -0.60789812400E+00  0.21118969280E+01  0.67697681663E+01  0.71175424164E+01  0.51100000000E-03 0.  1.
        -12    1    3    3    0    0  0.99179694363E+01 -0.17845609667E+02  0.14624341136E+02  0.25113806080E+02  0.00000000000E+00 0.  1.
</event>
<event>
 7    1  0.2991278E-011  0.5052886E+02  0.7816164E-02  0.1300439E+00
        -11   -1    0    0    0    0  0.00000000000E+00  0.00000000000E+00  0.45593999997E+02  0.45594000000E+02  0.51100000000E-03 0.  1.
         11   -1    0    0    0    0 -0.00000000000E+00 -0.00000000000E+00 -0.45593999997E+02  0.45594000000E+02  0.51100000000E-03 0. -1.
    9900012    2    1    2    0    0  0.41030081178E+01  0.32051023603E+02  0.24679205584E+02  0.50528856159E+02  0.29999988781E+02 0.  0.
         12    1    1    2    0    0 -0.41030081178E+01 -0.32051023603E+02 -0.24679205584E+02  0.40659143841E+02  0.00000000000E+00 0. -1.
         11    1    3    3    0    0  0.57483578918E+01  0.30805022423E+02  0.21709125262E+02  0.38121898494E+02  0.51100000000E-03 0. -1.
        -11    1    3    3    0    0 -0.46827713807E+01  0.46756668079E+01 -0.53438450069E+00  0.66389588761E+01  0.51100000000E-03 0.  1.
         12    1    3    3    0    0  0.30374216067E+01 -0.34296656273E+01  0.35044648227E+01  0.57679987886E+01  0.00000000000E+00 0. -1.
</event>
<event>
 7    1  0.2991278E-011  0.5052885E+02  0.7816164E-02  0.1300439E+00
        -11   -1    0    0    0    0  0.00000000000E+00  0.00000000000E+00  0.45593999997E+02  0.45594000000E+02  0.51100000000E-03 0.  1.
         11   -1    0    0    0    0 -0.00000000000E+00 -0.00000000000E+00 -0.45593999997E+02  0.45594000000E+02  0.51100000000E-03 0. -1.
    9900012    2    1    2    0    0 -0.17778682913E+02 -0.20945718851E+02  0.29972680272E+02  0.50528852604E+02  0.29999977974E+02 0.  0.
         12    1    1    2    0    0  0.17778682913E+02  0.20945718851E+02 -0.29972680272E+02  0.40659147396E+02  0.00000000000E+00 0. -1.
         11    1    3    3    0    0 -0.14595533681E+02 -0.90302511855E+00  0.11957675444E+02  0.18889972475E+02  0.51100000000E-03 0. -1.
        -11    1    3    3    0    0 -0.60568085194E+01 -0.21685668586E+02  0.16876449299E+02  0.28138366915E+02  0.51100000000E-03 0.  1.
        -12    1    3    3    0    0  0.28736592874E+01  0.16429748528E+01  0.11385555283E+01  0.35005132136E+01  0.00000000000E+00 0.  1.
</event>
<event>
 7    1  0.2991278E-011  0.5052887E+02  0.7816164E-02  0.1300439E+00
        -11   -1    0    0    0    0  0.00000000000E+00  0.00000000000E+00  0.45593999997E+02  0.45594000000E+02  0.51100000000E-03 0. -1.
         11   -1    0    0    0    0 -0.00000000000E+00 -0.00000000000E+00 -0.45593999997E+02  0.45594000000E+02  0.51100000000E-03 0.  1.
    9900012    2    1    2    0    0  0.38150243593E+02  0.67771965835E+01 -0.12320448629E+02  0.50528868994E+02  0.30000027793E+02 0.  0.
         12    1    1    2    0    0 -0.38150243593E+02 -0.67771965835E+01  0.12320448629E+02  0.40659131006E+02  0.00000000000E+00 0. -1.
         11    1    3    3    0    0  0.75002279753E+01 -0.10111118510E+02 -0.26159940458E+01  0.12858132147E+02  0.51100000000E-03 0. -1.
        -11    1    3    3    0    0  0.21151748102E+02  0.14330486854E+02 -0.10869808820E+02  0.27765302903E+02  0.51100000000E-03 0.  1.
        -12    1    3    3    0    0  0.94982675158E+01  0.25578282397E+01  0.11653542366E+01  0.99054339432E+01  0.00000000000E+00 0.  1.
</event>
<event>
 7    1  0.2991278E-011  0.5052890E+02  0.7816164E-02  0.1300439E+00
        -11   -1    0    0    0    0  0.00000000000E+00  0.00000000000E+00  0.45593999997E+02  0.45594000000E+02  0.51100000000E-03 0.  1.
         11   -1    0    0    0    0 -0.00000000000E+00 -0.00000000000E+00 -0.45593999997E+02  0.45594000000E+02  0.51100000000E-03 0. -1.
    9900012    2    1    2    0    0 -0.81291759795E+01 -0.24189672031E+02  0.31653409750E+02  0.50528904045E+02  0.30000134336E+02 0.  0.
         12    1    1    2    0    0  0.81291759795E+01  0.24189672031E+02 -0.31653409750E+02  0.40659095955E+02  0.00000000000E+00 0. -1.
         11    1    3    3    0    0  0.50321776638E+01 -0.18066824383E+01  0.52141798167E+01  0.74682384065E+01  0.51100000000E-03 0. -1.
        -11    1    3    3    0    0 -0.15092263535E+02 -0.46262057621E+01  0.93827509542E+01  0.18363393316E+02  0.51100000000E-03 0.  1.
        -12    1    3    3    0    0  0.19309098917E+01 -0.17756783831E+02  0.17056478979E+02  0.24697272322E+02  0.00000000000E+00 0.  1.
</event>
<event>
 7    1  0.2991278E-011  0.5052884E+02  0.7816164E-02  0.1300439E+00
        -11   -1    0    0    0    0  0.00000000000E+00  0.00000000000E+00  0.45593999997E+02  0.45594000000E+02  0.51100000000E-03 0.  1.
         11   -1    0    0    0    0 -0.00000000000E+00 -0.00000000000E+00 -0.45593999997E+02  0.45594000000E+02  0.51100000000E-03 0. -1.
    9900012    2    1    2    0    0  0.69655162600E+01  0.37255804894E+02  0.14719178632E+02  0.50528835785E+02  0.29999926852E+02 0.  0.
         12    1    1    2    0    0 -0.69655162600E+01 -0.37255804894E+02 -0.14719178632E+02  0.40659164215E+02  0.00000000000E+00 0. -1.
         11    1    3    3    0    0  0.25116257647E+01  0.17142804623E+02 -0.10904427146E+01  0.17360100228E+02  0.51100000000E-03 0. -1.
        -11    1    3    3    0    0  0.24881472479E+01  0.20603148764E+02  0.19806584424E+02  0.28687652440E+02  0.51100000000E-03 0.  1.
        -12    1    3    3    0    0  0.19657432474E+01 -0.49014849317E+00 -0.39969630776E+01  0.44810831173E+01  0.00000000000E+00 0.  1.
</event>
<event>
 7    1  0.2991278E-011  0.5052886E+02  0.7816164E-02  0.1300439E+00
        -11   -1    0    0    0    0  0.00000000000E+00  0.00000000000E+00  0.45593999997E+02  0.45594000000E+02  0.51100000000E-03 0. -1.
         11   -1    0    0    0    0 -0.00000000000E+00 -0.00000000000E+00 -0.45593999997E+02  0.45594000000E+02  0.51100000000E-03 0.  1.
    9900012    2    1    2    0    0 -0.29028219634E+02  0.27942323685E+02  0.54547695672E+01  0.50528862047E+02  0.30000006678E+02 0.  0.
         12    1    1    2    0    0  0.29028219634E+02 -0.27942323685E+02 -0.54547695672E+01  0.40659137953E+02  0.00000000000E+00 0. -1.
         11    1    3    3    0    0 -0.22739466793E+02  0.21044879287E+02  0.12617859001E+02  0.33454157593E+02  0.51100000000E-03 0. -1.
        -11    1    3    3    0    0  0.23650834718E+01  0.93662866961E+00 -0.59820413678E+01  0.65004393913E+01  0.51100000000E-03 0.  1.
        -12    1    3    3    0    0 -0.86538363131E+01  0.59608157291E+01 -0.11810480662E+01  0.10574265063E+02  0.00000000000E+00 0.  1.
</event>
<event>
 7    1  0.2991278E-011  0.5052886E+02  0.7816164E-02  0.1300439E+00
        -11   -1    0    0    0    0  0.00000000000E+00  0.00000000000E+00  0.45593999997E+02  0.45594000000E+02  0.51100000000E-03 0. -1.
         11   -1    0    0    0    0 -0.00000000000E+00 -0.00000000000E+00 -0.45593999997E+02  0.45594000000E+02  0.51100000000E-03 0.  1.
    9900012    2    1    2    0    0  0.18527166022E+02  0.14675483575E+02 -0.33083833594E+02  0.50528859033E+02  0.29999997515E+02 0.  0.
         12    1    1    2    0    0 -0.18527166022E+02 -0.14675483575E+02  0.33083833594E+02  0.40659140967E+02  0.00000000000E+00 0. -1.
         11    1    3    3    0    0 -0.61829694898E+01  0.35300269196E+01 -0.12140463697E+02  0.14074127355E+02  0.51100000000E-03 0. -1.
        -11    1    3    3    0    0  0.15597941090E+02  0.12203637823E+02 -0.18155040486E+02  0.26866894828E+02  0.51100000000E-03 0.  1.
         12    1    3    3    0    0  0.91121944216E+01 -0.10581811684E+01 -0.27883294114E+01  0.95878368503E+01  0.00000000000E+00 0. -1.
</event>
<event>
 7    1  0.2991278E-011  0.5052886E+02  0.7816164E-02  0.1300439E+00
        -11   -1    0    0    0    0  0.00000000000E+00  0.00000000000E+00  0.45593999997E+02  0.45594000000E+02  0.51100000000E-03 0. -1.
         11   -1    0    0    0    0 -0.00000000000E+00 -0.00000000000E+00 -0.45593999997E+02  0.45594000000E+02  0.51100000000E-03 0.  1.
    9900012    2    1    2    0    0 -0.36713974283E+01  0.26762082180E+02 -0.30388768167E+02  0.50528862868E+02  0.30000009172E+02 0.  0.
         12    1    1    2    0    0  0.36713974283E+01 -0.26762082180E+02  0.30388768167E+02  0.40659137132E+02  0.00000000000E+00 0. -1.
         11    1    3    3    0    0 -0.22829716624E+01  0.10983680573E+02  0.33973129648E+01  0.11721558522E+02  0.51100000000E-03 0. -1.
        -11    1    3    3    0    0 -0.18602853156E+01  0.14725510979E+02 -0.19657344335E+02  0.24631535105E+02  0.51100000000E-03 0.  1.
         12    1    3    3    0    0  0.47185954973E+00  0.10528906275E+01 -0.14128736796E+02  0.14175769241E+02  0.00000000000E+00 0. -1.
</event>
<event>
 7    1  0.2991278E-011  0.5052887E+02  0.7816164E-02  0.1300439E+00
        -11   -1    0    0    0    0  0.00000000000E+00  0.00000000000E+00  0.45593999997E+02  0.45594000000E+02  0.51100000000E-03 0.  1.
         11   -1    0    0    0    0 -0.00000000000E+00 -0.00000000000E+00 -0.45593999997E+02  0.45594000000E+02  0.51100000000E-03 0. -1.
    9900012    2    1    2    0    0 -0.52228214761E+01 -0.75748715103E+01  0.39604396104E+02  0.50528871464E+02  0.30000035301E+02 0.  0.
         12    1    1    2    0    0  0.52228214761E+01  0.75748715103E+01 -0.39604396104E+02  0.40659128536E+02  0.00000000000E+00 0. -1.
         11    1    3    3    0    0 -0.21255176367E+01  0.58448152595E+01  0.19521142041E+02  0.20487915401E+02  0.51100000000E-03 0. -1.
        -11    1    3    3    0    0  0.13316625154E+01 -0.16747817528E+02  0.15034828125E+02  0.22545704114E+02  0.51100000000E-03 0.  1.
        -12    1    3    3    0    0 -0.44289663548E+01  0.33281307581E+01  0.50484259378E+01  0.74952519480E+01  0.00000000000E+00 0.  1.
</event>
<event>
 7    1  0.2991278E-011  0.5052886E+02  0.7816164E-02  0.1300439E+00
        -11   -1    0    0    0    0  0.00000000000E+00  0.00000000000E+00  0.45593999997E+02  0.45594000000E+02  0.51100000000E-03 0.  1.
         11   -1    0    0    0    0 -0.00000000000E+00 -0.00000000000E+00 -0.45593999997E+02  0.45594000000E+02  0.51100000000E-03 0. -1.
    9900012    2    1    2    0    0 -0.35808904133E+02 -0.48425300809E+01  0.18639692115E+02  0.50528857916E+02  0.29999994123E+02 0.  0.
         12    1    1    2    0    0  0.35808904133E+02  0.48425300809E+01 -0.18639692115E+02  0.40659142084E+02  0.00000000000E+00 0. -1.
         11    1    3    3    0    0 -0.13124500760E+02 -0.69606807750E+01  0.16286465491E+02  0.22044331596E+02  0.51100000000E-03 0.  1.
        -11    1    3    3    0    0 -0.23414309785E+02  0.55864333860E+01 -0.27339935612E+00  0.24073073924E+02  0.51100000000E-03 0. -1.
         12    1    3    3    0    0  0.72990641221E+00 -0.34682826920E+01  0.26266259803E+01  0.44114523960E+01  0.00000000000E+00 0. -1.
</event>
<event>
 7    1  0.2991278E-011  0.5052886E+02  0.7816164E-02  0.1300439E+00
        -11   -1    0    0    0    0  0.00000000000E+00  0.00000000000E+00  0.45593999997E+02  0.45594000000E+02  0.51100000000E-03 0. -1.
         11   -1    0    0    0    0 -0.00000000000E+00 -0.00000000000E+00 -0.45593999997E+02  0.45594000000E+02  0.51100000000E-03 0.  1.
    9900012    2    1    2    0    0 -0.40197898120E+02 -0.60132450126E+01  0.10656305242E+01  0.50528859610E+02  0.29999999271E+02 0.  0.
         12    1    1    2    0    0  0.40197898120E+02  0.60132450126E+01 -0.10656305242E+01  0.40659140390E+02  0.00000000000E+00 0. -1.
         11    1    3    3    0    0 -0.48426349624E+01 -0.52483019970E+00  0.37734196706E+01  0.61615952796E+01  0.51100000000E-03 0. -1.
        -11    1    3    3    0    0 -0.26343797560E+02 -0.15397630653E+02 -0.45364289611E+01  0.30849017612E+02  0.51100000000E-03 0.  1.
        -12    1    3    3    0    0 -0.90114655973E+01  0.99092158404E+01  0.18286398146E+01  0.13518246719E+02  0.00000000000E+00 0.  1.
</event>
<event>
 7    1  0.2991278E-011  0.5052884E+02  0.7816164E-02  0.1300439E+00
        -11   -1    0    0    0    0  0.00000000000E+00  0.00000000000E+00  0.45593999997E+02  0.45594000000E+02  0.51100000000E-03 0.  1.
         11   -1    0    0    0    0 -0.00000000000E+00 -0.00000000000E+00 -0.45593999997E+02  0.45594000000E+02  0.51100000000E-03 0. -1.
    9900012    2    1    2    0    0 -0.21989369480E+02  0.31931416336E+02  0.12248240595E+02  0.50528842151E+02  0.29999946201E+02 0.  0.
         12    1    1    2    0    0  0.21989369480E+02 -0.31931416336E+02 -0.12248240595E+02  0.40659157849E+02  0.00000000000E+00 0. -1.
         11    1    3    3    0    0 -0.39002154406E+01  0.51714638415E+00  0.16823335651E+01  0.42789446538E+01  0.51100000000E-03 0. -1.
        -11    1    3    3    0    0  0.46220891335E+01  0.18014168895E+02  0.55418007507E+01  0.19405812139E+02  0.51100000000E-03 0.  1.
        -12    1    3    3    0    0 -0.22711243173E+02  0.13400101056E+02  0.50241062790E+01  0.26844085358E+02  0.00000000000E+00 0.  1.
</event>
<event>
 7    1  0.2991278E-011  0.5052886E+02  0.7816164E-02  0.1300439E+00
        -11   -1    0    0    0    0  0.00000000000E+00  0.00000000000E+00  0.45593999997E+02  0.45594000000E+02  0.51100000000E-03 0.  1.
         11   -1    0    0    0    0 -0.00000000000E+00 -0.00000000000E+00 -0.45593999997E+02  0.45594000000E+02  0.51100000000E-03 0. -1.
    9900012    2    1    2    0    0  0.12234069624E+02 -0.30260341454E+02  0.24244685925E+02  0.50528861789E+02  0.30000005895E+02 0.  0.
         12    1    1    2    0    0 -0.12234069624E+02  0.30260341454E+02 -0.24244685925E+02  0.40659138211E+02  0.00000000000E+00 0. -1.
         11    1    3    3    0    0  0.17668754340E+02 -0.12666715337E+02  0.90518845334E+01  0.23549249907E+02  0.51100000000E-03 0.  1.
        -11    1    3    3    0    0 -0.74534058438E+01 -0.96483906346E+01  0.14209599681E+02  0.18723178786E+02  0.51100000000E-03 0. -1.
         12    1    3    3    0    0  0.20187211276E+01 -0.79452354824E+01  0.98320171083E+00  0.82564330959E+01  0.00000000000E+00 0. -1.
</event>
<event>
 7    1  0.2991278E-011  0.5052889E+02  0.7816164E-02  0.1300439E+00
        -11   -1    0    0    0    0  0.00000000000E+00  0.00000000000E+00  0.45593999997E+02  0.45594000000E+02  0.51100000000E-03 0.  1.
         11   -1    0    0    0    0 -0.00000000000E+00 -0.00000000000E+00 -0.45593999997E+02  0.45594000000E+02  0.51100000000E-03 0. -1.
    9900012    2    1    2    0    0 -0.23309197686E+02  0.15546670862E+02  0.29464315149E+02  0.50528886153E+02  0.30000079950E+02 0.  0.
         12    1    1    2    0    0  0.23309197686E+02 -0.15546670862E+02 -0.29464315149E+02  0.40659113847E+02  0.00000000000E+00 0. -1.
         11    1    3    3    0    0  0.19943136822E+01  0.21500564614E+01 -0.29617517890E+01  0.41679735808E+01  0.51100000000E-03 0. -1.
        -11    1    3    3    0    0 -0.19053345208E+02  0.18553436593E+01  0.13903904016E+02  0.23659898792E+02  0.51100000000E-03 0.  1.
        -12    1    3    3    0    0 -0.62501661604E+01  0.11541270741E+02  0.18522162921E+02  0.22701013780E+02  0.00000000000E+00 0.  1.
</event>
<event>
 7    1  0.2991278E-011  0.5052885E+02  0.7816164E-02  0.1300439E+00
        -11   -1    0    0    0    0  0.00000000000E+00  0.00000000000E+00  0.45593999997E+02  0.45594000000E+02  0.51100000000E-03 0.  1.
         11   -1    0    0    0    0 -0.00000000000E+00 -0.00000000000E+00 -0.45593999997E+02  0.45594000000E+02  0.51100000000E-03 0. -1.
    9900012    2    1    2    0    0 -0.21940251216E+01 -0.11853922350E+02  0.38830875903E+02  0.50528854108E+02  0.29999982547E+02 0.  0.
         12    1    1    2    0    0  0.21940251216E+01  0.11853922350E+02 -0.38830875903E+02  0.40659145892E+02  0.00000000000E+00 0. -1.
         11    1    3    3    0    0  0.19164768106E+01 -0.16232489008E+02  0.15229012040E+02  0.22340308653E+02  0.51100000000E-03 0. -1.
        -11    1    3    3    0    0 -0.58164506042E+01  0.73407251201E+01  0.83152415338E+01  0.12524399584E+02  0.51100000000E-03 0.  1.
         12    1    3    3    0    0  0.17059486721E+01 -0.29621584623E+01  0.15286622329E+02  0.15664145871E+02  0.00000000000E+00 0. -1.
</event>
<event>
 7    1  0.2991278E-011  0.5052884E+02  0.7816164E-02  0.1300439E+00
        -11   -1    0    0    0    0  0.00000000000E+00  0.00000000000E+00  0.45593999997E+02  0.45594000000E+02  0.51100000000E-03 0.  1.
         11   -1    0    0    0    0 -0.00000000000E+00 -0.00000000000E+00 -0.45593999997E+02  0.45594000000E+02  0.51100000000E-03 0. -1.
    9900012    2    1    2    0    0  0.14290957773E+02  0.18880377402E+02  0.33052485089E+02  0.50528844874E+02  0.29999954480E+02 0.  0.
         12    1    1    2    0    0 -0.14290957773E+02 -0.18880377402E+02 -0.33052485089E+02  0.40659155126E+02  0.00000000000E+00 0. -1.
         11    1    3    3    0    0  0.15502705195E+01  0.10995409606E+02  0.28826235893E+01  0.11472222544E+02  0.51100000000E-03 0. -1.
        -11    1    3    3    0    0  0.11091972255E+02  0.81240065648E+01  0.33012878371E+02  0.35761452288E+02  0.51100000000E-03 0.  1.
        -12    1    3    3    0    0  0.16487149993E+01 -0.23903876853E+00 -0.28430168705E+01  0.32951700423E+01  0.00000000000E+00 0.  1.
</event>
<event>
 7    1  0.2991278E-011  0.5052883E+02  0.7816164E-02  0.1300439E+00
        -11   -1    0    0    0    0  0.00000000000E+00  0.00000000000E+00  0.45593999997E+02  0.45594000000E+02  0.51100000000E-03 0.  1.
         11   -1    0    0    0    0 -0.00000000000E+00 -0.00000000000E+00 -0.45593999997E+02  0.45594000000E+02  0.51100000000E-03 0. -1.
    9900012    2    1    2    0    0 -0.19321809124E+02 -0.13154709521E+02  0.33268441087E+02  0.50528832980E+02  0.29999918325E+02 0.  0.
         12    1    1    2    0    0  0.19321809124E+02  0.13154709521E+02 -0.33268441087E+02  0.40659167020E+02  0.00000000000E+00 0. -1.
         11    1    3    3    0    0 -0.84152194056E+01  0.22657583736E+01  0.12559946362E+02  0.15287309493E+02  0.51100000000E-03 0. -1.
        -11    1    3    3    0    0 -0.12104546143E+02 -0.18968418439E+02  0.11434918246E+02  0.25240409881E+02  0.51100000000E-03 0.  1.
        -12    1    3    3    0    0  0.11979564244E+01  0.35479505437E+01  0.92735764789E+01  0.10001113606E+02  0.00000000000E+00 0.  1.
</event>
<event>
 7    1  0.2991278E-011  0.5052886E+02  0.7816164E-02  0.1300439E+00
        -11   -1    0    0    0    0  0.00000000000E+00  0.00000000000E+00  0.45593999997E+02  0.45594000000E+02  0.51100000000E-03 0.  1.
         11   -1    0    0    0    0 -0.00000000000E+00 -0.00000000000E+00 -0.45593999997E+02  0.45594000000E+02  0.51100000000E-03 0. -1.
    9900012    2    1    2    0    0  0.35733255076E+02  0.37792898765E+01  0.19026748635E+02  0.50528859405E+02  0.29999998647E+02 0.  0.
         12    1    1    2    0    0 -0.35733255076E+02 -0.37792898765E+01 -0.19026748635E+02  0.40659140595E+02  0.00000000000E+00 0. -1.
         11    1    3    3    0    0  0.15170489851E+02 -0.11750784662E+02  0.14752587367E+02  0.24204618088E+02  0.51100000000E-03 0. -1.
        -11    1    3    3    0    0  0.86978570480E+01  0.46559596739E+01  0.20610011778E+01  0.10078611205E+02  0.51100000000E-03 0.  1.
         12    1    3    3    0    0  0.11864908177E+02  0.10874114865E+02  0.22131600902E+01  0.16245630112E+02  0.00000000000E+00 0. -1.
</event>
<event>
 7    1  0.2991278E-011  0.5052886E+02  0.7816164E-02  0.1300439E+00
        -11   -1    0    0    0    0  0.00000000000E+00  0.00000000000E+00  0.45593999997E+02  0.45594000000E+02  0.51100000000E-03 0.  1.
         11   -1    0    0    0    0 -0.00000000000E+00 -0.00000000000E+00 -0.45593999997E+02  0.45594000000E+02  0.51100000000E-03 0. -1.
    9900012    2    1    2    0    0  0.32011938879E+02 -0.14915510491E+02  0.20147675357E+02  0.50528861958E+02  0.30000006408E+02 0.  0.
         12    1    1    2    0    0 -0.32011938879E+02  0.14915510491E+02 -0.20147675357E+02  0.40659138042E+02  0.00000000000E+00 0. -1.
         11    1    3    3    0    0  0.11900777168E+02  0.72152624072E+01  0.56015706920E+01  0.15002203281E+02  0.51100000000E-03 0. -1.
        -11    1    3    3    0    0  0.14790768747E+02 -0.20255230812E+02  0.68774494887E+01  0.26006547773E+02  0.51100000000E-03 0.  1.
        -12    1    3    3    0    0  0.53203929641E+01 -0.18755420865E+01  0.76686551762E+01  0.95201109039E+01  0.00000000000E+00 0.  1.
</event>
<event>
 7    1  0.3912682E-011  0.5052887E+02  0.7816164E-02  0.1300439E+00
        -11   -1    0    0    0    0  0.00000000000E+00  0.00000000000E+00  0.45593999997E+02  0.45594000000E+02  0.51100000000E-03 0.  1.
         11   -1    0    0    0    0 -0.00000000000E+00 -0.00000000000E+00 -0.45593999997E+02  0.45594000000E+02  0.51100000000E-03 0. -1.
    9900012    2    1    2    0    0  0.22133232756E+02 -0.15287984796E+02  0.30488728607E+02  0.50528867650E+02  0.30000023708E+02 0.  0.
         12    1    1    2    0    0 -0.22133232756E+02  0.15287984796E+02 -0.30488728607E+02  0.40659132350E+02  0.00000000000E+00 0. -1.
         11    1    3    3    0    0  0.58925192984E+01  0.89122146594E+00 -0.20970174577E+01  0.63177165069E+01  0.51100000000E-03 0. -1.
        -11    1    3    3    0    0 -0.17562052347E+01 -0.35020592074E+01  0.16468536752E+02  0.16928123892E+02  0.51100000000E-03 0.  1.
        -12    1    3    3    0    0  0.17996918693E+02 -0.12677147055E+02  0.16117209313E+02  0.27283027250E+02  0.00000000000E+00 0.  1.
</event>
<event>
 7    1  0.2991278E-011  0.5052886E+02  0.7816164E-02  0.1300439E+00
        -11   -1    0    0    0    0  0.00000000000E+00  0.00000000000E+00  0.45593999997E+02  0.45594000000E+02  0.51100000000E-03 0.  1.
         11   -1    0    0    0    0 -0.00000000000E+00 -0.00000000000E+00 -0.45593999997E+02  0.45594000000E+02  0.51100000000E-03 0. -1.
    9900012    2    1    2    0    0 -0.16130700746E+02 -0.33835080126E+02  0.15752887644E+02  0.50528860526E+02  0.30000002054E+02 0.  0.
         12    1    1    2    0    0  0.16130700746E+02  0.33835080126E+02 -0.15752887644E+02  0.40659139474E+02  0.00000000000E+00 0. -1.
         11    1    3    3    0    0 -0.10172853925E+02 -0.34154313929E+01 -0.57774664380E+00  0.10746437551E+02  0.51100000000E-03 0. -1.
        -11    1    3    3    0    0  0.65647212567E+01 -0.14263185291E+02  0.87917935512E+01  0.17995267542E+02  0.51100000000E-03 0.  1.
        -12    1    3    3    0    0 -0.12522568077E+02 -0.16156463442E+02  0.75388407371E+01  0.21787155433E+02  0.00000000000E+00 0.  1.
</event>
<event>
 7    1  0.2991278E-011  0.5052885E+02  0.7816164E-02  0.1300439E+00
        -11   -1    0    0    0    0  0.00000000000E+00  0.00000000000E+00  0.45593999997E+02  0.45594000000E+02  0.51100000000E-03 0.  1.
         11   -1    0    0    0    0 -0.00000000000E+00 -0.00000000000E+00 -0.45593999997E+02  0.45594000000E+02  0.51100000000E-03 0. -1.
    9900012    2    1    2    0    0 -0.38622177163E+02  0.10542915716E+02  0.70951260955E+01  0.50528850293E+02  0.29999970950E+02 0.  0.
         12    1    1    2    0    0  0.38622177163E+02 -0.10542915716E+02 -0.70951260955E+01  0.40659149707E+02  0.00000000000E+00 0. -1.
         11    1    3    3    0    0 -0.26693388771E+02  0.19932335367E+02  0.93074457392E+01  0.34589934139E+02  0.51100000000E-03 0.  1.
        -11    1    3    3    0    0 -0.99456421213E+01 -0.63294517581E+01 -0.23571850578E+00  0.11791239131E+02  0.51100000000E-03 0. -1.
        -12    1    3    3    0    0 -0.19831462704E+01 -0.30599678923E+01 -0.19766011379E+01  0.41476770234E+01  0.00000000000E+00 0.  1.
</event>
<event>
 7    1  0.2991278E-011  0.5052886E+02  0.7816164E-02  0.1300439E+00
        -11   -1    0    0    0    0  0.00000000000E+00  0.00000000000E+00  0.45593999997E+02  0.45594000000E+02  0.51100000000E-03 0. -1.
         11   -1    0    0    0    0 -0.00000000000E+00 -0.00000000000E+00 -0.45593999997E+02  0.45594000000E+02  0.51100000000E-03 0.  1.
    9900012    2    1    2    0    0  0.37897751982E+02  0.14632394105E+02 -0.16789411836E+01  0.50528863192E+02  0.30000010157E+02 0.  0.
         12    1    1    2    0    0 -0.37897751982E+02 -0.14632394105E+02  0.16789411836E+01  0.40659136808E+02  0.00000000000E+00 0. -1.
         11    1    3    3    0    0  0.19115868010E+02  0.10190099102E+02  0.11200598270E+02  0.24386634276E+02  0.51100000000E-03 0. -1.
        -11    1    3    3    0    0  0.17651092519E+02 -0.37381298298E+00 -0.11245271324E+02  0.20932198419E+02  0.51100000000E-03 0.  1.
         12    1    3    3    0    0  0.11307914529E+01  0.48161079863E+01 -0.16342681298E+01  0.52100304957E+01  0.00000000000E+00 0. -1.
</event>
<event>
 7    1  0.2991278E-011  0.5052886E+02  0.7816164E-02  0.1300439E+00
        -11   -1    0    0    0    0  0.00000000000E+00  0.00000000000E+00  0.45593999997E+02  0.45594000000E+02  0.51100000000E-03 0. -1.
         11   -1    0    0    0    0 -0.00000000000E+00 -0.00000000000E+00 -0.45593999997E+02  0.45594000000E+02  0.51100000000E-03 0.  1.
    9900012    2    1    2    0    0  0.42045842846E+01  0.27672527043E+01 -0.40346371861E+02  0.50528856639E+02  0.29999990240E+02 0.  0.
         12    1    1    2    0    0 -0.42045842846E+01 -0.27672527043E+01  0.40346371861E+02  0.40659143361E+02  0.00000000000E+00 0. -1.
         11    1    3    3    0    0  0.53734477222E+01  0.46635552250E+01 -0.73760962656E+01  0.10248389344E+02  0.51100000000E-03 0. -1.
        -11    1    3    3    0    0 -0.11054048698E+02 -0.26270442892E+01 -0.95261884818E+01  0.14827057077E+02  0.51100000000E-03 0.  1.
        -12    1    3    3    0    0  0.98851852605E+01  0.73074176861E+00 -0.23444087113E+02  0.25453410218E+02  0.00000000000E+00 0.  1.
</event>
<event>
 7    1  0.2991278E-011  0.5052886E+02  0.7816164E-02  0.1300439E+00
        -11   -1    0    0    0    0  0.00000000000E+00  0.00000000000E+00  0.45593999997E+02  0.45594000000E+02  0.51100000000E-03 0.  1.
         11   -1    0    0    0    0 -0.00000000000E+00 -0.00000000000E+00 -0.45593999997E+02  0.45594000000E+02  0.51100000000E-03 0. -1.
    9900012    2    1    2    0    0 -0.34785129843E+01 -0.38592193087E+02  0.12316980177E+02  0.50528863013E+02  0.30000009614E+02 0.  0.
         12    1    1    2    0    0  0.34785129843E+01  0.38592193087E+02 -0.12316980177E+02  0.40659136987E+02  0.00000000000E+00 0. -1.
         11    1    3    3    0    0  0.77803531112E+01 -0.24937137636E+01 -0.28337037146E+01  0.86476806065E+01  0.51100000000E-03 0. -1.
        -11    1    3    3    0    0 -0.97846638693E+00 -0.70926268207E+01  0.70743686814E+01  0.10065259271E+02  0.51100000000E-03 0.  1.
         12    1    3    3    0    0 -0.10280399709E+02 -0.29005852503E+02  0.80763152100E+01  0.31815923135E+02  0.00000000000E+00 0. -1.
</event>
<event>
 7    1  0.2991278E-011  0.5052886E+02  0.7816164E-02  0.1300439E+00
        -11   -1    0    0    0    0  0.00000000000E+00  0.00000000000E+00  0.45593999997E+02  0.45594000000E+02  0.51100000000E-03 0. -1.
         11   -1    0    0    0    0 -0.00000000000E+00 -0.00000000000E+00 -0.45593999997E+02  0.45594000000E+02  0.51100000000E-03 0.  1.
    9900012    2    1    2    0    0 -0.62494354868E+01  0.15693302109E+01 -0.40145325397E+02  0.50528863358E+02  0.30000010663E+02 0.  0.
         12    1    1    2    0    0  0.62494354868E+01 -0.15693302109E+01  0.40145325397E+02  0.40659136642E+02  0.00000000000E+00 0. -1.
         11    1    3    3    0    0  0.92667365536E+00  0.91745124035E+01 -0.99316445973E+01  0.13552415525E+02  0.51100000000E-03 0. -1.
        -11    1    3    3    0    0  0.26262653668E+01 -0.10194102363E+02 -0.10840299062E+02  0.15110561762E+02  0.51100000000E-03 0.  1.
        -12    1    3    3    0    0 -0.98023745090E+01  0.25889201702E+01 -0.19373381738E+02  0.21865886070E+02  0.00000000000E+00 0.  1.
</event>
<event>
 7    1  0.2991278E-011  0.5052886E+02  0.7816164E-02  0.1300439E+00
        -11   -1    0    0    0    0  0.00000000000E+00  0.00000000000E+00  0.45593999997E+02  0.45594000000E+02  0.51100000000E-03 0.  1.
         11   -1    0    0    0    0 -0.00000000000E+00 -0.00000000000E+00 -0.45593999997E+02  0.45594000000E+02  0.51100000000E-03 0. -1.
    9900012    2    1    2    0    0 -0.19691238107E+02 -0.35497975338E+02  0.23053234905E+01  0.50528860466E+02  0.30000001873E+02 0.  0.
         12    1    1    2    0    0  0.19691238107E+02  0.35497975338E+02 -0.23053234905E+01  0.40659139534E+02  0.00000000000E+00 0. -1.
         11    1    3    3    0    0  0.23472191598E+01 -0.16846343459E+02 -0.36658129366E+01  0.17399623860E+02  0.51100000000E-03 0. -1.
        -11    1    3    3    0    0 -0.22315533114E+02 -0.14722283583E+02  0.95522500704E+00  0.26751469252E+02  0.51100000000E-03 0.  1.
        -12    1    3    3    0    0  0.27707584699E+00 -0.39293482953E+01  0.50159114201E+01  0.63777673543E+01  0.00000000000E+00 0.  1.
</event>
<event>
 7    1  0.2991278E-011  0.5052885E+02  0.7816164E-02  0.1300439E+00
        -11   -1    0    0    0    0  0.00000000000E+00  0.00000000000E+00  0.45593999997E+02  0.45594000000E+02  0.51100000000E-03 0.  1.
         11   -1    0    0    0    0 -0.00000000000E+00 -0.00000000000E+00 -0.45593999997E+02  0.45594000000E+02  0.51100000000E-03 0. -1.
    9900012    2    1    2    0    0  0.38829104989E+02 -0.11737872658E+02  0.27730433812E+01  0.50528845823E+02  0.29999957363E+02 0.  0.
         12    1    1    2    0    0 -0.38829104989E+02  0.11737872658E+02 -0.27730433812E+01  0.40659154177E+02  0.00000000000E+00 0. -1.
         11    1    3    3    0    0  0.12526142064E+02  0.82275306704E+00 -0.10485171937E+02  0.16356038287E+02  0.51100000000E-03 0. -1.
        -11    1    3    3    0    0  0.22969531151E+02 -0.14770341044E+02  0.12759695114E+02  0.30142530676E+02  0.51100000000E-03 0.  1.
        -12    1    3    3    0    0  0.33334317736E+01  0.22097153185E+01  0.49852020405E+00  0.40302768605E+01  0.00000000000E+00 0.  1.
</event>
<event>
 7    1  0.2991278E-011  0.5052885E+02  0.7816164E-02  0.1300439E+00
        -11   -1    0    0    0    0  0.00000000000E+00  0.00000000000E+00  0.45593999997E+02  0.45594000000E+02  0.51100000000E-03 0.  1.
         11   -1    0    0    0    0 -0.00000000000E+00 -0.00000000000E+00 -0.45593999997E+02  0.45594000000E+02  0.51100000000E-03 0. -1.
    9900012    2    1    2    0    0  0.17197962271E+02  0.26868427979E+02  0.25208804139E+02  0.50528854233E+02  0.29999982927E+02 0.  0.
         12    1    1    2    0    0 -0.17197962271E+02 -0.26868427979E+02 -0.25208804139E+02  0.40659145767E+02  0.00000000000E+00 0. -1.
         11    1    3    3    0    0  0.11405321345E+02  0.28025704044E+02  0.11145765301E+02  0.32245147334E+02  0.51100000000E-03 0. -1.
        -11    1    3    3    0    0  0.44486609752E+01 -0.55166670476E+01  0.78499780324E+01  0.10575743716E+02  0.51100000000E-03 0.  1.
         12    1    3    3    0    0  0.13439799507E+01  0.43593909827E+01  0.62130608060E+01  0.77079631828E+01  0.00000000000E+00 0. -1.
</event>
<event>
 7    1  0.2991278E-011  0.5052885E+02  0.7816164E-02  0.1300439E+00
        -11   -1    0    0    0    0  0.00000000000E+00  0.00000000000E+00  0.45593999997E+02  0.45594000000E+02  0.51100000000E-03 0. -1.
         11   -1    0    0    0    0 -0.00000000000E+00 -0.00000000000E+00 -0.45593999997E+02  0.45594000000E+02  0.51100000000E-03 0.  1.
    9900012    2    1    2    0    0  0.11671436709E+02 -0.38789143521E+02 -0.35137061806E+01  0.50528853169E+02  0.29999979692E+02 0.  0.
         12    1    1    2    0    0 -0.11671436709E+02  0.38789143521E+02  0.35137061806E+01  0.40659146831E+02  0.00000000000E+00 0. -1.
         11    1    3    3    0    0  0.44532100931E+01 -0.17741019310E+02  0.80778211021E+01  0.19995650535E+02  0.51100000000E-03 0. -1.
        -11    1    3    3    0    0  0.77348941067E+01 -0.15399404312E+01 -0.68601051150E+01  0.10452800860E+02  0.51100000000E-03 0.  1.
         12    1    3    3    0    0 -0.51666749112E+00 -0.19508183779E+02 -0.47314221677E+01  0.20080401773E+02  0.00000000000E+00 0. -1.
</event>
<event>
 7    1  0.2991278E-011  0.5052888E+02  0.7816164E-02  0.1300439E+00
        -11   -1    0    0    0    0  0.00000000000E+00  0.00000000000E+00  0.45593999997E+02  0.45594000000E+02  0.51100000000E-03 0.  1.
         11   -1    0    0    0    0 -0.00000000000E+00 -0.00000000000E+00 -0.45593999997E+02  0.45594000000E+02  0.51100000000E-03 0. -1.
    9900012    2    1    2    0    0  0.30951810503E+02 -0.19295803637E+02  0.17967240752E+02  0.50528876157E+02  0.30000049566E+02 0.  0.
         12    1    1    2    0    0 -0.30951810503E+02  0.19295803637E+02 -0.17967240752E+02  0.40659123843E+02  0.00000000000E+00 0. -1.
         11    1    3    3    0    0 -0.17448884423E+01  0.75182822656E+00  0.39247248003E+01  0.43604296093E+01  0.51100000000E-03 0. -1.
        -11    1    3    3    0    0  0.13762587290E+02 -0.25593218343E+01 -0.41722678804E+01  0.14607078992E+02  0.51100000000E-03 0.  1.
        -12    1    3    3    0    0  0.18934111656E+02 -0.17488310030E+02  0.18214783832E+02  0.31561367555E+02  0.00000000000E+00 0.  1.
</event>
<event>
 7    1  0.2991278E-011  0.5052893E+02  0.7816164E-02  0.1300439E+00
        -11   -1    0    0    0    0  0.00000000000E+00  0.00000000000E+00  0.45593999997E+02  0.45594000000E+02  0.51100000000E-03 0. -1.
         11   -1    0    0    0    0 -0.00000000000E+00 -0.00000000000E+00 -0.45593999997E+02  0.45594000000E+02  0.51100000000E-03 0.  1.
    9900012    2    1    2    0    0 -0.11399292809E+02  0.27326272607E+02 -0.27865587410E+02  0.50528929513E+02  0.30000211747E+02 0.  0.
         12    1    1    2    0    0  0.11399292809E+02 -0.27326272607E+02  0.27865587410E+02  0.40659070487E+02  0.00000000000E+00 0. -1.
         11    1    3    3    0    0  0.15829051729E+01 -0.15802427284E+01 -0.97399167193E+01  0.99934345361E+01  0.51100000000E-03 0. -1.
        -11    1    3    3    0    0 -0.15666076770E+02  0.13700722402E+02 -0.10720246593E+02  0.23410669426E+02  0.51100000000E-03 0.  1.
        -12    1    3    3    0    0  0.26838787874E+01  0.15205792934E+02 -0.74054240973E+01  0.17124825551E+02  0.00000000000E+00 0.  1.
</event>
<event>
 7    1  0.2991278E-011  0.5052885E+02  0.7816164E-02  0.1300439E+00
        -11   -1    0    0    0    0  0.00000000000E+00  0.00000000000E+00  0.45593999997E+02  0.45594000000E+02  0.51100000000E-03 0. -1.
         11   -1    0    0    0    0 -0.00000000000E+00 -0.00000000000E+00 -0.45593999997E+02  0.45594000000E+02  0.51100000000E-03 0.  1.
    9900012    2    1    2    0    0  0.14284661480E+02  0.22043237628E+02 -0.31035628646E+02  0.50528854360E+02  0.29999983312E+02 0.  0.
         12    1    1    2    0    0 -0.14284661480E+02 -0.22043237628E+02  0.31035628646E+02  0.40659145640E+02  0.00000000000E+00 0. -1.
         11    1    3    3    0    0  0.44796592903E+01  0.12293036198E+02 -0.12575851064E+01  0.13144109208E+02  0.51100000000E-03 0. -1.
        -11    1    3    3    0    0  0.45007725586E-02  0.12203276436E+01 -0.22420135087E+02  0.22453322191E+02  0.51100000000E-03 0.  1.
         12    1    3    3    0    0  0.98005014168E+01  0.85298737864E+01 -0.73579084530E+01  0.14931422961E+02  0.00000000000E+00 0. -1.
</event>
<event>
 7    1  0.2991278E-011  0.5052886E+02  0.7816164E-02  0.1300439E+00
        -11   -1    0    0    0    0  0.00000000000E+00  0.00000000000E+00  0.45593999997E+02  0.45594000000E+02  0.51100000000E-03 0. -1.
         11   -1    0    0    0    0 -0.00000000000E+00 -0.00000000000E+00 -0.45593999997E+02  0.45594000000E+02  0.51100000000E-03 0.  1.
    9900012    2    1    2    0    0  0.35317643365E+02  0.19484137026E+02 -0.51184197354E+01  0.50528858972E+02  0.29999997332E+02 0.  0.
         12    1    1    2    0    0 -0.35317643365E+02 -0.19484137026E+02  0.51184197354E+01  0.40659141028E+02  0.00000000000E+00 0. -1.
         11    1    3    3    0    0  0.39710812905E+01  0.72563472983E+01 -0.51038868834E+01  0.97197594780E+01  0.51100000000E-03 0. -1.
        -11    1    3    3    0    0  0.34015246090E+01 -0.24277859479E+01  0.73054536668E+01  0.84163036906E+01  0.51100000000E-03 0.  1.
        -12    1    3    3    0    0  0.27945037466E+02  0.14655575675E+02 -0.73199865188E+01  0.32392795804E+02  0.00000000000E+00 0.  1.
</event>
<event>
 7    1  0.2991278E-011  0.5052886E+02  0.7816164E-02  0.1300439E+00
        -11   -1    0    0    0    0  0.00000000000E+00  0.00000000000E+00  0.45593999997E+02  0.45594000000E+02  0.51100000000E-03 0. -1.
         11   -1    0    0    0    0 -0.00000000000E+00 -0.00000000000E+00 -0.45593999997E+02  0.45594000000E+02  0.51100000000E-03 0.  1.
    9900012    2    1    2    0    0 -0.34009275677E+02 -0.87549599215E+01 -0.20491102807E+02  0.50528862656E+02  0.30000008528E+02 0.  0.
         12    1    1    2    0    0  0.34009275677E+02  0.87549599215E+01  0.20491102807E+02  0.40659137344E+02  0.00000000000E+00 0. -1.
         11    1    3    3    0    0 -0.37620456858E+01 -0.74100952484E+01  0.60380392833E+01  0.10272313176E+02  0.51100000000E-03 0. -1.
        -11    1    3    3    0    0 -0.92350634535E+01 -0.52927642446E+00 -0.82009965213E+01  0.12362154939E+02  0.51100000000E-03 0.  1.
         12    1    3    3    0    0 -0.21012166538E+02 -0.81558824866E+00 -0.18328145569E+02  0.27894394541E+02  0.00000000000E+00 0. -1.
</event>
<event>
 7    1  0.2991278E-011  0.5052886E+02  0.7816164E-02  0.1300439E+00
        -11   -1    0    0    0    0  0.00000000000E+00  0.00000000000E+00  0.45593999997E+02  0.45594000000E+02  0.51100000000E-03 0.  1.
         11   -1    0    0    0    0 -0.00000000000E+00 -0.00000000000E+00 -0.45593999997E+02  0.45594000000E+02  0.51100000000E-03 0. -1.
    9900012    2    1    2    0    0  0.36273083470E+02  0.17148472427E+02 -0.65847761351E+01  0.50528856283E+02  0.29999989159E+02 0.  0.
         12    1    1    2    0    0 -0.36273083470E+02 -0.17148472427E+02  0.65847761351E+01  0.40659143717E+02  0.00000000000E+00 0. -1.
         11    1    3    3    0    0  0.77970695241E+01  0.92348955432E+01 -0.78919635711E+01  0.14434703950E+02  0.51100000000E-03 0. -1.
        -11    1    3    3    0    0  0.15936154081E+02 -0.56496208727E+01  0.41372593404E+01  0.17406784253E+02  0.51100000000E-03 0.  1.
         12    1    3    3    0    0  0.12539859865E+02  0.13563197756E+02 -0.28300719044E+01  0.18687368081E+02  0.00000000000E+00 0. -1.
</event>
<event>
 7    1  0.2991278E-011  0.5052885E+02  0.7816164E-02  0.1300439E+00
        -11   -1    0    0    0    0  0.00000000000E+00  0.00000000000E+00  0.45593999997E+02  0.45594000000E+02  0.51100000000E-03 0.  1.
         11   -1    0    0    0    0 -0.00000000000E+00 -0.00000000000E+00 -0.45593999997E+02  0.45594000000E+02  0.51100000000E-03 0. -1.
    9900012    2    1    2    0    0  0.23670259096E+02 -0.32999453596E+02  0.19802269672E+01  0.50528850942E+02  0.29999972922E+02 0.  0.
         12    1    1    2    0    0 -0.23670259096E+02  0.32999453596E+02 -0.19802269672E+01  0.40659149058E+02  0.00000000000E+00 0. -1.
         11    1    3    3    0    0 -0.57932320273E+00 -0.14918094828E+02  0.18610636171E+01  0.15044890385E+02  0.51100000000E-03 0. -1.
        -11    1    3    3    0    0  0.15315112642E+02 -0.30523211440E+01  0.64402869647E+01  0.16892206370E+02  0.51100000000E-03 0.  1.
        -12    1    3    3    0    0  0.89344696567E+01 -0.15029037625E+02 -0.63211236145E+01  0.18591754186E+02  0.00000000000E+00 0.  1.
</event>
<event>
 7    1  0.2991278E-011  0.5052888E+02  0.7816164E-02  0.1300439E+00
        -11   -1    0    0    0    0  0.00000000000E+00  0.00000000000E+00  0.45593999997E+02  0.45594000000E+02  0.51100000000E-03 0.  1.
         11   -1    0    0    0    0 -0.00000000000E+00 -0.00000000000E+00 -0.45593999997E+02  0.45594000000E+02  0.51100000000E-03 0. -1.
    9900012    2    1    2    0    0  0.16312402839E+02  0.25484953464E+02  0.27158548018E+02  0.50528879622E+02  0.30000060099E+02 0.  0.
         12    1    1    2    0    0 -0.16312402839E+02 -0.25484953464E+02 -0.27158548018E+02  0.40659120378E+02  0.00000000000E+00 0. -1.
         11    1    3    3    0    0 -0.87465430117E+00  0.32054306730E+01 -0.57412903410E+00  0.33718585906E+01  0.51100000000E-03 0. -1.
        -11    1    3    3    0    0  0.20268128710E+02  0.70782250560E+01  0.10263205334E+02  0.23795623449E+02  0.51100000000E-03 0.  1.
        -12    1    3    3    0    0 -0.30810715700E+01  0.15201297735E+02  0.17469471719E+02  0.23361397582E+02  0.00000000000E+00 0.  1.
</event>
<event>
 7    1  0.2991278E-011  0.5052886E+02  0.7816164E-02  0.1300439E+00
        -11   -1    0    0    0    0  0.00000000000E+00  0.00000000000E+00  0.45593999997E+02  0.45594000000E+02  0.51100000000E-03 0.  1.
         11   -1    0    0    0    0 -0.00000000000E+00 -0.00000000000E+00 -0.45593999997E+02  0.45594000000E+02  0.51100000000E-03 0. -1.
    9900012    2    1    2    0    0  0.81735966875E+00 -0.37973865212E+02  0.14508034583E+02  0.50528861009E+02  0.30000003524E+02 0.  0.
         12    1    1    2    0    0 -0.81735966875E+00  0.37973865212E+02 -0.14508034583E+02  0.40659138991E+02  0.00000000000E+00 0. -1.
         11    1    3    3    0    0 -0.11972017941E+02 -0.95334679857E+01  0.32604951873E+00  0.15307597263E+02  0.51100000000E-03 0. -1.
        -11    1    3    3    0    0  0.98932652904E+01 -0.25970613858E+02  0.14598841619E+02  0.31392286619E+02  0.51100000000E-03 0.  1.
         12    1    3    3    0    0  0.28961123197E+01 -0.24697833689E+01 -0.41685655517E+00  0.38289771278E+01  0.00000000000E+00 0. -1.
</event>
<event>
 7    1  0.2991278E-011  0.5052887E+02  0.7816164E-02  0.1300439E+00
        -11   -1    0    0    0    0  0.00000000000E+00  0.00000000000E+00  0.45593999997E+02  0.45594000000E+02  0.51100000000E-03 0. -1.
         11   -1    0    0    0    0 -0.00000000000E+00 -0.00000000000E+00 -0.45593999997E+02  0.45594000000E+02  0.51100000000E-03 0.  1.
    9900012    2    1    2    0    0 -0.31512376223E+02 -0.23508537153E+02 -0.10367445350E+02  0.50528866987E+02  0.30000021693E+02 0.  0.
         12    1    1    2    0    0  0.31512376223E+02  0.23508537153E+02  0.10367445350E+02  0.40659133013E+02  0.00000000000E+00 0. -1.
         11    1    3    3    0    0 -0.85036727512E+01 -0.15040652052E+01 -0.76443077390E+01  0.11533000627E+02  0.51100000000E-03 0. -1.
        -11    1    3    3    0    0  0.21989849567E+01 -0.64937917737E+01  0.49065463732E+01  0.84308400538E+01  0.51100000000E-03 0.  1.
        -12    1    3    3    0    0 -0.25207688428E+02 -0.15510680174E+02 -0.76296839845E+01  0.30565026306E+02  0.00000000000E+00 0.  1.
</event>
<event>
 7    1  0.2991278E-011  0.5052885E+02  0.7816164E-02  0.1300439E+00
        -11   -1    0    0    0    0  0.00000000000E+00  0.00000000000E+00  0.45593999997E+02  0.45594000000E+02  0.51100000000E-03 0. -1.
         11   -1    0    0    0    0 -0.00000000000E+00 -0.00000000000E+00 -0.45593999997E+02  0.45594000000E+02  0.51100000000E-03 0.  1.
    9900012    2    1    2    0    0 -0.22894900758E+02  0.32855650623E+02 -0.70353396035E+01  0.50528852666E+02  0.29999978164E+02 0.  0.
         12    1    1    2    0    0  0.22894900758E+02 -0.32855650623E+02  0.70353396035E+01  0.40659147334E+02  0.00000000000E+00 0. -1.
         11    1    3    3    0    0 -0.16532660678E+02  0.16904698352E+02  0.65543806937E+01  0.24536862106E+02  0.51100000000E-03 0. -1.
        -11    1    3    3    0    0 -0.73028547820E+01  0.17941200615E+02 -0.10047128311E+02  0.21821163009E+02  0.51100000000E-03 0.  1.
         12    1    3    3    0    0  0.94061470228E+00 -0.19902483440E+01 -0.35425919858E+01  0.41708275518E+01  0.00000000000E+00 0. -1.
</event>
<event>
 7    1  0.2991278E-011  0.5052886E+02  0.7816164E-02  0.1300439E+00
        -11   -1    0    0    0    0  0.00000000000E+00  0.00000000000E+00  0.45593999997E+02  0.45594000000E+02  0.51100000000E-03 0.  1.
         11   -1    0    0    0    0 -0.00000000000E+00 -0.00000000000E+00 -0.45593999997E+02  0.45594000000E+02  0.51100000000E-03 0. -1.
    9900012    2    1    2    0    0 -0.14223604546E+02 -0.16684760256E+02  0.34241400127E+02  0.50528860391E+02  0.30000001645E+02 0.  0.
         12    1    1    2    0    0  0.14223604546E+02  0.16684760256E+02 -0.34241400127E+02  0.40659139609E+02  0.00000000000E+00 0. -1.
         11    1    3    3    0    0  0.10225245860E+01  0.27440643559E+01 -0.25280183149E+01  0.38686331668E+01  0.51100000000E-03 0. -1.
        -11    1    3    3    0    0 -0.35435646888E+01 -0.15357622046E+02  0.15888624443E+02  0.22379941746E+02  0.51100000000E-03 0.  1.
         12    1    3    3    0    0 -0.11702564443E+02 -0.40712025655E+01  0.20880793998E+02  0.24280285478E+02  0.00000000000E+00 0. -1.
</event>
<event>
 7    1  0.2991278E-011  0.5052886E+02  0.7816164E-02  0.1300439E+00
        -11   -1    0    0    0    0  0.00000000000E+00  0.00000000000E+00  0.45593999997E+02  0.45594000000E+02  0.51100000000E-03 0. -1.
         11   -1    0    0    0    0 -0.00000000000E+00 -0.00000000000E+00 -0.45593999997E+02  0.45594000000E+02  0.51100000000E-03 0.  1.
    9900012    2    1    2    0    0 -0.17053097598E+01  0.23080104635E+02 -0.33430026738E+02  0.50528855899E+02  0.29999987991E+02 0.  0.
         12    1    1    2    0    0  0.17053097598E+01 -0.23080104635E+02  0.33430026738E+02  0.40659144101E+02  0.00000000000E+00 0. -1.
         11    1    3    3    0    0  0.10910647370E+01  0.26570255529E+00  0.40289013741E+01  0.41824713570E+01  0.51100000000E-03 0. -1.
        -11    1    3    3    0    0  0.17039010838E+01  0.22459703657E+02 -0.33339359763E+02  0.40234990704E+02  0.51100000000E-03 0.  1.
         12    1    3    3    0    0 -0.45002755805E+01  0.35469842289E+00 -0.41195683487E+01  0.61113938387E+01  0.00000000000E+00 0. -1.
</event>
<event>
 7    1  0.2991278E-011  0.5052886E+02  0.7816164E-02  0.1300439E+00
        -11   -1    0    0    0    0  0.00000000000E+00  0.00000000000E+00  0.45593999997E+02  0.45594000000E+02  0.51100000000E-03 0.  1.
         11   -1    0    0    0    0 -0.00000000000E+00 -0.00000000000E+00 -0.45593999997E+02  0.45594000000E+02  0.51100000000E-03 0. -1.
    9900012    2    1    2    0    0  0.40382426618E+02  0.46959951813E+01 -0.61050872523E+00  0.50528862390E+02  0.30000007722E+02 0.  0.
         12    1    1    2    0    0 -0.40382426618E+02 -0.46959951813E+01  0.61050872523E+00  0.40659137610E+02  0.00000000000E+00 0. -1.
         11    1    3    3    0    0  0.23658077637E+02  0.10399760741E+02 -0.38986788165E+00  0.25845921500E+02  0.51100000000E-03 0. -1.
        -11    1    3    3    0    0  0.79450441556E+01 -0.26090108872E+01  0.85024831496E+01  0.11925723643E+02  0.51100000000E-03 0.  1.
         12    1    3    3    0    0  0.87793048249E+01 -0.30947546726E+01 -0.87231239931E+01  0.12757217247E+02  0.00000000000E+00 0. -1.
</event>
<event>
 7    1  0.2991278E-011  0.5052882E+02  0.7816164E-02  0.1300439E+00
        -11   -1    0    0    0    0  0.00000000000E+00  0.00000000000E+00  0.45593999997E+02  0.45594000000E+02  0.51100000000E-03 0. -1.
         11   -1    0    0    0    0 -0.00000000000E+00 -0.00000000000E+00 -0.45593999997E+02  0.45594000000E+02  0.51100000000E-03 0.  1.
    9900012    2    1    2    0    0 -0.90468698608E+00  0.36584557579E+02 -0.17717814079E+02  0.50528815951E+02  0.29999866565E+02 0.  0.
         12    1    1    2    0    0  0.90468698608E+00 -0.36584557579E+02  0.17717814079E+02  0.40659184049E+02  0.00000000000E+00 0. -1.
         11    1    3    3    0    0  0.88217457430E+01  0.24284516172E+02 -0.14613584433E+02  0.29683628045E+02  0.51100000000E-03 0.  1.
        -11    1    3    3    0    0 -0.12037432002E+02  0.13379738716E+02 -0.21670463271E+01  0.18127693382E+02  0.51100000000E-03 0. -1.
         12    1    3    3    0    0  0.23109992727E+01 -0.10796973089E+01 -0.93718331906E+00  0.27174945245E+01  0.00000000000E+00 0. -1.
</event>
<event>
 7    1  0.2991278E-011  0.5052886E+02  0.7816164E-02  0.1300439E+00
        -11   -1    0    0    0    0  0.00000000000E+00  0.00000000000E+00  0.45593999997E+02  0.45594000000E+02  0.51100000000E-03 0. -1.
         11   -1    0    0    0    0 -0.00000000000E+00 -0.00000000000E+00 -0.45593999997E+02  0.45594000000E+02  0.51100000000E-03 0.  1.
    9900012    2    1    2    0    0  0.54954212577E+01  0.72272834053E+01 -0.39632470063E+02  0.50528856336E+02  0.29999989319E+02 0.  0.
         12    1    1    2    0    0 -0.54954212577E+01 -0.72272834053E+01  0.39632470063E+02  0.40659143664E+02  0.00000000000E+00 0. -1.
         11    1    3    3    0    0 -0.51746194556E+01  0.15783373968E+01 -0.88592160469E+01  0.10380440486E+02  0.51100000000E-03 0. -1.
        -11    1    3    3    0    0  0.13931266427E+02  0.12034910355E+02 -0.24315822823E+02  0.30498827704E+02  0.51100000000E-03 0.  1.
        -12    1    3    3    0    0 -0.32612257134E+01 -0.63859643462E+01 -0.64574311930E+01  0.96495881465E+01  0.00000000000E+00 0.  1.
</event>
<event>
 7    1  0.2991278E-011  0.5052886E+02  0.7816164E-02  0.1300439E+00
        -11   -1    0    0    0    0  0.00000000000E+00  0.00000000000E+00  0.45593999997E+02  0.45594000000E+02  0.51100000000E-03 0.  1.
         11   -1    0    0    0    0 -0.00000000000E+00 -0.00000000000E+00 -0.45593999997E+02  0.45594000000E+02  0.51100000000E-03 0. -1.
    9900012    2    1    2    0    0 -0.27785445523E+02  0.13966175805E+02  0.26193134677E+02  0.50528863834E+02  0.30000012111E+02 0.  0.
         12    1    1    2    0    0  0.27785445523E+02 -0.13966175805E+02 -0.26193134677E+02  0.40659136166E+02  0.00000000000E+00 0. -1.
         11    1    3    3    0    0 -0.18646218345E+02 -0.54420093268E+01  0.83794388072E+01  0.21154477518E+02  0.51100000000E-03 0. -1.
        -11    1    3    3    0    0 -0.50219230021E+01  0.12930660301E+02  0.56214113361E+01  0.14967362898E+02  0.51100000000E-03 0.  1.
         12    1    3    3    0    0 -0.41173041761E+01  0.64775248305E+01  0.12192284534E+02  0.14407023418E+02  0.00000000000E+00 0. -1.
</event>
<event>
 7    1  0.2991278E-011  0.5052884E+02  0.7816164E-02  0.1300439E+00
        -11   -1    0    0    0    0  0.00000000000E+00  0.00000000000E+00  0.45593999997E+02  0.45594000000E+02  0.51100000000E-03 0. -1.
         11   -1    0    0    0    0 -0.00000000000E+00 -0.00000000000E+00 -0.45593999997E+02  0.45594000000E+02  0.51100000000E-03 0.  1.
    9900012    2    1    2    0    0  0.49631162375E+01 -0.36444698722E+02 -0.17329694264E+02  0.50528844930E+02  0.29999954650E+02 0.  0.
         12    1    1    2    0    0 -0.49631162375E+01  0.36444698722E+02  0.17329694264E+02  0.40659155070E+02  0.00000000000E+00 0. -1.
         11    1    3    3    0    0  0.43031970084E+00  0.19074928486E+01  0.31483993778E+01  0.37062275855E+01  0.51100000000E-03 0. -1.
        -11    1    3    3    0    0  0.96285555866E+01 -0.16573416353E+02 -0.13308680601E+02  0.23334699310E+02  0.51100000000E-03 0.  1.
        -12    1    3    3    0    0 -0.50957590500E+01 -0.21778775217E+02 -0.71694130410E+01  0.23487918035E+02  0.00000000000E+00 0.  1.
</event>
<event>
 7    1  0.2991278E-011  0.5052886E+02  0.7816164E-02  0.1300439E+00
        -11   -1    0    0    0    0  0.00000000000E+00  0.00000000000E+00  0.45593999997E+02  0.45594000000E+02  0.51100000000E-03 0.  1.
         11   -1    0    0    0    0 -0.00000000000E+00 -0.00000000000E+00 -0.45593999997E+02  0.45594000000E+02  0.51100000000E-03 0. -1.
    9900012    2    1    2    0    0 -0.33906708313E+01  0.73809870677E+01  0.39839554096E+02  0.50528859708E+02  0.29999999567E+02 0.  0.
         12    1    1    2    0    0  0.33906708313E+01 -0.73809870677E+01 -0.39839554096E+02  0.40659140292E+02  0.00000000000E+00 0. -1.
         11    1    3    3    0    0 -0.33748111018E+00 -0.83524030353E+01  0.85893789898E+01  0.11985573063E+02  0.51100000000E-03 0. -1.
        -11    1    3    3    0    0  0.33317852181E+01  0.80135380013E+01  0.25623135972E+02  0.27052960676E+02  0.51100000000E-03 0.  1.
        -12    1    3    3    0    0 -0.63849749392E+01  0.77198521017E+01  0.56270391342E+01  0.11490325969E+02  0.00000000000E+00 0.  1.
</event>
<event>
 7    1  0.2991278E-011  0.5052886E+02  0.7816164E-02  0.1300439E+00
        -11   -1    0    0    0    0  0.00000000000E+00  0.00000000000E+00  0.45593999997E+02  0.45594000000E+02  0.51100000000E-03 0.  1.
         11   -1    0    0    0    0 -0.00000000000E+00 -0.00000000000E+00 -0.45593999997E+02  0.45594000000E+02  0.51100000000E-03 0. -1.
    9900012    2    1    2    0    0 -0.18347790925E+02  0.32107069078E+01  0.36141609216E+02  0.50528856042E+02  0.29999988424E+02 0.  0.
         12    1    1    2    0    0  0.18347790925E+02 -0.32107069078E+01 -0.36141609216E+02  0.40659143958E+02  0.00000000000E+00 0. -1.
         11    1    3    3    0    0 -0.15160372081E+02 -0.13420215940E+01  0.49670010728E+01  0.16009653448E+02  0.51100000000E-03 0. -1.
        -11    1    3    3    0    0 -0.65376635202E+01  0.76447580676E+01  0.23946630470E+02  0.25973534248E+02  0.51100000000E-03 0.  1.
        -12    1    3    3    0    0  0.33502446763E+01 -0.30920295658E+01  0.72279776735E+01  0.85456683458E+01  0.00000000000E+00 0.  1.
</event>
<event>
 7    1  0.2991278E-011  0.5052885E+02  0.7816164E-02  0.1300439E+00
        -11   -1    0    0    0    0  0.00000000000E+00  0.00000000000E+00  0.45593999997E+02  0.45594000000E+02  0.51100000000E-03 0.  1.
         11   -1    0    0    0    0 -0.00000000000E+00 -0.00000000000E+00 -0.45593999997E+02  0.45594000000E+02  0.51100000000E-03 0. -1.
    9900012    2    1    2    0    0 -0.32622059575E+02 -0.23351633741E+02  0.66082399410E+01  0.50528850914E+02  0.29999972838E+02 0.  0.
         12    1    1    2    0    0  0.32622059575E+02  0.23351633741E+02 -0.66082399410E+01  0.40659149086E+02  0.00000000000E+00 0. -1.
         11    1    3    3    0    0 -0.21417458802E+02 -0.18382820356E+02  0.12090841345E+02  0.30705440405E+02  0.51100000000E-03 0. -1.
        -11    1    3    3    0    0  0.28602116454E+01 -0.21255895843E+01  0.14987484771E+01  0.38659008001E+01  0.51100000000E-03 0.  1.
         12    1    3    3    0    0 -0.14064812418E+02 -0.28432238012E+01 -0.69813498813E+01  0.15957509709E+02  0.00000000000E+00 0. -1.
</event>
<event>
 7    1  0.2991278E-011  0.5052886E+02  0.7816164E-02  0.1300439E+00
        -11   -1    0    0    0    0  0.00000000000E+00  0.00000000000E+00  0.45593999997E+02  0.45594000000E+02  0.51100000000E-03 0. -1.
         11   -1    0    0    0    0 -0.00000000000E+00 -0.00000000000E+00 -0.45593999997E+02  0.45594000000E+02  0.51100000000E-03 0.  1.
    9900012    2    1    2    0    0 -0.27516593051E+02  0.23782132387E+02 -0.18177265585E+02  0.50528859599E+02  0.29999999237E+02 0.  0.
         12    1    1    2    0    0  0.27516593051E+02 -0.23782132387E+02  0.18177265585E+02  0.40659140401E+02  0.00000000000E+00 0. -1.
         11    1    3    3    0    0  0.26409066153E+01 -0.33359498248E+01 -0.90149529208E+00  0.43492117685E+01  0.51100000000E-03 0. -1.
        -11    1    3    3    0    0 -0.19219165361E+02  0.14904552154E+02 -0.31237697107E+01  0.24521009962E+02  0.51100000000E-03 0.  1.
         12    1    3    3    0    0 -0.10938334305E+02  0.12213530058E+02 -0.14152000582E+02  0.21658637869E+02  0.00000000000E+00 0. -1.
</event>
<event>
 7    1  0.2991278E-011  0.5052886E+02  0.7816164E-02  0.1300439E+00
        -11   -1    0    0    0    0  0.00000000000E+00  0.00000000000E+00  0.45593999997E+02  0.45594000000E+02  0.51100000000E-03 0.  1.
         11   -1    0    0    0    0 -0.00000000000E+00 -0.00000000000E+00 -0.45593999997E+02  0.45594000000E+02  0.51100000000E-03 0. -1.
    9900012    2    1    2    0    0  0.24596375798E+02  0.20433465574E+02  0.25112894978E+02  0.50528859430E+02  0.29999998723E+02 0.  0.
         12    1    1    2    0    0 -0.24596375798E+02 -0.20433465574E+02 -0.25112894978E+02  0.40659140570E+02  0.00000000000E+00 0. -1.
         11    1    3    3    0    0  0.70838684990E+00  0.13477408123E+02  0.62054456016E+01  0.14854288843E+02  0.51100000000E-03 0. -1.
        -11    1    3    3    0    0  0.87136571435E+01 -0.18924579318E+01  0.15350348539E+02  0.17752251079E+02  0.51100000000E-03 0.  1.
        -12    1    3    3    0    0  0.15174331805E+02  0.88485153823E+01  0.35571008370E+01  0.17922319508E+02  0.00000000000E+00 0.  1.
</event>
<event>
 7    1  0.2991278E-011  0.5052887E+02  0.7816164E-02  0.1300439E+00
        -11   -1    0    0    0    0  0.00000000000E+00  0.00000000000E+00  0.45593999997E+02  0.45594000000E+02  0.51100000000E-03 0.  1.
         11   -1    0    0    0    0 -0.00000000000E+00 -0.00000000000E+00 -0.45593999997E+02  0.45594000000E+02  0.51100000000E-03 0. -1.
    9900012    2    1    2    0    0 -0.38372063027E+01 -0.21693975359E+02  0.34173263919E+02  0.50528872046E+02  0.30000037072E+02 0.  0.
         12    1    1    2    0    0  0.38372063027E+01  0.21693975359E+02 -0.34173263919E+02  0.40659127954E+02  0.00000000000E+00 0. -1.
         11    1    3    3    0    0  0.10662297104E+00  0.34454122401E+01  0.96344970884E+01  0.10232583661E+02  0.51100000000E-03 0.  1.
        -11    1    3    3    0    0  0.51390192154E+01 -0.13956074538E+02  0.43523234941E+01  0.15495943181E+02  0.51100000000E-03 0. -1.
        -12    1    3    3    0    0 -0.90828484891E+01 -0.11183313060E+02  0.20186443337E+02  0.24800345205E+02  0.00000000000E+00 0.  1.
</event>
<event>
 7    1  0.2991278E-011  0.5052887E+02  0.7816164E-02  0.1300439E+00
        -11   -1    0    0    0    0  0.00000000000E+00  0.00000000000E+00  0.45593999997E+02  0.45594000000E+02  0.51100000000E-03 0.  1.
         11   -1    0    0    0    0 -0.00000000000E+00 -0.00000000000E+00 -0.45593999997E+02  0.45594000000E+02  0.51100000000E-03 0. -1.
    9900012    2    1    2    0    0 -0.85283017937E+01 -0.34655764703E+02  0.19478463748E+02  0.50528874227E+02  0.30000043702E+02 0.  0.
         12    1    1    2    0    0  0.85283017937E+01  0.34655764703E+02 -0.19478463748E+02  0.40659125773E+02  0.00000000000E+00 0. -1.
         11    1    3    3    0    0 -0.69219962960E+01 -0.65441250906E+01 -0.33687070015E+01  0.10103850407E+02  0.51100000000E-03 0. -1.
        -11    1    3    3    0    0 -0.32513504395E+01 -0.17220615171E+02  0.23587950117E+02  0.29385579075E+02  0.51100000000E-03 0.  1.
        -12    1    3    3    0    0  0.16450449418E+01 -0.10891024440E+02 -0.74077936743E+00  0.11039444746E+02  0.00000000000E+00 0.  1.
</event>
<event>
 7    1  0.2991278E-011  0.5052887E+02  0.7816164E-02  0.1300439E+00
        -11   -1    0    0    0    0  0.00000000000E+00  0.00000000000E+00  0.45593999997E+02  0.45594000000E+02  0.51100000000E-03 0.  1.
         11   -1    0    0    0    0 -0.00000000000E+00 -0.00000000000E+00 -0.45593999997E+02  0.45594000000E+02  0.51100000000E-03 0. -1.
    9900012    2    1    2    0    0 -0.26012689482E+02 -0.42562457715E+01  0.30957867266E+02  0.50528865875E+02  0.30000018313E+02 0.  0.
         12    1    1    2    0    0  0.26012689482E+02  0.42562457715E+01 -0.30957867266E+02  0.40659134125E+02  0.00000000000E+00 0. -1.
         11    1    3    3    0    0  0.23049543233E+01 -0.32140592545E+01  0.85523019607E+01  0.94225718576E+01  0.51100000000E-03 0. -1.
        -11    1    3    3    0    0 -0.78982226288E+01  0.66178449655E+01  0.68619750467E+00  0.10327083807E+02  0.51100000000E-03 0.  1.
        -12    1    3    3    0    0 -0.20419421177E+02 -0.76600314825E+01  0.21719367800E+02  0.30779210210E+02  0.00000000000E+00 0.  1.
</event>
<event>
 7    1  0.2991278E-011  0.5052887E+02  0.7816164E-02  0.1300439E+00
        -11   -1    0    0    0    0  0.00000000000E+00  0.00000000000E+00  0.45593999997E+02  0.45594000000E+02  0.51100000000E-03 0.  1.
         11   -1    0    0    0    0 -0.00000000000E+00 -0.00000000000E+00 -0.45593999997E+02  0.45594000000E+02  0.51100000000E-03 0. -1.
    9900012    2    1    2    0    0  0.86682714104E+01  0.11002593237E+02  0.38170263218E+02  0.50528868414E+02  0.30000026030E+02 0.  0.
         12    1    1    2    0    0 -0.86682714104E+01 -0.11002593237E+02 -0.38170263218E+02  0.40659131586E+02  0.00000000000E+00 0. -1.
         11    1    3    3    0    0  0.13141508160E+02 -0.40626839719E+00  0.16881366208E+02  0.21397308617E+02  0.51100000000E-03 0. -1.
        -11    1    3    3    0    0 -0.46832082409E+01  0.14015651682E+02  0.21925021575E+02  0.26440073805E+02  0.51100000000E-03 0.  1.
        -12    1    3    3    0    0  0.20997149126E+00 -0.26067900476E+01 -0.63612456515E+00  0.26914859914E+01  0.00000000000E+00 0.  1.
</event>
<event>
 7    1  0.2991278E-011  0.5052885E+02  0.7816164E-02  0.1300439E+00
        -11   -1    0    0    0    0  0.00000000000E+00  0.00000000000E+00  0.45593999997E+02  0.45594000000E+02  0.51100000000E-03 0.  1.
         11   -1    0    0    0    0 -0.00000000000E+00 -0.00000000000E+00 -0.45593999997E+02  0.45594000000E+02  0.51100000000E-03 0. -1.
    9900012    2    1    2    0    0 -0.31064204970E+02 -0.24831502488E+02  0.84603818520E+01  0.50528850878E+02  0.29999972730E+02 0.  0.
         12    1    1    2    0    0  0.31064204970E+02  0.24831502488E+02 -0.84603818520E+01  0.40659149122E+02  0.00000000000E+00 0. -1.
         11    1    3    3    0    0  0.11398646358E+01 -0.10541151393E+02 -0.38151285438E+01  0.11268112981E+02  0.51100000000E-03 0. -1.
        -11    1    3    3    0    0 -0.25310920552E+02 -0.66260660974E+01  0.49836751652E+01  0.26634272461E+02  0.51100000000E-03 0.  1.
         12    1    3    3    0    0 -0.68931490541E+01 -0.76642849971E+01  0.72918352306E+01  0.12626465437E+02  0.00000000000E+00 0. -1.
</event>
<event>
 7    1  0.2991278E-011  0.5052886E+02  0.7816164E-02  0.1300439E+00
        -11   -1    0    0    0    0  0.00000000000E+00  0.00000000000E+00  0.45593999997E+02  0.45594000000E+02  0.51100000000E-03 0.  1.
         11   -1    0    0    0    0 -0.00000000000E+00 -0.00000000000E+00 -0.45593999997E+02  0.45594000000E+02  0.51100000000E-03 0. -1.
    9900012    2    1    2    0    0 -0.30629424214E+02  0.23537728528E+02 -0.12687770074E+02  0.50528858330E+02  0.29999995379E+02 0.  0.
         12    1    1    2    0    0  0.30629424214E+02 -0.23537728528E+02  0.12687770074E+02  0.40659141670E+02  0.00000000000E+00 0. -1.
         11    1    3    3    0    0  0.12405773248E+01  0.20827647265E+00  0.12177258504E+01  0.17507905916E+01  0.51100000000E-03 0. -1.
        -11    1    3    3    0    0 -0.16969316256E+02  0.19158720709E+02 -0.19656395394E+02  0.32270546223E+02  0.51100000000E-03 0.  1.
        -12    1    3    3    0    0 -0.14900685283E+02  0.41707313464E+01  0.57508994697E+01  0.16507521515E+02  0.00000000000E+00 0.  1.
</event>
<event>
 7    1  0.2991278E-011  0.5052887E+02  0.7816164E-02  0.1300439E+00
        -11   -1    0    0    0    0  0.00000000000E+00  0.00000000000E+00  0.45593999997E+02  0.45594000000E+02  0.51100000000E-03 0.  1.
         11   -1    0    0    0    0 -0.00000000000E+00 -0.00000000000E+00 -0.45593999997E+02  0.45594000000E+02  0.51100000000E-03 0. -1.
    9900012    2    1    2    0    0 -0.74490109003E+01  0.35090487680E+02  0.19139881922E+02  0.50528866106E+02  0.30000019015E+02 0.  0.
         12    1    1    2    0    0  0.74490109003E+01 -0.35090487680E+02 -0.19139881922E+02  0.40659133894E+02  0.00000000000E+00 0. -1.
         11    1    3    3    0    0 -0.81510701944E+01 -0.71417163141E+00  0.32531709254E+01  0.88052886247E+01  0.51100000000E-03 0. -1.
        -11    1    3    3    0    0 -0.38245535801E+01  0.21568056038E+02  0.15400877292E+02  0.26776767411E+02  0.51100000000E-03 0.  1.
         12    1    3    3    0    0  0.45266128742E+01  0.14236603273E+02  0.48583370449E+00  0.14946810070E+02  0.00000000000E+00 0. -1.
</event>
<event>
 7    1  0.2991278E-011  0.5052886E+02  0.7816164E-02  0.1300439E+00
        -11   -1    0    0    0    0  0.00000000000E+00  0.00000000000E+00  0.45593999997E+02  0.45594000000E+02  0.51100000000E-03 0.  1.
         11   -1    0    0    0    0 -0.00000000000E+00 -0.00000000000E+00 -0.45593999997E+02  0.45594000000E+02  0.51100000000E-03 0. -1.
    9900012    2    1    2    0    0  0.29211643083E+02 -0.69192934417E+01  0.27422052780E+02  0.50528859674E+02  0.29999999466E+02 0.  0.
         12    1    1    2    0    0 -0.29211643083E+02  0.69192934417E+01 -0.27422052780E+02  0.40659140326E+02  0.00000000000E+00 0. -1.
         11    1    3    3    0    0 -0.34136120126E+01 -0.25306767870E+00  0.59374656223E+01  0.68534873240E+01  0.51100000000E-03 0. -1.
        -11    1    3    3    0    0  0.21425856628E+02 -0.74005998521E+01  0.41805179692E+01  0.23050226489E+02  0.51100000000E-03 0.  1.
        -12    1    3    3    0    0  0.11199398467E+02  0.73437408908E+00  0.17304069189E+02  0.20625145862E+02  0.00000000000E+00 0.  1.
</event>
<event>
 7    1  0.2991278E-011  0.5052885E+02  0.7816164E-02  0.1300439E+00
        -11   -1    0    0    0    0  0.00000000000E+00  0.00000000000E+00  0.45593999997E+02  0.45594000000E+02  0.51100000000E-03 0. -1.
         11   -1    0    0    0    0 -0.00000000000E+00 -0.00000000000E+00 -0.45593999997E+02  0.45594000000E+02  0.51100000000E-03 0.  1.
    9900012    2    1    2    0    0  0.33239063265E+02  0.21983832025E+02  0.80649022917E+01  0.50528845481E+02  0.29999956323E+02 0.  0.
         12    1    1    2    0    0 -0.33239063265E+02 -0.21983832025E+02 -0.80649022917E+01  0.40659154519E+02  0.00000000000E+00 0. -1.
         11    1    3    3    0    0  0.10964390349E+02 -0.22568289419E+01 -0.44822146377E+01  0.12058249496E+02  0.51100000000E-03 0. -1.
        -11    1    3    3    0    0  0.14745933525E+02  0.11396665480E+02  0.14284917333E+02  0.23481597114E+02  0.51100000000E-03 0.  1.
        -12    1    3    3    0    0  0.75287393922E+01  0.12843995487E+02 -0.17378004033E+01  0.14988998870E+02  0.00000000000E+00 0.  1.
</event>
<event>
 7    1  0.2991278E-011  0.5052886E+02  0.7816164E-02  0.1300439E+00
        -11   -1    0    0    0    0  0.00000000000E+00  0.00000000000E+00  0.45593999997E+02  0.45594000000E+02  0.51100000000E-03 0.  1.
         11   -1    0    0    0    0 -0.00000000000E+00 -0.00000000000E+00 -0.45593999997E+02  0.45594000000E+02  0.51100000000E-03 0. -1.
    9900012    2    1    2    0    0 -0.22994827435E+02  0.33035809354E+02 -0.57479221772E+01  0.50528863292E+02  0.30000010464E+02 0.  0.
         12    1    1    2    0    0  0.22994827435E+02 -0.33035809354E+02  0.57479221772E+01  0.40659136708E+02  0.00000000000E+00 0. -1.
         11    1    3    3    0    0 -0.18894756030E+02  0.18899211023E+02  0.44044866841E+01  0.27084894054E+02  0.51100000000E-03 0. -1.
        -11    1    3    3    0    0 -0.24089627888E+01  0.13394177011E+02 -0.13783684175E+02  0.19370003336E+02  0.51100000000E-03 0.  1.
        -12    1    3    3    0    0 -0.16911086164E+01  0.74242131940E+00  0.36312753137E+01  0.40739659021E+01  0.00000000000E+00 0.  1.
</event>
<event>
 7    1  0.2991278E-011  0.5052886E+02  0.7816164E-02  0.1300439E+00
        -11   -1    0    0    0    0  0.00000000000E+00  0.00000000000E+00  0.45593999997E+02  0.45594000000E+02  0.51100000000E-03 0.  1.
         11   -1    0    0    0    0 -0.00000000000E+00 -0.00000000000E+00 -0.45593999997E+02  0.45594000000E+02  0.51100000000E-03 0. -1.
    9900012    2    1    2    0    0  0.82115994094E+01 -0.29240405771E+02  0.27032090483E+02  0.50528860678E+02  0.30000002518E+02 0.  0.
         12    1    1    2    0    0 -0.82115994094E+01  0.29240405771E+02 -0.27032090483E+02  0.40659139322E+02  0.00000000000E+00 0. -1.
         11    1    3    3    0    0  0.19218139551E+01  0.24818223160E+01 -0.19978700373E+01  0.37207923663E+01  0.51100000000E-03 0. -1.
        -11    1    3    3    0    0  0.88163366642E+01 -0.13800173289E+02  0.21921699506E+02  0.27362994801E+02  0.51100000000E-03 0.  1.
        -12    1    3    3    0    0 -0.25265512099E+01 -0.17922054798E+02  0.71082610138E+01  0.19445073511E+02  0.00000000000E+00 0.  1.
</event>
<event>
 7    1  0.3198837E-011  0.5052885E+02  0.7816164E-02  0.1300439E+00
        -11   -1    0    0    0    0  0.00000000000E+00  0.00000000000E+00  0.45593999997E+02  0.45594000000E+02  0.51100000000E-03 0. -1.
         11   -1    0    0    0    0 -0.00000000000E+00 -0.00000000000E+00 -0.45593999997E+02  0.45594000000E+02  0.51100000000E-03 0.  1.
    9900012    2    1    2    0    0  0.36077628897E+02  0.16741723945E+02 -0.84430842593E+01  0.50528852207E+02  0.29999976768E+02 0.  0.
         12    1    1    2    0    0 -0.36077628897E+02 -0.16741723945E+02  0.84430842593E+01  0.40659147793E+02  0.00000000000E+00 0. -1.
         11    1    3    3    0    0 -0.39065291647E+01  0.41569241682E+01 -0.27016111892E+01  0.63118691315E+01  0.51100000000E-03 0. -1.
        -11    1    3    3    0    0  0.21004370547E+02  0.74475274415E+00  0.39235409210E+00  0.21021231666E+02  0.51100000000E-03 0.  1.
        -12    1    3    3    0    0  0.18979787514E+02  0.11840047033E+02 -0.61338271622E+01  0.23195751410E+02  0.00000000000E+00 0.  1.
</event>
<event>
 7    1  0.2991278E-011  0.5052886E+02  0.7816164E-02  0.1300439E+00
        -11   -1    0    0    0    0  0.00000000000E+00  0.00000000000E+00  0.45593999997E+02  0.45594000000E+02  0.51100000000E-03 0.  1.
         11   -1    0    0    0    0 -0.00000000000E+00 -0.00000000000E+00 -0.45593999997E+02  0.45594000000E+02  0.51100000000E-03 0. -1.
    9900012    2    1    2    0    0 -0.11215340146E+02  0.18903363491E+02  0.34205919613E+02  0.50528856595E+02  0.29999990106E+02 0.  0.
         12    1    1    2    0    0  0.11215340146E+02 -0.18903363491E+02 -0.34205919613E+02  0.40659143405E+02  0.00000000000E+00 0. -1.
         11    1    3    3    0    0  0.99528491989E+00  0.84898204951E+01  0.21341377577E+02  0.22989607244E+02  0.51100000000E-03 0. -1.
        -11    1    3    3    0    0 -0.29052056323E+01 -0.37161471220E+01 -0.18989313900E+01  0.50848706851E+01  0.51100000000E-03 0.  1.
        -12    1    3    3    0    0 -0.93054194335E+01  0.14129690118E+02  0.14763473426E+02  0.22454378666E+02  0.00000000000E+00 0.  1.
</event>
<event>
 7    1  0.2991278E-011  0.5052887E+02  0.7816164E-02  0.1300439E+00
        -11   -1    0    0    0    0  0.00000000000E+00  0.00000000000E+00  0.45593999997E+02  0.45594000000E+02  0.51100000000E-03 0.  1.
         11   -1    0    0    0    0 -0.00000000000E+00 -0.00000000000E+00 -0.45593999997E+02  0.45594000000E+02  0.51100000000E-03 0. -1.
    9900012    2    1    2    0    0 -0.13875661832E+02  0.29398853532E+02  0.24420032899E+02  0.50528873263E+02  0.30000040769E+02 0.  0.
         12    1    1    2    0    0  0.13875661832E+02 -0.29398853532E+02 -0.24420032899E+02  0.40659126737E+02  0.00000000000E+00 0. -1.
         11    1    3    3    0    0 -0.63475692242E+01  0.12129047785E+01  0.40510037063E+00  0.64750968818E+01  0.51100000000E-03 0. -1.
        -11    1    3    3    0    0  0.49958208969E+01  0.80241921161E+01 -0.10784466864E+01  0.95136182952E+01  0.51100000000E-03 0.  1.
        -12    1    3    3    0    0 -0.12523913505E+02  0.20161756637E+02  0.25093379215E+02  0.34540158086E+02  0.00000000000E+00 0.  1.
</event>
<event>
 7    1  0.2991278E-011  0.5052885E+02  0.7816164E-02  0.1300439E+00
        -11   -1    0    0    0    0  0.00000000000E+00  0.00000000000E+00  0.45593999997E+02  0.45594000000E+02  0.51100000000E-03 0.  1.
         11   -1    0    0    0    0 -0.00000000000E+00 -0.00000000000E+00 -0.45593999997E+02  0.45594000000E+02  0.51100000000E-03 0. -1.
    9900012    2    1    2    0    0 -0.51190670477E+01 -0.20715492146E+01  0.40282380367E+02  0.50528851809E+02  0.29999975558E+02 0.  0.
         12    1    1    2    0    0  0.51190670477E+01  0.20715492146E+01 -0.40282380367E+02  0.40659148191E+02  0.00000000000E+00 0. -1.
         11    1    3    3    0    0  0.74826013667E+00 -0.12678090694E+02  0.13866671861E+02  0.18803682237E+02  0.51100000000E-03 0. -1.
        -11    1    3    3    0    0  0.12061859077E+01  0.10351472699E+02  0.14321010570E+02  0.17711555988E+02  0.51100000000E-03 0.  1.
         12    1    3    3    0    0 -0.70735130921E+01  0.25506878053E+00  0.12094697935E+02  0.14013613585E+02  0.00000000000E+00 0. -1.
</event>
<event>
 7    1  0.2991278E-011  0.5052886E+02  0.7816164E-02  0.1300439E+00
        -11   -1    0    0    0    0  0.00000000000E+00  0.00000000000E+00  0.45593999997E+02  0.45594000000E+02  0.51100000000E-03 0.  1.
         11   -1    0    0    0    0 -0.00000000000E+00 -0.00000000000E+00 -0.45593999997E+02  0.45594000000E+02  0.51100000000E-03 0. -1.
    9900012    2    1    2    0    0 -0.17497139646E+02  0.18168102970E+02  0.31889429599E+02  0.50528861034E+02  0.30000003599E+02 0.  0.
         12    1    1    2    0    0  0.17497139646E+02 -0.18168102970E+02 -0.31889429599E+02  0.40659138966E+02  0.00000000000E+00 0. -1.
         11    1    3    3    0    0 -0.98977133872E+01  0.20908040438E+02  0.91841700204E+01  0.24888950650E+02  0.51100000000E-03 0. -1.
        -11    1    3    3    0    0 -0.70474024093E+01  0.18209111232E+01  0.12903747913E+02  0.14815137816E+02  0.51100000000E-03 0.  1.
         12    1    3    3    0    0 -0.55202384912E+00 -0.45608485916E+01  0.98015116660E+01  0.10824772568E+02  0.00000000000E+00 0. -1.
</event>
<event>
 7    1  0.2991278E-011  0.5052886E+02  0.7816164E-02  0.1300439E+00
        -11   -1    0    0    0    0  0.00000000000E+00  0.00000000000E+00  0.45593999997E+02  0.45594000000E+02  0.51100000000E-03 0.  1.
         11   -1    0    0    0    0 -0.00000000000E+00 -0.00000000000E+00 -0.45593999997E+02  0.45594000000E+02  0.51100000000E-03 0. -1.
    9900012    2    1    2    0    0 -0.19831825269E+02  0.91906471500E+01  0.34284056033E+02  0.50528858511E+02  0.29999995930E+02 0.  0.
         12    1    1    2    0    0  0.19831825269E+02 -0.91906471500E+01 -0.34284056033E+02  0.40659141489E+02  0.00000000000E+00 0. -1.
         11    1    3    3    0    0 -0.11774462295E+02 -0.19999785636E+01 -0.52983453046E+00  0.11954856815E+02  0.51100000000E-03 0. -1.
        -11    1    3    3    0    0 -0.72966123055E+01  0.73051880440E+01  0.32236829372E+02  0.33849955564E+02  0.51100000000E-03 0.  1.
        -12    1    3    3    0    0 -0.76075066887E+00  0.38854376696E+01  0.25770611915E+01  0.47240461312E+01  0.00000000000E+00 0.  1.
</event>
<event>
 7    1  0.2991278E-011  0.5052885E+02  0.7816164E-02  0.1300439E+00
        -11   -1    0    0    0    0  0.00000000000E+00  0.00000000000E+00  0.45593999997E+02  0.45594000000E+02  0.51100000000E-03 0. -1.
         11   -1    0    0    0    0 -0.00000000000E+00 -0.00000000000E+00 -0.45593999997E+02  0.45594000000E+02  0.51100000000E-03 0.  1.
    9900012    2    1    2    0    0 -0.30971953243E+02 -0.11001182467E+02  0.23934882452E+02  0.50528849721E+02  0.29999969213E+02 0.  0.
         12    1    1    2    0    0  0.30971953243E+02  0.11001182467E+02 -0.23934882452E+02  0.40659150279E+02  0.00000000000E+00 0. -1.
         11    1    3    3    0    0 -0.35134525328E+01  0.33255604931E+01  0.42066142087E+01  0.64108739385E+01  0.51100000000E-03 0. -1.
        -11    1    3    3    0    0 -0.11104232752E+02 -0.19370261059E+02  0.11855768864E+02  0.25279838886E+02  0.51100000000E-03 0.  1.
        -12    1    3    3    0    0 -0.16354267959E+02  0.50435180980E+01  0.78724993788E+01  0.18838136897E+02  0.00000000000E+00 0.  1.
</event>
<event>
 7    1  0.2991278E-011  0.5052891E+02  0.7816164E-02  0.1300439E+00
        -11   -1    0    0    0    0  0.00000000000E+00  0.00000000000E+00  0.45593999997E+02  0.45594000000E+02  0.51100000000E-03 0. -1.
         11   -1    0    0    0    0 -0.00000000000E+00 -0.00000000000E+00 -0.45593999997E+02  0.45594000000E+02  0.51100000000E-03 0.  1.
    9900012    2    1    2    0    0  0.12473232244E+02  0.35233324388E+02 -0.16006017008E+02  0.50528914293E+02  0.30000165485E+02 0.  0.
         12    1    1    2    0    0 -0.12473232244E+02 -0.35233324388E+02  0.16006017008E+02  0.40659085707E+02  0.00000000000E+00 0. -1.
         11    1    3    3    0    0  0.70663945412E+01  0.12029654689E+02 -0.19717328161E+02  0.24154079444E+02  0.51100000000E-03 0. -1.
        -11    1    3    3    0    0  0.79510882019E+01  0.10683988056E+02  0.23955729506E+01  0.13531673008E+02  0.51100000000E-03 0.  1.
         12    1    3    3    0    0 -0.25442504994E+01  0.12519681643E+02  0.13157382019E+01  0.12843161840E+02  0.00000000000E+00 0. -1.
</event>
<event>
 7    1  0.2991278E-011  0.5052886E+02  0.7816164E-02  0.1300439E+00
        -11   -1    0    0    0    0  0.00000000000E+00  0.00000000000E+00  0.45593999997E+02  0.45594000000E+02  0.51100000000E-03 0.  1.
         11   -1    0    0    0    0 -0.00000000000E+00 -0.00000000000E+00 -0.45593999997E+02  0.45594000000E+02  0.51100000000E-03 0. -1.
    9900012    2    1    2    0    0 -0.31696479483E+02  0.18508623734E+02  0.17490852205E+02  0.50528857424E+02  0.29999992626E+02 0.  0.
         12    1    1    2    0    0  0.31696479483E+02 -0.18508623734E+02 -0.17490852205E+02  0.40659142576E+02  0.00000000000E+00 0. -1.
         11    1    3    3    0    0  0.13806281237E+01 -0.99195770205E-01 -0.43010497159E+01  0.45182964418E+01  0.51100000000E-03 0. -1.
        -11    1    3    3    0    0 -0.21435773062E+02  0.17904954417E+02  0.19658268525E+02  0.34154462096E+02  0.51100000000E-03 0.  1.
        -12    1    3    3    0    0 -0.11641334545E+02  0.70286508742E+00  0.21336333959E+01  0.11856098886E+02  0.00000000000E+00 0.  1.
</event>
<event>
 7    1  0.2991278E-011  0.5052886E+02  0.7816164E-02  0.1300439E+00
        -11   -1    0    0    0    0  0.00000000000E+00  0.00000000000E+00  0.45593999997E+02  0.45594000000E+02  0.51100000000E-03 0. -1.
         11   -1    0    0    0    0 -0.00000000000E+00 -0.00000000000E+00 -0.45593999997E+02  0.45594000000E+02  0.51100000000E-03 0.  1.
    9900012    2    1    2    0    0 -0.39675129200E+02 -0.81914263101E+01 -0.34569434816E+01  0.50528858343E+02  0.29999995419E+02 0.  0.
         12    1    1    2    0    0  0.39675129200E+02  0.81914263101E+01  0.34569434816E+01  0.40659141657E+02  0.00000000000E+00 0. -1.
         11    1    3    3    0    0 -0.16765817837E+02 -0.59482163434E+01  0.57631409854E+01  0.18699939029E+02  0.51100000000E-03 0. -1.
        -11    1    3    3    0    0 -0.94396699003E+01  0.48726021748E+01 -0.12336177507E+02  0.16279769517E+02  0.51100000000E-03 0.  1.
        -12    1    3    3    0    0 -0.13469641463E+02 -0.71158121415E+01  0.31160930396E+01  0.15549149797E+02  0.00000000000E+00 0.  1.
</event>
<event>
 7    1  0.2991278E-011  0.5052886E+02  0.7816164E-02  0.1300439E+00
        -11   -1    0    0    0    0  0.00000000000E+00  0.00000000000E+00  0.45593999997E+02  0.45594000000E+02  0.51100000000E-03 0.  1.
         11   -1    0    0    0    0 -0.00000000000E+00 -0.00000000000E+00 -0.45593999997E+02  0.45594000000E+02  0.51100000000E-03 0. -1.
    9900012    2    1    2    0    0 -0.20960328222E+02 -0.67477926123E+01  0.34180370667E+02  0.50528858307E+02  0.29999995309E+02 0.  0.
         12    1    1    2    0    0  0.20960328222E+02  0.67477926123E+01 -0.34180370667E+02  0.40659141693E+02  0.00000000000E+00 0. -1.
         11    1    3    3    0    0  0.41713138262E+01 -0.48659800384E+01  0.16484803714E+02  0.17686898386E+02  0.51100000000E-03 0. -1.
        -11    1    3    3    0    0 -0.19201777810E+02  0.13889915251E+01  0.76267448942E+01  0.20707602625E+02  0.51100000000E-03 0.  1.
         12    1    3    3    0    0 -0.59298642383E+01 -0.32708040990E+01  0.10068822059E+02  0.12134357296E+02  0.00000000000E+00 0. -1.
</event>
<event>
 7    1  0.2991278E-011  0.5052886E+02  0.7816164E-02  0.1300439E+00
        -11   -1    0    0    0    0  0.00000000000E+00  0.00000000000E+00  0.45593999997E+02  0.45594000000E+02  0.51100000000E-03 0.  1.
         11   -1    0    0    0    0 -0.00000000000E+00 -0.00000000000E+00 -0.45593999997E+02  0.45594000000E+02  0.51100000000E-03 0. -1.
    9900012    2    1    2    0    0 -0.70333125519E+01  0.33899624135E+02  0.21319331602E+02  0.50528857093E+02  0.29999991621E+02 0.  0.
         12    1    1    2    0    0  0.70333125519E+01 -0.33899624135E+02 -0.21319331602E+02  0.40659142907E+02  0.00000000000E+00 0. -1.
         11    1    3    3    0    0 -0.43927061350E+01 -0.40158525918E+01  0.26317199662E+01  0.65076024363E+01  0.51100000000E-03 0. -1.
        -11    1    3    3    0    0 -0.46549735883E+01  0.25886073078E+02  0.17868536694E+02  0.31796889193E+02  0.51100000000E-03 0.  1.
         12    1    3    3    0    0  0.20143671714E+01  0.12029403649E+02  0.81907494246E+00  0.12224365465E+02  0.00000000000E+00 0. -1.
</event>
<event>
 7    1  0.2991278E-011  0.5052886E+02  0.7816164E-02  0.1300439E+00
        -11   -1    0    0    0    0  0.00000000000E+00  0.00000000000E+00  0.45593999997E+02  0.45594000000E+02  0.51100000000E-03 0.  1.
         11   -1    0    0    0    0 -0.00000000000E+00 -0.00000000000E+00 -0.45593999997E+02  0.45594000000E+02  0.51100000000E-03 0. -1.
    9900012    2    1    2    0    0 -0.12434503915E+02 -0.24326789292E+02  0.30112386938E+02  0.50528863118E+02  0.30000009934E+02 0.  0.
         12    1    1    2    0    0  0.12434503915E+02  0.24326789292E+02 -0.30112386938E+02  0.40659136882E+02  0.00000000000E+00 0. -1.
         11    1    3    3    0    0  0.15481140971E+01 -0.21209178285E+02  0.95283990490E+01  0.23302709917E+02  0.51100000000E-03 0. -1.
        -11    1    3    3    0    0 -0.12404591810E+02 -0.64178021801E+01  0.17821569412E+02  0.22642226467E+02  0.51100000000E-03 0.  1.
         12    1    3    3    0    0 -0.15780262023E+01  0.33001911724E+01  0.27624184769E+01  0.45839267349E+01  0.00000000000E+00 0. -1.
</event>
<event>
 7    1  0.2991278E-011  0.5052886E+02  0.7816164E-02  0.1300439E+00
        -11   -1    0    0    0    0  0.00000000000E+00  0.00000000000E+00  0.45593999997E+02  0.45594000000E+02  0.51100000000E-03 0. -1.
         11   -1    0    0    0    0 -0.00000000000E+00 -0.00000000000E+00 -0.45593999997E+02  0.45594000000E+02  0.51100000000E-03 0.  1.
    9900012    2    1    2    0    0 -0.66673859972E+01  0.39574465914E+02 -0.65248385780E+01  0.50528857032E+02  0.29999991433E+02 0.  0.
         12    1    1    2    0    0  0.66673859972E+01 -0.39574465914E+02  0.65248385780E+01  0.40659142968E+02  0.00000000000E+00 0. -1.
         11    1    3    3    0    0 -0.13220217785E+02  0.38908412182E+02 -0.37132569611E+01  0.41260477146E+02  0.51100000000E-03 0. -1.
        -11    1    3    3    0    0  0.44357320876E+00 -0.76508256871E+00 -0.28599325351E+01  0.29935468754E+01  0.51100000000E-03 0.  1.
         12    1    3    3    0    0  0.61092585786E+01  0.14311363008E+01  0.48350918146E-01  0.62748330100E+01  0.00000000000E+00 0. -1.
</event>
<event>
 7    1  0.2991278E-011  0.5052886E+02  0.7816164E-02  0.1300439E+00
        -11   -1    0    0    0    0  0.00000000000E+00  0.00000000000E+00  0.45593999997E+02  0.45594000000E+02  0.51100000000E-03 0.  1.
         11   -1    0    0    0    0 -0.00000000000E+00 -0.00000000000E+00 -0.45593999997E+02  0.45594000000E+02  0.51100000000E-03 0. -1.
    9900012    2    1    2    0    0  0.13477158079E+02 -0.30786995581E+02  0.22884332500E+02  0.50528861288E+02  0.30000004373E+02 0.  0.
         12    1    1    2    0    0 -0.13477158079E+02  0.30786995581E+02 -0.22884332500E+02  0.40659138712E+02  0.00000000000E+00 0. -1.
         11    1    3    3    0    0  0.10685832385E+02 -0.19895836500E+02  0.11896549170E+02  0.25525657802E+02  0.51100000000E-03 0. -1.
        -11    1    3    3    0    0  0.53038725999E+01  0.38447879527E+01  0.17372644445E+00  0.65531397128E+01  0.51100000000E-03 0.  1.
        -12    1    3    3    0    0 -0.25125469062E+01 -0.14735947034E+02  0.10814056886E+02  0.18450063774E+02  0.00000000000E+00 0.  1.
</event>
<event>
 7    1  0.2991278E-011  0.5052886E+02  0.7816164E-02  0.1300439E+00
        -11   -1    0    0    0    0  0.00000000000E+00  0.00000000000E+00  0.45593999997E+02  0.45594000000E+02  0.51100000000E-03 0. -1.
         11   -1    0    0    0    0 -0.00000000000E+00 -0.00000000000E+00 -0.45593999997E+02  0.45594000000E+02  0.51100000000E-03 0.  1.
    9900012    2    1    2    0    0 -0.19836278489E+02 -0.19000788010E+02 -0.29977620802E+02  0.50528860336E+02  0.30000001476E+02 0.  0.
         12    1    1    2    0    0  0.19836278489E+02  0.19000788010E+02  0.29977620802E+02  0.40659139664E+02  0.00000000000E+00 0. -1.
         11    1    3    3    0    0  0.61477223513E+01 -0.10438667913E+02 -0.58888800806E+01  0.13469936406E+02  0.51100000000E-03 0. -1.
        -11    1    3    3    0    0 -0.18647460833E+02 -0.29938708929E+01 -0.17357945057E+02  0.25651302409E+02  0.51100000000E-03 0.  1.
         12    1    3    3    0    0 -0.73365400072E+01 -0.55682492038E+01 -0.67307956649E+01  0.11407621521E+02  0.00000000000E+00 0. -1.
</event>
<event>
 7    1  0.2991278E-011  0.5052891E+02  0.7816164E-02  0.1300439E+00
        -11   -1    0    0    0    0  0.00000000000E+00  0.00000000000E+00  0.45593999997E+02  0.45594000000E+02  0.51100000000E-03 0. -1.
         11   -1    0    0    0    0 -0.00000000000E+00 -0.00000000000E+00 -0.45593999997E+02  0.45594000000E+02  0.51100000000E-03 0.  1.
    9900012    2    1    2    0    0  0.12711355390E+02 -0.29374656536E+02 -0.25074148659E+02  0.50528905896E+02  0.30000139960E+02 0.  0.
         12    1    1    2    0    0 -0.12711355390E+02  0.29374656536E+02  0.25074148659E+02  0.40659094104E+02  0.00000000000E+00 0. -1.
         11    1    3    3    0    0  0.13072218685E+02 -0.56336522880E+01 -0.88253037775E+01  0.16748341007E+02  0.51100000000E-03 0. -1.
        -11    1    3    3    0    0 -0.18192546459E+01 -0.17880648031E+02 -0.19827231851E+02  0.26760911506E+02  0.51100000000E-03 0.  1.
        -12    1    3    3    0    0  0.14583913505E+01 -0.58603562163E+01  0.35783869699E+01  0.70196533832E+01  0.00000000000E+00 0.  1.
</event>
<event>
 7    1  0.2991278E-011  0.5052886E+02  0.7816164E-02  0.1300439E+00
        -11   -1    0    0    0    0  0.00000000000E+00  0.00000000000E+00  0.45593999997E+02  0.45594000000E+02  0.51100000000E-03 0.  1.
         11   -1    0    0    0    0 -0.00000000000E+00 -0.00000000000E+00 -0.45593999997E+02  0.45594000000E+02  0.51100000000E-03 0. -1.
    9900012    2    1    2    0    0 -0.20660347805E+02 -0.69959246428E+01  0.34312867581E+02  0.50528858166E+02  0.29999994883E+02 0.  0.
         12    1    1    2    0    0  0.20660347805E+02  0.69959246428E+01 -0.34312867581E+02  0.40659141834E+02  0.00000000000E+00 0. -1.
         11    1    3    3    0    0  0.28337267809E-01 -0.80743920829E+01  0.26136826053E+01  0.84869280385E+01  0.51100000000E-03 0. -1.
        -11    1    3    3    0    0 -0.20660780045E+02 -0.43049646164E+01  0.19612823583E+02  0.28810820911E+02  0.51100000000E-03 0.  1.
        -12    1    3    3    0    0 -0.27905027852E-01  0.53834320564E+01  0.12086361393E+02  0.13231109217E+02  0.00000000000E+00 0.  1.
</event>
<event>
 7    1  0.2991278E-011  0.5052886E+02  0.7816164E-02  0.1300439E+00
        -11   -1    0    0    0    0  0.00000000000E+00  0.00000000000E+00  0.45593999997E+02  0.45594000000E+02  0.51100000000E-03 0.  1.
         11   -1    0    0    0    0 -0.00000000000E+00 -0.00000000000E+00 -0.45593999997E+02  0.45594000000E+02  0.51100000000E-03 0. -1.
    9900012    2    1    2    0    0 -0.31819245548E+02  0.11232724354E+02  0.22683191729E+02  0.50528859937E+02  0.30000000265E+02 0.  0.
         12    1    1    2    0    0  0.31819245548E+02 -0.11232724354E+02 -0.22683191729E+02  0.40659140063E+02  0.00000000000E+00 0. -1.
         11    1    3    3    0    0  0.12190278184E+01 -0.10069915625E+01 -0.47190913723E+01  0.49769352487E+01  0.51100000000E-03 0. -1.
        -11    1    3    3    0    0 -0.24672956780E+02  0.13166502860E+02  0.21389809397E+02  0.35208458360E+02  0.51100000000E-03 0.  1.
         12    1    3    3    0    0 -0.83653165865E+01 -0.92678694370E+00  0.60124737044E+01  0.10343466328E+02  0.00000000000E+00 0. -1.
</event>
<event>
 7    1  0.2991278E-011  0.5052886E+02  0.7816164E-02  0.1300439E+00
        -11   -1    0    0    0    0  0.00000000000E+00  0.00000000000E+00  0.45593999997E+02  0.45594000000E+02  0.51100000000E-03 0.  1.
         11   -1    0    0    0    0 -0.00000000000E+00 -0.00000000000E+00 -0.45593999997E+02  0.45594000000E+02  0.51100000000E-03 0. -1.
    9900012    2    1    2    0    0  0.28244675782E+02 -0.21980672243E+01  0.29164577976E+02  0.50528858125E+02  0.29999994755E+02 0.  0.
         12    1    1    2    0    0 -0.28244675782E+02  0.21980672243E+01 -0.29164577976E+02  0.40659141875E+02  0.00000000000E+00 0. -1.
         11    1    3    3    0    0  0.29079769765E+00  0.38862964416E+01 -0.29977069326E+00  0.39086731844E+01  0.51100000000E-03 0. -1.
        -11    1    3    3    0    0  0.46216821476E+01 -0.11219794369E+02  0.11621564725E+02  0.16801919487E+02  0.51100000000E-03 0.  1.
        -12    1    3    3    0    0  0.23332195936E+02  0.51354307027E+01  0.17842783945E+02  0.29818265453E+02  0.00000000000E+00 0.  1.
</event>
<event>
 7    1  0.2991278E-011  0.5052886E+02  0.7816164E-02  0.1300439E+00
        -11   -1    0    0    0    0  0.00000000000E+00  0.00000000000E+00  0.45593999997E+02  0.45594000000E+02  0.51100000000E-03 0.  1.
         11   -1    0    0    0    0 -0.00000000000E+00 -0.00000000000E+00 -0.45593999997E+02  0.45594000000E+02  0.51100000000E-03 0. -1.
    9900012    2    1    2    0    0 -0.16127198580E-01 -0.38509695363E+02  0.13044875137E+02  0.50528860014E+02  0.30000000499E+02 0.  0.
         12    1    1    2    0    0  0.16127198580E-01  0.38509695363E+02 -0.13044875137E+02  0.40659139986E+02  0.00000000000E+00 0. -1.
         11    1    3    3    0    0 -0.38927414311E+00  0.21694952821E+01 -0.12056124719E+01  0.25123188156E+01  0.51100000000E-03 0. -1.
        -11    1    3    3    0    0 -0.48973548488E+01 -0.30694793173E+02  0.18243222018E+02  0.36041220322E+02  0.51100000000E-03 0.  1.
        -12    1    3    3    0    0  0.52705017933E+01 -0.99843974727E+01 -0.39927344083E+01  0.11975320877E+02  0.00000000000E+00 0.  1.
</event>
<event>
 7    1  0.2991278E-011  0.5052886E+02  0.7816164E-02  0.1300439E+00
        -11   -1    0    0    0    0  0.00000000000E+00  0.00000000000E+00  0.45593999997E+02  0.45594000000E+02  0.51100000000E-03 0.  1.
         11   -1    0    0    0    0 -0.00000000000E+00 -0.00000000000E+00 -0.45593999997E+02  0.45594000000E+02  0.51100000000E-03 0. -1.
    9900012    2    1    2    0    0  0.11830009827E+02 -0.17104834665E+02  0.34937674952E+02  0.50528860406E+02  0.30000001691E+02 0.  0.
         12    1    1    2    0    0 -0.11830009827E+02  0.17104834665E+02 -0.34937674952E+02  0.40659139594E+02  0.00000000000E+00 0. -1.
         11    1    3    3    0    0 -0.17772000910E+01 -0.84835412128E+01  0.17189532550E+01  0.88364988670E+01  0.51100000000E-03 0. -1.
        -11    1    3    3    0    0  0.82326964979E+01 -0.70668786190E+01  0.34316552217E+02  0.35990885254E+02  0.51100000000E-03 0.  1.
        -12    1    3    3    0    0  0.53745134199E+01 -0.15544148335E+01 -0.10978305201E+01  0.57014762848E+01  0.00000000000E+00 0.  1.
</event>
<event>
 7    1  0.2991278E-011  0.5052888E+02  0.7816164E-02  0.1300439E+00
        -11   -1    0    0    0    0  0.00000000000E+00  0.00000000000E+00  0.45593999997E+02  0.45594000000E+02  0.51100000000E-03 0. -1.
         11   -1    0    0    0    0 -0.00000000000E+00 -0.00000000000E+00 -0.45593999997E+02  0.45594000000E+02  0.51100000000E-03 0.  1.
    9900012    2    1    2    0    0  0.18214688412E+02 -0.26602601765E+02 -0.24772786479E+02  0.50528877475E+02  0.30000053572E+02 0.  0.
         12    1    1    2    0    0 -0.18214688412E+02  0.26602601765E+02  0.24772786479E+02  0.40659122525E+02  0.00000000000E+00 0. -1.
         11    1    3    3    0    0  0.46353639172E+01  0.50838186945E+01 -0.65998493212E+01  0.95336153943E+01  0.51100000000E-03 0. -1.
        -11    1    3    3    0    0  0.45199354476E+01 -0.24450642533E+02 -0.14730255094E+02  0.28900590862E+02  0.51100000000E-03 0.  1.
         12    1    3    3    0    0  0.90593890473E+01 -0.72357779256E+01 -0.34426820636E+01  0.12094671219E+02  0.00000000000E+00 0. -1.
</event>
<event>
 7    1  0.4318218E-011  0.5052894E+02  0.7816164E-02  0.1300439E+00
        -11   -1    0    0    0    0  0.00000000000E+00  0.00000000000E+00  0.45593999997E+02  0.45594000000E+02  0.51100000000E-03 0. -1.
         11   -1    0    0    0    0 -0.00000000000E+00 -0.00000000000E+00 -0.45593999997E+02  0.45594000000E+02  0.51100000000E-03 0.  1.
    9900012    2    1    2    0    0  0.38301114039E+02  0.55678418148E+00 -0.13633548284E+02  0.50528942165E+02  0.30000250203E+02 0.  0.
         12    1    1    2    0    0 -0.38301114039E+02 -0.55678418148E+00  0.13633548284E+02  0.40659057835E+02  0.00000000000E+00 0. -1.
         11    1    3    3    0    0  0.61449460477E+01  0.88236621715E+01  0.14658363749E+01  0.10852006846E+02  0.51100000000E-03 0. -1.
        -11    1    3    3    0    0  0.29232799494E+02 -0.58927168187E+01 -0.68337627191E+01  0.30593806414E+02  0.51100000000E-03 0.  1.
        -12    1    3    3    0    0  0.29233684970E+01 -0.23741611714E+01 -0.82656219403E+01  0.90831289045E+01  0.00000000000E+00 0.  1.
</event>
<event>
 7    1  0.2991278E-011  0.5052886E+02  0.7816164E-02  0.1300439E+00
        -11   -1    0    0    0    0  0.00000000000E+00  0.00000000000E+00  0.45593999997E+02  0.45594000000E+02  0.51100000000E-03 0.  1.
         11   -1    0    0    0    0 -0.00000000000E+00 -0.00000000000E+00 -0.45593999997E+02  0.45594000000E+02  0.51100000000E-03 0. -1.
    9900012    2    1    2    0    0 -0.24971081077E+02  0.27476877426E+02  0.16572027581E+02  0.50528858576E+02  0.29999996126E+02 0.  0.
         12    1    1    2    0    0  0.24971081077E+02 -0.27476877426E+02 -0.16572027581E+02  0.40659141424E+02  0.00000000000E+00 0. -1.
         11    1    3    3    0    0 -0.27987824359E+02  0.17318278665E+02  0.10942683169E+02  0.34684051140E+02  0.51100000000E-03 0. -1.
        -11    1    3    3    0    0 -0.14864054045E+01  0.10161263337E+02  0.44336941308E+01  0.11185629957E+02  0.51100000000E-03 0.  1.
         12    1    3    3    0    0  0.45031486861E+01 -0.26645757361E-02  0.11956502804E+01  0.46591774791E+01  0.00000000000E+00 0. -1.
</event>
<event>
 7    1  0.2991278E-011  0.5052885E+02  0.7816164E-02  0.1300439E+00
        -11   -1    0    0    0    0  0.00000000000E+00  0.00000000000E+00  0.45593999997E+02  0.45594000000E+02  0.51100000000E-03 0.  1.
         11   -1    0    0    0    0 -0.00000000000E+00 -0.00000000000E+00 -0.45593999997E+02  0.45594000000E+02  0.51100000000E-03 0. -1.
    9900012    2    1    2    0    0 -0.20851065142E+02  0.17115518890E+01  0.34863593967E+02  0.50528849595E+02  0.29999968828E+02 0.  0.
         12    1    1    2    0    0  0.20851065142E+02 -0.17115518890E+01 -0.34863593967E+02  0.40659150405E+02  0.00000000000E+00 0. -1.
         11    1    3    3    0    0 -0.96838902375E+01 -0.49120912102E+01 -0.14512674746E+00  0.10859439775E+02  0.51100000000E-03 0. -1.
        -11    1    3    3    0    0 -0.13896879885E+02  0.34198176388E+01  0.28921380771E+02  0.32268633209E+02  0.51100000000E-03 0.  1.
        -12    1    3    3    0    0  0.27297049808E+01  0.32038254604E+01  0.60873399427E+01  0.74007766106E+01  0.00000000000E+00 0.  1.
</event>
<event>
 7    1  0.2991278E-011  0.5052879E+02  0.7816164E-02  0.1300439E+00
        -11   -1    0    0    0    0  0.00000000000E+00  0.00000000000E+00  0.45593999997E+02  0.45594000000E+02  0.51100000000E-03 0.  1.
         11   -1    0    0    0    0 -0.00000000000E+00 -0.00000000000E+00 -0.45593999997E+02  0.45594000000E+02  0.51100000000E-03 0. -1.
    9900012    2    1    2    0    0  0.33726549468E+02  0.22705309381E+02 -0.39978515800E+00  0.50528793893E+02  0.29999799516E+02 0.  0.
         12    1    1    2    0    0 -0.33726549468E+02 -0.22705309381E+02  0.39978515800E+00  0.40659206107E+02  0.00000000000E+00 0. -1.
         11    1    3    3    0    0  0.24472811698E+02  0.83107351658E+01 -0.98929295232E+01  0.27674119429E+02  0.51100000000E-03 0. -1.
        -11    1    3    3    0    0 -0.52302312410E+00  0.53766755261E+01  0.77403384325E+01  0.94390164854E+01  0.51100000000E-03 0.  1.
        -12    1    3    3    0    0  0.97767608946E+01  0.90178986886E+01  0.17528059327E+01  0.13415657978E+02  0.00000000000E+00 0.  1.
</event>
<event>
 7    1  0.2991278E-011  0.5052886E+02  0.7816164E-02  0.1300439E+00
        -11   -1    0    0    0    0  0.00000000000E+00  0.00000000000E+00  0.45593999997E+02  0.45594000000E+02  0.51100000000E-03 0.  1.
         11   -1    0    0    0    0 -0.00000000000E+00 -0.00000000000E+00 -0.45593999997E+02  0.45594000000E+02  0.51100000000E-03 0. -1.
    9900012    2    1    2    0    0 -0.11698630296E+02  0.76672557563E+01  0.38177493978E+02  0.50528858247E+02  0.29999995128E+02 0.  0.
         12    1    1    2    0    0  0.11698630296E+02 -0.76672557563E+01 -0.38177493978E+02  0.40659141753E+02  0.00000000000E+00 0. -1.
         11    1    3    3    0    0 -0.21190172350E+01  0.13628194338E+02  0.12694771644E+02  0.18745003129E+02  0.51100000000E-03 0. -1.
        -11    1    3    3    0    0 -0.12310347615E+02 -0.48510235202E+01  0.25617758945E+02  0.28833082756E+02  0.51100000000E-03 0.  1.
         12    1    3    3    0    0  0.27307345539E+01 -0.11099150611E+01 -0.13503661086E+00  0.29507723621E+01  0.00000000000E+00 0. -1.
</event>
<event>
 7    1  0.2991278E-011  0.5052886E+02  0.7816164E-02  0.1300439E+00
        -11   -1    0    0    0    0  0.00000000000E+00  0.00000000000E+00  0.45593999997E+02  0.45594000000E+02  0.51100000000E-03 0.  1.
         11   -1    0    0    0    0 -0.00000000000E+00 -0.00000000000E+00 -0.45593999997E+02  0.45594000000E+02  0.51100000000E-03 0. -1.
    9900012    2    1    2    0    0 -0.18565228541E+02 -0.89841614283E+01  0.35039734284E+02  0.50528857780E+02  0.29999993708E+02 0.  0.
         12    1    1    2    0    0  0.18565228541E+02  0.89841614283E+01 -0.35039734284E+02  0.40659142220E+02  0.00000000000E+00 0. -1.
         11    1    3    3    0    0 -0.34134239189E+01 -0.41682114494E+01  0.16350575738E+02  0.17215306467E+02  0.51100000000E-03 0.  1.
        -11    1    3    3    0    0  0.33651465429E+01  0.37674902728E+01 -0.77493319221E+00  0.51106473097E+01  0.51100000000E-03 0. -1.
        -12    1    3    3    0    0 -0.18516951165E+02 -0.85834402517E+01  0.19464091738E+02  0.28202904003E+02  0.00000000000E+00 0.  1.
</event>
<event>
 7    1  0.2991278E-011  0.5052886E+02  0.7816164E-02  0.1300439E+00
        -11   -1    0    0    0    0  0.00000000000E+00  0.00000000000E+00  0.45593999997E+02  0.45594000000E+02  0.51100000000E-03 0. -1.
         11   -1    0    0    0    0 -0.00000000000E+00 -0.00000000000E+00 -0.45593999997E+02  0.45594000000E+02  0.51100000000E-03 0.  1.
    9900012    2    1    2    0    0  0.10517284041E+02 -0.10409450061E+02 -0.37870780185E+02  0.50528857043E+02  0.29999991469E+02 0.  0.
         12    1    1    2    0    0 -0.10517284041E+02  0.10409450061E+02  0.37870780185E+02  0.40659142957E+02  0.00000000000E+00 0. -1.
         11    1    3    3    0    0 -0.29900757904E+01 -0.28236155415E+01 -0.41983925810E+01  0.58770620623E+01  0.51100000000E-03 0. -1.
        -11    1    3    3    0    0  0.17736819983E+02 -0.94151505171E+01 -0.34549136825E+02  0.39961014727E+02  0.51100000000E-03 0.  1.
        -12    1    3    3    0    0 -0.42294601516E+01  0.18293159978E+01  0.87674922183E+00  0.46907802541E+01  0.00000000000E+00 0.  1.
</event>
<event>
 7    1  0.2991278E-011  0.5052886E+02  0.7816164E-02  0.1300439E+00
        -11   -1    0    0    0    0  0.00000000000E+00  0.00000000000E+00  0.45593999997E+02  0.45594000000E+02  0.51100000000E-03 0.  1.
         11   -1    0    0    0    0 -0.00000000000E+00 -0.00000000000E+00 -0.45593999997E+02  0.45594000000E+02  0.51100000000E-03 0. -1.
    9900012    2    1    2    0    0  0.22631832271E+02  0.31679872415E+02  0.11719700421E+02  0.50528861714E+02  0.30000005666E+02 0.  0.
         12    1    1    2    0    0 -0.22631832271E+02 -0.31679872415E+02 -0.11719700421E+02  0.40659138286E+02  0.00000000000E+00 0. -1.
         11    1    3    3    0    0  0.95837971834E+00  0.34346098554E+01 -0.22753645981E+01  0.42299315430E+01  0.51100000000E-03 0. -1.
        -11    1    3    3    0    0  0.22002610726E+02  0.22542684350E+02  0.20544893494E+02  0.37608245711E+02  0.51100000000E-03 0.  1.
        -12    1    3    3    0    0 -0.32915817304E+00  0.57025782096E+01 -0.65498284751E+01  0.86906844605E+01  0.00000000000E+00 0.  1.
</event>
<event>
 7    1  0.2991278E-011  0.5052884E+02  0.7816164E-02  0.1300439E+00
        -11   -1    0    0    0    0  0.00000000000E+00  0.00000000000E+00  0.45593999997E+02  0.45594000000E+02  0.51100000000E-03 0.  1.
         11   -1    0    0    0    0 -0.00000000000E+00 -0.00000000000E+00 -0.45593999997E+02  0.45594000000E+02  0.51100000000E-03 0. -1.
    9900012    2    1    2    0    0 -0.28286732622E+02  0.10594153505E+02  0.27217488008E+02  0.50528843782E+02  0.29999951159E+02 0.  0.
         12    1    1    2    0    0  0.28286732622E+02 -0.10594153505E+02 -0.27217488008E+02  0.40659156218E+02  0.00000000000E+00 0. -1.
         11    1    3    3    0    0  0.37744271468E+01 -0.41784003904E-01  0.59106669374E+01  0.70131326877E+01  0.51100000000E-03 0. -1.
        -11    1    3    3    0    0 -0.13508793813E+02  0.12797360433E+02  0.66038212428E+01  0.19745136100E+02  0.51100000000E-03 0.  1.
        -12    1    3    3    0    0 -0.18552365955E+02 -0.21614229238E+01  0.14702999828E+02  0.23770574994E+02  0.00000000000E+00 0.  1.
</event>
<event>
 7    1  0.2991278E-011  0.5052889E+02  0.7816164E-02  0.1300439E+00
        -11   -1    0    0    0    0  0.00000000000E+00  0.00000000000E+00  0.45593999997E+02  0.45594000000E+02  0.51100000000E-03 0.  1.
         11   -1    0    0    0    0 -0.00000000000E+00 -0.00000000000E+00 -0.45593999997E+02  0.45594000000E+02  0.51100000000E-03 0. -1.
    9900012    2    1    2    0    0 -0.14265069494E+02 -0.31825896798E+02  0.20899360453E+02  0.50528890541E+02  0.30000093287E+02 0.  0.
         12    1    1    2    0    0  0.14265069494E+02  0.31825896798E+02 -0.20899360453E+02  0.40659109459E+02  0.00000000000E+00 0. -1.
         11    1    3    3    0    0 -0.15701690109E+02 -0.27504963870E+02  0.13591002870E+02  0.34464205621E+02  0.51100000000E-03 0.  1.
        -11    1    3    3    0    0  0.62000690530E+01 -0.23611205980E+01  0.84951882809E+01  0.10778866867E+02  0.51100000000E-03 0. -1.
        -12    1    3    3    0    0 -0.47634484374E+01 -0.19598123305E+01 -0.11868306984E+01  0.52858180533E+01  0.00000000000E+00 0.  1.
</event>
<event>
 7    1  0.2991278E-011  0.5052890E+02  0.7816164E-02  0.1300439E+00
        -11   -1    0    0    0    0  0.00000000000E+00  0.00000000000E+00  0.45593999997E+02  0.45594000000E+02  0.51100000000E-03 0. -1.
         11   -1    0    0    0    0 -0.00000000000E+00 -0.00000000000E+00 -0.45593999997E+02  0.45594000000E+02  0.51100000000E-03 0.  1.
    9900012    2    1    2    0    0 -0.31454741759E+02 -0.25270457877E+02  0.50165658592E+01  0.50528895811E+02  0.30000109306E+02 0.  0.
         12    1    1    2    0    0  0.31454741759E+02  0.25270457877E+02 -0.50165658592E+01  0.40659104189E+02  0.00000000000E+00 0. -1.
         11    1    3    3    0    0 -0.62909992905E+01  0.53002943509E+01  0.69579455904E+01  0.10774172793E+02  0.51100000000E-03 0. -1.
        -11    1    3    3    0    0 -0.11855286362E+02 -0.15867154680E+02 -0.21354343550E+01  0.19921709076E+02  0.51100000000E-03 0.  1.
         12    1    3    3    0    0 -0.13308456107E+02 -0.14703597549E+02  0.19405462380E+00  0.19833013942E+02  0.00000000000E+00 0. -1.
</event>
<event>
 7    1  0.2991278E-011  0.5052888E+02  0.7816164E-02  0.1300439E+00
        -11   -1    0    0    0    0  0.00000000000E+00  0.00000000000E+00  0.45593999997E+02  0.45594000000E+02  0.51100000000E-03 0.  1.
         11   -1    0    0    0    0 -0.00000000000E+00 -0.00000000000E+00 -0.45593999997E+02  0.45594000000E+02  0.51100000000E-03 0. -1.
    9900012    2    1    2    0    0 -0.39187859141E+02 -0.94223992930E+01  0.53566966336E+01  0.50528879112E+02  0.30000058550E+02 0.  0.
         12    1    1    2    0    0  0.39187859141E+02  0.94223992930E+01 -0.53566966336E+01  0.40659120888E+02  0.00000000000E+00 0. -1.
         11    1    3    3    0    0 -0.47738243246E+01 -0.77034593034E+01  0.96160140271E+00  0.91135811534E+01  0.51100000000E-03 0. -1.
        -11    1    3    3    0    0 -0.35261879391E+02  0.20513303539E+01 -0.31484545488E+00  0.35322899404E+02  0.51100000000E-03 0.  1.
        -12    1    3    3    0    0  0.84784457414E+00 -0.37702703436E+01  0.47099406858E+01  0.60923985547E+01  0.00000000000E+00 0.  1.
</event>
<event>
 7    1  0.2991278E-011  0.5052878E+02  0.7816164E-02  0.1300439E+00
        -11   -1    0    0    0    0  0.00000000000E+00  0.00000000000E+00  0.45593999997E+02  0.45594000000E+02  0.51100000000E-03 0. -1.
         11   -1    0    0    0    0 -0.00000000000E+00 -0.00000000000E+00 -0.45593999997E+02  0.45594000000E+02  0.51100000000E-03 0.  1.
    9900012    2    1    2    0    0  0.28096146795E+02  0.20954910356E+02 -0.20607529788E+02  0.50528781897E+02  0.29999763054E+02 0.  0.
         12    1    1    2    0    0 -0.28096146795E+02 -0.20954910356E+02  0.20607529788E+02  0.40659218103E+02  0.00000000000E+00 0. -1.
         11    1    3    3    0    0  0.14703119394E+02 -0.51142357933E+01 -0.51366397789E+01  0.16392748279E+02  0.51100000000E-03 0. -1.
        -11    1    3    3    0    0  0.11340531738E+02  0.14899086564E+02 -0.12083525229E+02  0.22284569162E+02  0.51100000000E-03 0.  1.
         12    1    3    3    0    0  0.20524956630E+01  0.11170059586E+02 -0.33873647804E+01  0.11851464456E+02  0.00000000000E+00 0. -1.
</event>
<event>
 7    1  0.2991278E-011  0.5052885E+02  0.7816164E-02  0.1300439E+00
        -11   -1    0    0    0    0  0.00000000000E+00  0.00000000000E+00  0.45593999997E+02  0.45594000000E+02  0.51100000000E-03 0.  1.
         11   -1    0    0    0    0 -0.00000000000E+00 -0.00000000000E+00 -0.45593999997E+02  0.45594000000E+02  0.51100000000E-03 0. -1.
    9900012    2    1    2    0    0  0.52654116778E+01 -0.10650319327E+02  0.38884602250E+02  0.50528853993E+02  0.29999982197E+02 0.  0.
         12    1    1    2    0    0 -0.52654116778E+01  0.10650319327E+02 -0.38884602250E+02  0.40659146007E+02  0.00000000000E+00 0. -1.
         11    1    3    3    0    0  0.78527208663E+01  0.81486961712E+01  0.16487068048E+02  0.19997246995E+02  0.51100000000E-03 0. -1.
        -11    1    3    3    0    0 -0.46841455758E+01 -0.14844675479E+02  0.13640747466E+02  0.20697236568E+02  0.51100000000E-03 0.  1.
        -12    1    3    3    0    0  0.20968363872E+01 -0.39543400196E+01  0.87567867361E+01  0.98343704306E+01  0.00000000000E+00 0.  1.
</event>
<event>
 7    1  0.2991278E-011  0.5052886E+02  0.7816164E-02  0.1300439E+00
        -11   -1    0    0    0    0  0.00000000000E+00  0.00000000000E+00  0.45593999997E+02  0.45594000000E+02  0.51100000000E-03 0.  1.
         11   -1    0    0    0    0 -0.00000000000E+00 -0.00000000000E+00 -0.45593999997E+02  0.45594000000E+02  0.51100000000E-03 0. -1.
    9900012    2    1    2    0    0  0.38700025777E+02  0.10811158542E+02  0.62122787976E+01  0.50528861396E+02  0.30000004698E+02 0.  0.
         12    1    1    2    0    0 -0.38700025777E+02 -0.10811158542E+02 -0.62122787976E+01  0.40659138604E+02  0.00000000000E+00 0. -1.
         11    1    3    3    0    0 -0.34219355389E+01  0.67647926762E+00 -0.32588107097E+01  0.47735850820E+01  0.51100000000E-03 0. -1.
        -11    1    3    3    0    0  0.19815064234E+02  0.35535947119E+01  0.10029291399E+02  0.22491142528E+02  0.51100000000E-03 0.  1.
        -12    1    3    3    0    0  0.22306897082E+02  0.65810845624E+01 -0.55820189172E+00  0.23264133786E+02  0.00000000000E+00 0.  1.
</event>
<event>
 7    1  0.2991278E-011  0.5052886E+02  0.7816164E-02  0.1300439E+00
        -11   -1    0    0    0    0  0.00000000000E+00  0.00000000000E+00  0.45593999997E+02  0.45594000000E+02  0.51100000000E-03 0.  1.
         11   -1    0    0    0    0 -0.00000000000E+00 -0.00000000000E+00 -0.45593999997E+02  0.45594000000E+02  0.51100000000E-03 0. -1.
    9900012    2    1    2    0    0 -0.29723492992E+02  0.22420317935E+02  0.16340399515E+02  0.50528863901E+02  0.30000012315E+02 0.  0.
         12    1    1    2    0    0  0.29723492992E+02 -0.22420317935E+02 -0.16340399515E+02  0.40659136099E+02  0.00000000000E+00 0. -1.
         11    1    3    3    0    0 -0.13480987495E+01  0.15513196861E+02  0.64795236196E+01  0.16865967914E+02  0.51100000000E-03 0. -1.
        -11    1    3    3    0    0 -0.20745430919E+02 -0.15410190546E+01  0.63758093631E+01  0.21757724813E+02  0.51100000000E-03 0.  1.
         12    1    3    3    0    0 -0.76299633241E+01  0.84481401285E+01  0.34850665326E+01  0.11905171175E+02  0.00000000000E+00 0. -1.
</event>
<event>
 7    1  0.2991278E-011  0.5052890E+02  0.7816164E-02  0.1300439E+00
        -11   -1    0    0    0    0  0.00000000000E+00  0.00000000000E+00  0.45593999997E+02  0.45594000000E+02  0.51100000000E-03 0.  1.
         11   -1    0    0    0    0 -0.00000000000E+00 -0.00000000000E+00 -0.45593999997E+02  0.45594000000E+02  0.51100000000E-03 0. -1.
    9900012    2    1    2    0    0  0.27868781124E+02  0.11192497642E+02  0.27408420081E+02  0.50528899467E+02  0.30000120418E+02 0.  0.
         12    1    1    2    0    0 -0.27868781124E+02 -0.11192497642E+02 -0.27408420081E+02  0.40659100533E+02  0.00000000000E+00 0. -1.
         11    1    3    3    0    0  0.92385336513E+01 -0.46623371133E+01  0.12149332879E+02  0.15959140987E+02  0.51100000000E-03 0. -1.
        -11    1    3    3    0    0 -0.13041678486E+01  0.10205741545E+02  0.46182678929E+01  0.11277695370E+02  0.51100000000E-03 0.  1.
        -12    1    3    3    0    0  0.19934415322E+02  0.56490932104E+01  0.10640819309E+02  0.23292063109E+02  0.00000000000E+00 0.  1.
</event>
<event>
 7    1  0.2991278E-011  0.5052887E+02  0.7816164E-02  0.1300439E+00
        -11   -1    0    0    0    0  0.00000000000E+00  0.00000000000E+00  0.45593999997E+02  0.45594000000E+02  0.51100000000E-03 0.  1.
         11   -1    0    0    0    0 -0.00000000000E+00 -0.00000000000E+00 -0.45593999997E+02  0.45594000000E+02  0.51100000000E-03 0. -1.
    9900012    2    1    2    0    0 -0.14716291917E+02 -0.18259972730E+02  0.33213983858E+02  0.50528873403E+02  0.30000041196E+02 0.  0.
         12    1    1    2    0    0  0.14716291917E+02  0.18259972730E+02 -0.33213983858E+02  0.40659126597E+02  0.00000000000E+00 0. -1.
         11    1    3    3    0    0  0.77069973913E+01 -0.11484104520E+02  0.93948571003E+01  0.16719623369E+02  0.51100000000E-03 0. -1.
        -11    1    3    3    0    0 -0.82007663426E+00 -0.75767198213E+00  0.30323055233E+01  0.32313262860E+01  0.51100000000E-03 0.  1.
         12    1    3    3    0    0 -0.21603212674E+02 -0.60181962284E+01  0.20786821235E+02  0.30577923748E+02  0.00000000000E+00 0. -1.
</event>
<event>
 7    1  0.2991278E-011  0.5052886E+02  0.7816164E-02  0.1300439E+00
        -11   -1    0    0    0    0  0.00000000000E+00  0.00000000000E+00  0.45593999997E+02  0.45594000000E+02  0.51100000000E-03 0. -1.
         11   -1    0    0    0    0 -0.00000000000E+00 -0.00000000000E+00 -0.45593999997E+02  0.45594000000E+02  0.51100000000E-03 0.  1.
    9900012    2    1    2    0    0 -0.31878907799E+02  0.10678279376E+02 -0.22866466056E+02  0.50528859788E+02  0.29999999811E+02 0.  0.
         12    1    1    2    0    0  0.31878907799E+02 -0.10678279376E+02  0.22866466056E+02  0.40659140212E+02  0.00000000000E+00 0. -1.
         11    1    3    3    0    0 -0.39881065367E+01  0.14860413415E+02 -0.32750139618E+01  0.15730943943E+02  0.51100000000E-03 0. -1.
        -11    1    3    3    0    0 -0.26462550592E+02 -0.37415809025E+01 -0.16620898026E+02  0.31472531880E+02  0.51100000000E-03 0.  1.
         12    1    3    3    0    0 -0.14282506704E+01 -0.44055313650E+00 -0.29705540682E+01  0.33253839651E+01  0.00000000000E+00 0. -1.
</event>
<event>
 7    1  0.2991278E-011  0.5052886E+02  0.7816164E-02  0.1300439E+00
        -11   -1    0    0    0    0  0.00000000000E+00  0.00000000000E+00  0.45593999997E+02  0.45594000000E+02  0.51100000000E-03 0. -1.
         11   -1    0    0    0    0 -0.00000000000E+00 -0.00000000000E+00 -0.45593999997E+02  0.45594000000E+02  0.51100000000E-03 0.  1.
    9900012    2    1    2    0    0  0.39910871904E+02 -0.48490278748E+01 -0.60642027113E+01  0.50528864225E+02  0.30000013298E+02 0.  0.
         12    1    1    2    0    0 -0.39910871904E+02  0.48490278748E+01  0.60642027113E+01  0.40659135775E+02  0.00000000000E+00 0. -1.
         11    1    3    3    0    0  0.27332829382E+02 -0.67078703889E+01  0.20246833129E+01  0.28216633923E+02  0.51100000000E-03 0. -1.
        -11    1    3    3    0    0  0.13832251633E+02  0.53915782796E+01 -0.10197796401E+02  0.18010978687E+02  0.51100000000E-03 0.  1.
         12    1    3    3    0    0 -0.12542091102E+01 -0.35327357655E+01  0.21089103765E+01  0.43012516152E+01  0.00000000000E+00 0. -1.
</event>
<event>
 7    1  0.2991278E-011  0.5052886E+02  0.7816164E-02  0.1300439E+00
        -11   -1    0    0    0    0  0.00000000000E+00  0.00000000000E+00  0.45593999997E+02  0.45594000000E+02  0.51100000000E-03 0.  1.
         11   -1    0    0    0    0 -0.00000000000E+00 -0.00000000000E+00 -0.45593999997E+02  0.45594000000E+02  0.51100000000E-03 0. -1.
    9900012    2    1    2    0    0 -0.26513351751E+02  0.30785132238E+02  0.15759470270E+01  0.50528858383E+02  0.29999995542E+02 0.  0.
         12    1    1    2    0    0  0.26513351751E+02 -0.30785132238E+02 -0.15759470270E+01  0.40659141617E+02  0.00000000000E+00 0. -1.
         11    1    3    3    0    0 -0.69344133976E+00  0.13694896374E+01 -0.77835742755E+01  0.79334980634E+01  0.51100000000E-03 0. -1.
        -11    1    3    3    0    0 -0.24556704945E+02  0.30841998987E+02  0.79308527654E+01  0.40213916560E+02  0.51100000000E-03 0.  1.
        -12    1    3    3    0    0 -0.12632054669E+01 -0.14263563865E+01  0.14286685371E+01  0.23814437600E+01  0.00000000000E+00 0.  1.
</event>
<event>
 7    1  0.2991278E-011  0.5052889E+02  0.7816164E-02  0.1300439E+00
        -11   -1    0    0    0    0  0.00000000000E+00  0.00000000000E+00  0.45593999997E+02  0.45594000000E+02  0.51100000000E-03 0.  1.
         11   -1    0    0    0    0 -0.00000000000E+00 -0.00000000000E+00 -0.45593999997E+02  0.45594000000E+02  0.51100000000E-03 0. -1.
    9900012    2    1    2    0    0  0.39021110955E+02 -0.20157781525E+01  0.11245106304E+02  0.50528894285E+02  0.30000104669E+02 0.  0.
         12    1    1    2    0    0 -0.39021110955E+02  0.20157781525E+01 -0.11245106304E+02  0.40659105715E+02  0.00000000000E+00 0. -1.
         11    1    3    3    0    0  0.59054612840E+01 -0.11307865108E+02  0.41054840773E+01  0.13401391199E+02  0.51100000000E-03 0. -1.
        -11    1    3    3    0    0  0.25616879269E+02  0.60321885885E+01  0.10436249544E+02  0.28311254078E+02  0.51100000000E-03 0.  1.
         12    1    3    3    0    0  0.74987704021E+01  0.32598983675E+01 -0.32966273176E+01  0.88162490085E+01  0.00000000000E+00 0. -1.
</event>
<event>
 7    1  0.2991278E-011  0.5052885E+02  0.7816164E-02  0.1300439E+00
        -11   -1    0    0    0    0  0.00000000000E+00  0.00000000000E+00  0.45593999997E+02  0.45594000000E+02  0.51100000000E-03 0. -1.
         11   -1    0    0    0    0 -0.00000000000E+00 -0.00000000000E+00 -0.45593999997E+02  0.45594000000E+02  0.51100000000E-03 0.  1.
    9900012    2    1    2    0    0  0.37184141256E+01 -0.18940154136E+02 -0.35785618485E+02  0.50528849336E+02  0.29999968042E+02 0.  0.
         12    1    1    2    0    0 -0.37184141256E+01  0.18940154136E+02  0.35785618485E+02  0.40659150664E+02  0.00000000000E+00 0. -1.
         11    1    3    3    0    0 -0.83830392736E+01  0.24048621925E+00 -0.27821534266E+01  0.88359243452E+01  0.51100000000E-03 0. -1.
        -11    1    3    3    0    0  0.12575658800E+01 -0.11583434063E+02 -0.19929263914E+02  0.23085341172E+02  0.51100000000E-03 0.  1.
         12    1    3    3    0    0  0.10843887519E+02 -0.75972062925E+01 -0.13074201145E+02  0.18607583819E+02  0.00000000000E+00 0. -1.
</event>
<event>
 7    1  0.2991278E-011  0.5052888E+02  0.7816164E-02  0.1300439E+00
        -11   -1    0    0    0    0  0.00000000000E+00  0.00000000000E+00  0.45593999997E+02  0.45594000000E+02  0.51100000000E-03 0.  1.
         11   -1    0    0    0    0 -0.00000000000E+00 -0.00000000000E+00 -0.45593999997E+02  0.45594000000E+02  0.51100000000E-03 0. -1.
    9900012    2    1    2    0    0  0.15510736393E+01  0.20167452654E+01  0.40579444093E+02  0.50528875885E+02  0.30000048739E+02 0.  0.
         12    1    1    2    0    0 -0.15510736393E+01 -0.20167452654E+01 -0.40579444093E+02  0.40659124115E+02  0.00000000000E+00 0. -1.
         11    1    3    3    0    0  0.11166304017E+02  0.63040484677E+01  0.16583513865E+02  0.20962831509E+02  0.51100000000E-03 0. -1.
        -11    1    3    3    0    0 -0.12064743542E+02 -0.67266182161E+01  0.19393465594E+02  0.23809912586E+02  0.51100000000E-03 0.  1.
        -12    1    3    3    0    0  0.24495131637E+01  0.24393150139E+01  0.46024646345E+01  0.57561317904E+01  0.00000000000E+00 0.  1.
</event>
<event>
 7    1  0.2991278E-011  0.5052885E+02  0.7816164E-02  0.1300439E+00
        -11   -1    0    0    0    0  0.00000000000E+00  0.00000000000E+00  0.45593999997E+02  0.45594000000E+02  0.51100000000E-03 0.  1.
         11   -1    0    0    0    0 -0.00000000000E+00 -0.00000000000E+00 -0.45593999997E+02  0.45594000000E+02  0.51100000000E-03 0. -1.
    9900012    2    1    2    0    0 -0.39713786384E+02 -0.46548312892E+01  0.73697929969E+01  0.50528854262E+02  0.29999983016E+02 0.  0.
         12    1    1    2    0    0  0.39713786384E+02  0.46548312892E+01 -0.73697929969E+01  0.40659145738E+02  0.00000000000E+00 0. -1.
         11    1    3    3    0    0 -0.76222048090E+01 -0.76693363282E+01  0.35265384183E+01  0.11373354797E+02  0.51100000000E-03 0. -1.
        -11    1    3    3    0    0 -0.20888850188E+02  0.11970463520E+02 -0.77380358766E+00  0.24088064084E+02  0.51100000000E-03 0.  1.
        -12    1    3    3    0    0 -0.11202731388E+02 -0.89559584812E+01  0.46170581663E+01  0.15067435381E+02  0.00000000000E+00 0.  1.
</event>
<event>
 7    1  0.2991278E-011  0.5052886E+02  0.7816164E-02  0.1300439E+00
        -11   -1    0    0    0    0  0.00000000000E+00  0.00000000000E+00  0.45593999997E+02  0.45594000000E+02  0.51100000000E-03 0.  1.
         11   -1    0    0    0    0 -0.00000000000E+00 -0.00000000000E+00 -0.45593999997E+02  0.45594000000E+02  0.51100000000E-03 0. -1.
    9900012    2    1    2    0    0  0.25620143858E+02  0.81591125022E+01  0.30499224469E+02  0.50528861036E+02  0.30000003604E+02 0.  0.
         12    1    1    2    0    0 -0.25620143858E+02 -0.81591125022E+01 -0.30499224469E+02  0.40659138964E+02  0.00000000000E+00 0. -1.
         11    1    3    3    0    0 -0.94316184162E+00  0.26100523059E+01  0.77327819382E+01  0.82157071554E+01  0.51100000000E-03 0. -1.
        -11    1    3    3    0    0  0.30142651426E+02  0.80948859714E+01  0.19096402130E+02  0.36589331621E+02  0.51100000000E-03 0.  1.
        -12    1    3    3    0    0 -0.35793457272E+01 -0.25458257751E+01  0.36700404012E+01  0.57238222595E+01  0.00000000000E+00 0.  1.
</event>
<event>
 7    1  0.2991278E-011  0.5052883E+02  0.7816164E-02  0.1300439E+00
        -11   -1    0    0    0    0  0.00000000000E+00  0.00000000000E+00  0.45593999997E+02  0.45594000000E+02  0.51100000000E-03 0.  1.
         11   -1    0    0    0    0 -0.00000000000E+00 -0.00000000000E+00 -0.45593999997E+02  0.45594000000E+02  0.51100000000E-03 0. -1.
    9900012    2    1    2    0    0 -0.30483750933E+02  0.26782908001E+02 -0.25661044584E+01  0.50528829767E+02  0.29999908561E+02 0.  0.
         12    1    1    2    0    0  0.30483750933E+02 -0.26782908001E+02  0.25661044584E+01  0.40659170233E+02  0.00000000000E+00 0. -1.
         11    1    3    3    0    0 -0.16938534754E+02  0.67282130280E+01 -0.90270028687E+01  0.20338868975E+02  0.51100000000E-03 0. -1.
        -11    1    3    3    0    0 -0.19562089770E+00  0.14635762090E+02  0.64017301154E+00  0.14651062120E+02  0.51100000000E-03 0.  1.
        -12    1    3    3    0    0 -0.13349595281E+02  0.54189328825E+01  0.58207253988E+01  0.15538898672E+02  0.00000000000E+00 0.  1.
</event>
<event>
 7    1  0.2991278E-011  0.5052884E+02  0.7816164E-02  0.1300439E+00
        -11   -1    0    0    0    0  0.00000000000E+00  0.00000000000E+00  0.45593999997E+02  0.45594000000E+02  0.51100000000E-03 0. -1.
         11   -1    0    0    0    0 -0.00000000000E+00 -0.00000000000E+00 -0.45593999997E+02  0.45594000000E+02  0.51100000000E-03 0.  1.
    9900012    2    1    2    0    0 -0.27397523491E+02 -0.17327824760E+02 -0.24541579932E+02  0.50528844205E+02  0.29999952447E+02 0.  0.
         12    1    1    2    0    0  0.27397523491E+02  0.17327824760E+02  0.24541579932E+02  0.40659155795E+02  0.00000000000E+00 0. -1.
         11    1    3    3    0    0 -0.25162100683E+02 -0.48623073730E+01 -0.15274260443E+02  0.29834147819E+02  0.51100000000E-03 0. -1.
        -11    1    3    3    0    0  0.21767826842E+01 -0.13003328604E+01 -0.82677016316E+01  0.86477823129E+01  0.51100000000E-03 0.  1.
         12    1    3    3    0    0 -0.44122054920E+01 -0.11165184527E+02 -0.99961785757E+00  0.12046914073E+02  0.00000000000E+00 0. -1.
</event>
<event>
 7    1  0.2991278E-011  0.5052885E+02  0.7816164E-02  0.1300439E+00
        -11   -1    0    0    0    0  0.00000000000E+00  0.00000000000E+00  0.45593999997E+02  0.45594000000E+02  0.51100000000E-03 0. -1.
         11   -1    0    0    0    0 -0.00000000000E+00 -0.00000000000E+00 -0.45593999997E+02  0.45594000000E+02  0.51100000000E-03 0.  1.
    9900012    2    1    2    0    0 -0.21516395807E+02  0.39064752394E+01 -0.34277548860E+02  0.50528853512E+02  0.29999980734E+02 0.  0.
         12    1    1    2    0    0  0.21516395807E+02 -0.39064752394E+01  0.34277548860E+02  0.40659146488E+02  0.00000000000E+00 0. -1.
         11    1    3    3    0    0 -0.49462311656E+01 -0.86937051965E+01 -0.13116238021E+02  0.16494890508E+02  0.51100000000E-03 0. -1.
        -11    1    3    3    0    0 -0.19574948121E+02  0.80335737432E+01 -0.16155228368E+02  0.26621575928E+02  0.51100000000E-03 0.  1.
        -12    1    3    3    0    0  0.30047834800E+01  0.45666066928E+01 -0.50060824708E+01  0.74123870752E+01  0.00000000000E+00 0.  1.
</event>
<event>
 7    1  0.3064801E-011  0.5052899E+02  0.7816164E-02  0.1300438E+00
        -11   -1    0    0    0    0  0.00000000000E+00  0.00000000000E+00  0.45593999997E+02  0.45594000000E+02  0.51100000000E-03 0.  1.
         11   -1    0    0    0    0 -0.00000000000E+00 -0.00000000000E+00 -0.45593999997E+02  0.45594000000E+02  0.51100000000E-03 0. -1.
    9900012    2    1    2    0    0  0.36622005310E+02 -0.16715285216E+02 -0.57081311820E+01  0.50528993687E+02  0.30000406807E+02 0.  0.
         12    1    1    2    0    0 -0.36622005310E+02  0.16715285216E+02  0.57081311820E+01  0.40659006313E+02  0.00000000000E+00 0. -1.
         11    1    3    3    0    0  0.76755535377E+01 -0.29462142566E+00 -0.10146178875E+02  0.12725795453E+02  0.51100000000E-03 0. -1.
        -11    1    3    3    0    0  0.16088640026E+02 -0.18390115670E+02  0.15820004104E+01  0.24485575709E+02  0.51100000000E-03 0.  1.
        -12    1    3    3    0    0  0.12857811747E+02  0.19694518798E+01  0.28560472826E+01  0.13317622525E+02  0.00000000000E+00 0.  1.
</event>
<event>
 7    1  0.2991278E-011  0.5052886E+02  0.7816164E-02  0.1300439E+00
        -11   -1    0    0    0    0  0.00000000000E+00  0.00000000000E+00  0.45593999997E+02  0.45594000000E+02  0.51100000000E-03 0.  1.
         11   -1    0    0    0    0 -0.00000000000E+00 -0.00000000000E+00 -0.45593999997E+02  0.45594000000E+02  0.51100000000E-03 0. -1.
    9900012    2    1    2    0    0 -0.29421010797E+02  0.38561927441E+01  0.27797473425E+02  0.50528860466E+02  0.30000001873E+02 0.  0.
         12    1    1    2    0    0  0.29421010797E+02 -0.38561927441E+01 -0.27797473425E+02  0.40659139534E+02  0.00000000000E+00 0. -1.
         11    1    3    3    0    0 -0.33352502347E+02  0.61687925207E+01  0.20830176520E+02  0.39803764496E+02  0.51100000000E-03 0. -1.
        -11    1    3    3    0    0  0.27780005835E+01  0.21549664048E+01  0.34221885547E+01  0.49063777079E+01  0.51100000000E-03 0.  1.
         12    1    3    3    0    0  0.11534909665E+01 -0.44675661814E+01  0.35451083512E+01  0.58187182623E+01  0.00000000000E+00 0. -1.
</event>
<event>
 7    1  0.2991278E-011  0.5052887E+02  0.7816164E-02  0.1300439E+00
        -11   -1    0    0    0    0  0.00000000000E+00  0.00000000000E+00  0.45593999997E+02  0.45594000000E+02  0.51100000000E-03 0. -1.
         11   -1    0    0    0    0 -0.00000000000E+00 -0.00000000000E+00 -0.45593999997E+02  0.45594000000E+02  0.51100000000E-03 0.  1.
    9900012    2    1    2    0    0 -0.33012972263E+02  0.70036006991E+01 -0.22677264356E+02  0.50528867212E+02  0.30000022378E+02 0.  0.
         12    1    1    2    0    0  0.33012972263E+02 -0.70036006991E+01  0.22677264356E+02  0.40659132788E+02  0.00000000000E+00 0. -1.
         11    1    3    3    0    0 -0.33864742140E+02  0.49055073708E+00 -0.94903839542E+01  0.35172841627E+02  0.51100000000E-03 0. -1.
        -11    1    3    3    0    0  0.22870087797E+01  0.47626968627E+01 -0.70140418863E+01  0.87812569947E+01  0.51100000000E-03 0.  1.
        -12    1    3    3    0    0 -0.14352389029E+01  0.17503530994E+01 -0.61728385157E+01  0.65747685908E+01  0.00000000000E+00 0.  1.
</event>
<event>
 7    1  0.2991278E-011  0.5052885E+02  0.7816164E-02  0.1300439E+00
        -11   -1    0    0    0    0  0.00000000000E+00  0.00000000000E+00  0.45593999997E+02  0.45594000000E+02  0.51100000000E-03 0.  1.
         11   -1    0    0    0    0 -0.00000000000E+00 -0.00000000000E+00 -0.45593999997E+02  0.45594000000E+02  0.51100000000E-03 0. -1.
    9900012    2    1    2    0    0  0.27576440288E+02 -0.28951675160E+02 -0.73828936673E+01  0.50528847618E+02  0.29999962820E+02 0.  0.
         12    1    1    2    0    0 -0.27576440288E+02  0.28951675160E+02  0.73828936673E+01  0.40659152382E+02  0.00000000000E+00 0. -1.
         11    1    3    3    0    0  0.70704244278E+01 -0.13214041864E+02 -0.10916145755E+02  0.18540874909E+02  0.51100000000E-03 0. -1.
        -11    1    3    3    0    0  0.19526857972E+02 -0.58820483127E+01  0.68969867428E+01  0.21528239617E+02  0.51100000000E-03 0.  1.
        -12    1    3    3    0    0  0.97915788792E+00 -0.98555849831E+01 -0.33637346552E+01  0.10459733092E+02  0.00000000000E+00 0.  1.
</event>
<event>
 7    1  0.2991278E-011  0.5052886E+02  0.7816164E-02  0.1300439E+00
        -11   -1    0    0    0    0  0.00000000000E+00  0.00000000000E+00  0.45593999997E+02  0.45594000000E+02  0.51100000000E-03 0.  1.
         11   -1    0    0    0    0 -0.00000000000E+00 -0.00000000000E+00 -0.45593999997E+02  0.45594000000E+02  0.51100000000E-03 0. -1.
    9900012    2    1    2    0    0  0.24218761369E+02  0.13720117007E+02  0.29637404052E+02  0.50528859184E+02  0.29999997977E+02 0.  0.
         12    1    1    2    0    0 -0.24218761369E+02 -0.13720117007E+02 -0.29637404052E+02  0.40659140816E+02  0.00000000000E+00 0. -1.
         11    1    3    3    0    0  0.19862753752E+02  0.10465154302E+02  0.10444035573E+02  0.24761387693E+02  0.51100000000E-03 0. -1.
        -11    1    3    3    0    0  0.15185985577E+01  0.55111314483E+01  0.20966601051E+02  0.21731936667E+02  0.51100000000E-03 0.  1.
         12    1    3    3    0    0  0.28374090593E+01 -0.22561687430E+01 -0.17732325717E+01  0.40355348245E+01  0.00000000000E+00 0. -1.
</event>
<event>
 7    1  0.2991278E-011  0.5052884E+02  0.7816164E-02  0.1300439E+00
        -11   -1    0    0    0    0  0.00000000000E+00  0.00000000000E+00  0.45593999997E+02  0.45594000000E+02  0.51100000000E-03 0.  1.
         11   -1    0    0    0    0 -0.00000000000E+00 -0.00000000000E+00 -0.45593999997E+02  0.45594000000E+02  0.51100000000E-03 0. -1.
    9900012    2    1    2    0    0 -0.21910886967E+02 -0.33774636211E+02  0.56880992120E+01  0.50528837546E+02  0.29999932204E+02 0.  0.
         12    1    1    2    0    0  0.21910886967E+02  0.33774636211E+02 -0.56880992120E+01  0.40659162454E+02  0.00000000000E+00 0. -1.
         11    1    3    3    0    0  0.51200722630E+01 -0.56224348094E+01 -0.44061043642E+01  0.87886670829E+01  0.51100000000E-03 0. -1.
        -11    1    3    3    0    0 -0.17362674124E+02 -0.10285935027E+02  0.46724931073E+01  0.20714610887E+02  0.51100000000E-03 0.  1.
         12    1    3    3    0    0 -0.96682851057E+01 -0.17866266375E+02  0.54217104688E+01  0.21025559576E+02  0.00000000000E+00 0. -1.
</event>
<event>
 7    1  0.2991278E-011  0.5052885E+02  0.7816164E-02  0.1300439E+00
        -11   -1    0    0    0    0  0.00000000000E+00  0.00000000000E+00  0.45593999997E+02  0.45594000000E+02  0.51100000000E-03 0. -1.
         11   -1    0    0    0    0 -0.00000000000E+00 -0.00000000000E+00 -0.45593999997E+02  0.45594000000E+02  0.51100000000E-03 0.  1.
    9900012    2    1    2    0    0 -0.28661051941E+02  0.24257969866E+02 -0.15596834004E+02  0.50528853042E+02  0.29999979306E+02 0.  0.
         12    1    1    2    0    0  0.28661051941E+02 -0.24257969866E+02  0.15596834004E+02  0.40659146958E+02  0.00000000000E+00 0. -1.
         11    1    3    3    0    0  0.22490869115E+01  0.87068215882E+00 -0.14955360278E+01  0.28377997866E+01  0.51100000000E-03 0. -1.
        -11    1    3    3    0    0 -0.30696552103E+02  0.26847039446E+02 -0.93995452259E+01  0.41849650999E+02  0.51100000000E-03 0.  1.
        -12    1    3    3    0    0 -0.21358674929E+00 -0.34597517382E+01 -0.47017527507E+01  0.58414022562E+01  0.00000000000E+00 0.  1.
</event>
<event>
 7    1  0.2991278E-011  0.5052886E+02  0.7816164E-02  0.1300439E+00
        -11   -1    0    0    0    0  0.00000000000E+00  0.00000000000E+00  0.45593999997E+02  0.45594000000E+02  0.51100000000E-03 0.  1.
         11   -1    0    0    0    0 -0.00000000000E+00 -0.00000000000E+00 -0.45593999997E+02  0.45594000000E+02  0.51100000000E-03 0. -1.
    9900012    2    1    2    0    0 -0.32588794037E+02  0.20456542707E+02  0.13140253011E+02  0.50528857295E+02  0.29999992235E+02 0.  0.
         12    1    1    2    0    0  0.32588794037E+02 -0.20456542707E+02 -0.13140253011E+02  0.40659142705E+02  0.00000000000E+00 0. -1.
         11    1    3    3    0    0 -0.12054603445E+01  0.66801860101E+01  0.87170094150E+01  0.11048270144E+02  0.51100000000E-03 0. -1.
        -11    1    3    3    0    0 -0.23008190680E+02  0.32579913778E+00  0.52945453632E+01  0.23611759662E+02  0.51100000000E-03 0.  1.
        -12    1    3    3    0    0 -0.83751430122E+01  0.13450557559E+02 -0.87130176764E+00  0.15868827490E+02  0.00000000000E+00 0.  1.
</event>
<event>
 7    1  0.3152918E-011  0.5052886E+02  0.7816164E-02  0.1300439E+00
        -11   -1    0    0    0    0  0.00000000000E+00  0.00000000000E+00  0.45593999997E+02  0.45594000000E+02  0.51100000000E-03 0. -1.
         11   -1    0    0    0    0 -0.00000000000E+00 -0.00000000000E+00 -0.45593999997E+02  0.45594000000E+02  0.51100000000E-03 0.  1.
    9900012    2    1    2    0    0 -0.46357746739E+01  0.78285054116E+01 -0.39628138566E+02  0.50528864864E+02  0.30000015239E+02 0.  0.
         12    1    1    2    0    0  0.46357746739E+01 -0.78285054116E+01  0.39628138566E+02  0.40659135136E+02  0.00000000000E+00 0. -1.
         11    1    3    3    0    0  0.36788921648E+01 -0.10858504598E+01 -0.10497325083E+01  0.39768401252E+01  0.51100000000E-03 0. -1.
        -11    1    3    3    0    0 -0.14865223774E+02 -0.87010875651E-01 -0.20541721888E+02  0.25356355952E+02  0.51100000000E-03 0.  1.
        -12    1    3    3    0    0  0.65505569355E+01  0.90013667470E+01 -0.18036684170E+02  0.21195668787E+02  0.00000000000E+00 0.  1.
</event>
<event>
 7    1  0.2991278E-011  0.5052880E+02  0.7816164E-02  0.1300439E+00
        -11   -1    0    0    0    0  0.00000000000E+00  0.00000000000E+00  0.45593999997E+02  0.45594000000E+02  0.51100000000E-03 0. -1.
         11   -1    0    0    0    0 -0.00000000000E+00 -0.00000000000E+00 -0.45593999997E+02  0.45594000000E+02  0.51100000000E-03 0.  1.
    9900012    2    1    2    0    0 -0.60390529258E+01  0.26956649869E+02 -0.29833525253E+02  0.50528802253E+02  0.29999824927E+02 0.  0.
         12    1    1    2    0    0  0.60390529258E+01 -0.26956649869E+02  0.29833525253E+02  0.40659197747E+02  0.00000000000E+00 0. -1.
         11    1    3    3    0    0  0.88714444384E+01  0.39003880507E+01 -0.24635435160E+01  0.99992299846E+01  0.51100000000E-03 0. -1.
        -11    1    3    3    0    0 -0.14632279246E+02  0.22276367187E+02 -0.20537570427E+02  0.33647168235E+02  0.51100000000E-03 0.  1.
         12    1    3    3    0    0 -0.27821811841E+00  0.77989463169E+00 -0.68324113104E+01  0.68824040329E+01  0.00000000000E+00 0. -1.
</event>
<event>
 7    1  0.2991278E-011  0.5052885E+02  0.7816164E-02  0.1300439E+00
        -11   -1    0    0    0    0  0.00000000000E+00  0.00000000000E+00  0.45593999997E+02  0.45594000000E+02  0.51100000000E-03 0.  1.
         11   -1    0    0    0    0 -0.00000000000E+00 -0.00000000000E+00 -0.45593999997E+02  0.45594000000E+02  0.51100000000E-03 0. -1.
    9900012    2    1    2    0    0 -0.14983537278E+02  0.50908009757E+01  0.37453217598E+02  0.50528854013E+02  0.29999982258E+02 0.  0.
         12    1    1    2    0    0  0.14983537278E+02 -0.50908009757E+01 -0.37453217598E+02  0.40659145987E+02  0.00000000000E+00 0. -1.
         11    1    3    3    0    0 -0.30568470718E-01 -0.88790383105E+01  0.15571536993E+02  0.17925150497E+02  0.51100000000E-03 0.  1.
        -11    1    3    3    0    0 -0.12446148341E+02  0.11155360840E+02  0.23215111000E+02  0.28605769750E+02  0.51100000000E-03 0. -1.
        -12    1    3    3    0    0 -0.25068204657E+01  0.28144784465E+01 -0.13334303954E+01  0.39979337654E+01  0.00000000000E+00 0.  1.
</event>
<event>
 7    1  0.2991278E-011  0.5052886E+02  0.7816164E-02  0.1300439E+00
        -11   -1    0    0    0    0  0.00000000000E+00  0.00000000000E+00  0.45593999997E+02  0.45594000000E+02  0.51100000000E-03 0. -1.
         11   -1    0    0    0    0 -0.00000000000E+00 -0.00000000000E+00 -0.45593999997E+02  0.45594000000E+02  0.51100000000E-03 0.  1.
    9900012    2    1    2    0    0 -0.19693459261E+02 -0.18741715328E+00 -0.35571034534E+02  0.50528856370E+02  0.29999989423E+02 0.  0.
         12    1    1    2    0    0  0.19693459261E+02  0.18741715328E+00  0.35571034534E+02  0.40659143630E+02  0.00000000000E+00 0. -1.
         11    1    3    3    0    0 -0.13519922784E+02  0.13035520440E+02 -0.24471198175E+02  0.30847246970E+02  0.51100000000E-03 0.  1.
        -11    1    3    3    0    0 -0.59763176167E+01 -0.48548782913E+01 -0.38527950446E+01  0.86098922988E+01  0.51100000000E-03 0. -1.
         12    1    3    3    0    0 -0.19721886032E+00 -0.83680593020E+01 -0.72470413146E+01  0.11071717102E+02  0.00000000000E+00 0. -1.
</event>
<event>
 7    1  0.2991278E-011  0.5052885E+02  0.7816164E-02  0.1300439E+00
        -11   -1    0    0    0    0  0.00000000000E+00  0.00000000000E+00  0.45593999997E+02  0.45594000000E+02  0.51100000000E-03 0.  1.
         11   -1    0    0    0    0 -0.00000000000E+00 -0.00000000000E+00 -0.45593999997E+02  0.45594000000E+02  0.51100000000E-03 0. -1.
    9900012    2    1    2    0    0  0.22114682174E+02 -0.34004100835E+02 -0.27979466915E+01  0.50528849161E+02  0.29999967509E+02 0.  0.
         12    1    1    2    0    0 -0.22114682174E+02  0.34004100835E+02  0.27979466915E+01  0.40659150839E+02  0.00000000000E+00 0. -1.
         11    1    3    3    0    0  0.10844687735E+02 -0.74989460066E+00 -0.26194328855E+01  0.11181727187E+02  0.51100000000E-03 0. -1.
        -11    1    3    3    0    0  0.62099616682E+01 -0.28063620374E+02  0.65249375981E+01  0.29473805716E+02  0.51100000000E-03 0.  1.
        -12    1    3    3    0    0  0.50600327715E+01 -0.51905858600E+01 -0.67034514041E+01  0.98733162588E+01  0.00000000000E+00 0.  1.
</event>
<event>
 7    1  0.2991278E-011  0.5052885E+02  0.7816164E-02  0.1300439E+00
        -11   -1    0    0    0    0  0.00000000000E+00  0.00000000000E+00  0.45593999997E+02  0.45594000000E+02  0.51100000000E-03 0.  1.
         11   -1    0    0    0    0 -0.00000000000E+00 -0.00000000000E+00 -0.45593999997E+02  0.45594000000E+02  0.51100000000E-03 0. -1.
    9900012    2    1    2    0    0  0.99115405272E+01  0.12634779012E+02  0.37353582733E+02  0.50528850731E+02  0.29999972283E+02 0.  0.
         12    1    1    2    0    0 -0.99115405272E+01 -0.12634779012E+02 -0.37353582733E+02  0.40659149269E+02  0.00000000000E+00 0. -1.
         11    1    3    3    0    0  0.59885829432E+01 -0.77714255352E+01  0.18079559615E+02  0.20570091314E+02  0.51100000000E-03 0. -1.
        -11    1    3    3    0    0 -0.29278632599E+01  0.28329559586E+01  0.33956629643E+01  0.53036355418E+01  0.51100000000E-03 0.  1.
         12    1    3    3    0    0  0.68508208438E+01  0.17573248588E+02  0.15878360153E+02  0.24655123876E+02  0.00000000000E+00 0. -1.
</event>
<event>
 7    1  0.2991278E-011  0.5052887E+02  0.7816164E-02  0.1300439E+00
        -11   -1    0    0    0    0  0.00000000000E+00  0.00000000000E+00  0.45593999997E+02  0.45594000000E+02  0.51100000000E-03 0.  1.
         11   -1    0    0    0    0 -0.00000000000E+00 -0.00000000000E+00 -0.45593999997E+02  0.45594000000E+02  0.51100000000E-03 0. -1.
    9900012    2    1    2    0    0 -0.38930330896E+02 -0.78590522555E+01  0.87080358334E+01  0.50528865060E+02  0.30000015836E+02 0.  0.
         12    1    1    2    0    0  0.38930330896E+02  0.78590522555E+01 -0.87080358334E+01  0.40659134940E+02  0.00000000000E+00 0. -1.
         11    1    3    3    0    0 -0.30937506173E+02 -0.12649034222E+02  0.27429051160E+01  0.33535814940E+02  0.51100000000E-03 0. -1.
        -11    1    3    3    0    0 -0.88061182576E+01  0.84203967233E+01  0.47851106260E+01  0.13089999378E+02  0.51100000000E-03 0.  1.
         12    1    3    3    0    0  0.81329353493E+00 -0.36304147569E+01  0.11800200914E+01  0.39030507423E+01  0.00000000000E+00 0. -1.
</event>
<event>
 7    1  0.2991278E-011  0.5052886E+02  0.7816164E-02  0.1300439E+00
        -11   -1    0    0    0    0  0.00000000000E+00  0.00000000000E+00  0.45593999997E+02  0.45594000000E+02  0.51100000000E-03 0. -1.
         11   -1    0    0    0    0 -0.00000000000E+00 -0.00000000000E+00 -0.45593999997E+02  0.45594000000E+02  0.51100000000E-03 0.  1.
    9900012    2    1    2    0    0  0.30282978962E+02 -0.22427722705E+02 -0.15267758193E+02  0.50528855877E+02  0.29999987925E+02 0.  0.
         12    1    1    2    0    0 -0.30282978962E+02  0.22427722705E+02  0.15267758193E+02  0.40659144123E+02  0.00000000000E+00 0. -1.
         11    1    3    3    0    0  0.19588069005E+02 -0.23085497910E+02  0.48638784461E+00  0.30279848654E+02  0.51100000000E-03 0.  1.
        -11    1    3    3    0    0  0.45595816525E+01  0.35595656512E+01 -0.88078772767E+01  0.10537504204E+02  0.51100000000E-03 0. -1.
        -12    1    3    3    0    0  0.61353283040E+01 -0.29017904460E+01 -0.69462687609E+01  0.97115030191E+01  0.00000000000E+00 0.  1.
</event>
<event>
 7    1  0.2991278E-011  0.5052885E+02  0.7816164E-02  0.1300439E+00
        -11   -1    0    0    0    0  0.00000000000E+00  0.00000000000E+00  0.45593999997E+02  0.45594000000E+02  0.51100000000E-03 0. -1.
         11   -1    0    0    0    0 -0.00000000000E+00 -0.00000000000E+00 -0.45593999997E+02  0.45594000000E+02  0.51100000000E-03 0.  1.
    9900012    2    1    2    0    0 -0.26896810466E+02  0.11249112026E+02 -0.28340527116E+02  0.50528850823E+02  0.29999972561E+02 0.  0.
         12    1    1    2    0    0  0.26896810466E+02 -0.11249112026E+02  0.28340527116E+02  0.40659149177E+02  0.00000000000E+00 0. -1.
         11    1    3    3    0    0  0.45593653565E+01  0.38409667479E+01 -0.57748577311E+01  0.82999891619E+01  0.51100000000E-03 0. -1.
        -11    1    3    3    0    0 -0.26468544436E+02  0.52273606951E+00 -0.20490697272E+02  0.33477242606E+02  0.51100000000E-03 0.  1.
        -12    1    3    3    0    0 -0.49876313869E+01  0.68854092083E+01 -0.20749721129E+01  0.87516190552E+01  0.00000000000E+00 0.  1.
</event>
<event>
 7    1  0.2991278E-011  0.5052885E+02  0.7816164E-02  0.1300439E+00
        -11   -1    0    0    0    0  0.00000000000E+00  0.00000000000E+00  0.45593999997E+02  0.45594000000E+02  0.51100000000E-03 0. -1.
         11   -1    0    0    0    0 -0.00000000000E+00 -0.00000000000E+00 -0.45593999997E+02  0.45594000000E+02  0.51100000000E-03 0.  1.
    9900012    2    1    2    0    0  0.12233949200E+02 -0.36224439199E+02 -0.13830649633E+02  0.50528851244E+02  0.29999973841E+02 0.  0.
         12    1    1    2    0    0 -0.12233949200E+02  0.36224439199E+02  0.13830649633E+02  0.40659148756E+02  0.00000000000E+00 0. -1.
         11    1    3    3    0    0 -0.90795381676E+01 -0.13300289132E+02 -0.22894618371E+01  0.16265833520E+02  0.51100000000E-03 0. -1.
        -11    1    3    3    0    0  0.12624985306E+02 -0.16183987891E+02 -0.10918121734E+02  0.23249023645E+02  0.51100000000E-03 0.  1.
        -12    1    3    3    0    0  0.86885020620E+01 -0.67401621766E+01 -0.62306606255E+00  0.11013994079E+02  0.00000000000E+00 0.  1.
</event>
<event>
 7    1  0.2991278E-011  0.5052885E+02  0.7816164E-02  0.1300439E+00
        -11   -1    0    0    0    0  0.00000000000E+00  0.00000000000E+00  0.45593999997E+02  0.45594000000E+02  0.51100000000E-03 0. -1.
         11   -1    0    0    0    0 -0.00000000000E+00 -0.00000000000E+00 -0.45593999997E+02  0.45594000000E+02  0.51100000000E-03 0.  1.
    9900012    2    1    2    0    0 -0.92446694331E+01 -0.14578108218E+02 -0.36812783439E+02  0.50528853714E+02  0.29999981349E+02 0.  0.
         12    1    1    2    0    0  0.92446694331E+01  0.14578108218E+02  0.36812783439E+02  0.40659146286E+02  0.00000000000E+00 0. -1.
         11    1    3    3    0    0 -0.15699746502E+01 -0.74332384063E+01 -0.18678749807E+01  0.78234781787E+01  0.51100000000E-03 0. -1.
        -11    1    3    3    0    0 -0.80016151386E+01 -0.33369204868E+01 -0.37247675616E+02  0.38243302972E+02  0.51100000000E-03 0.  1.
        -12    1    3    3    0    0  0.32692035564E+00 -0.38079493250E+01  0.23027671572E+01  0.44620725634E+01  0.00000000000E+00 0.  1.
</event>
<event>
 7    1  0.2991278E-011  0.5052886E+02  0.7816164E-02  0.1300439E+00
        -11   -1    0    0    0    0  0.00000000000E+00  0.00000000000E+00  0.45593999997E+02  0.45594000000E+02  0.51100000000E-03 0. -1.
         11   -1    0    0    0    0 -0.00000000000E+00 -0.00000000000E+00 -0.45593999997E+02  0.45594000000E+02  0.51100000000E-03 0.  1.
    9900012    2    1    2    0    0  0.23069524286E+02  0.33396534994E+02 -0.23737181991E+01  0.50528855414E+02  0.29999986518E+02 0.  0.
         12    1    1    2    0    0 -0.23069524286E+02 -0.33396534994E+02  0.23737181991E+01  0.40659144586E+02  0.00000000000E+00 0. -1.
         11    1    3    3    0    0  0.21015026992E+01 -0.18423480976E+01  0.49866283490E+01  0.57163819553E+01  0.51100000000E-03 0. -1.
        -11    1    3    3    0    0  0.45738552833E+01  0.21846826661E+02 -0.77858593272E+01  0.23639449931E+02  0.51100000000E-03 0.  1.
        -12    1    3    3    0    0  0.16394166303E+02  0.13392056430E+02  0.42551277909E+00  0.21173023528E+02  0.00000000000E+00 0.  1.
</event>
<event>
 7    1  0.2991278E-011  0.5052886E+02  0.7816164E-02  0.1300439E+00
        -11   -1    0    0    0    0  0.00000000000E+00  0.00000000000E+00  0.45593999997E+02  0.45594000000E+02  0.51100000000E-03 0.  1.
         11   -1    0    0    0    0 -0.00000000000E+00 -0.00000000000E+00 -0.45593999997E+02  0.45594000000E+02  0.51100000000E-03 0. -1.
    9900012    2    1    2    0    0 -0.21826388314E+02 -0.80580146565E+01  0.33344307952E+02  0.50528859578E+02  0.29999999174E+02 0.  0.
         12    1    1    2    0    0  0.21826388314E+02  0.80580146565E+01 -0.33344307952E+02  0.40659140422E+02  0.00000000000E+00 0. -1.
         11    1    3    3    0    0 -0.21581715490E+02  0.25696478677E+01  0.86291950305E+01  0.23384536360E+02  0.51100000000E-03 0. -1.
        -11    1    3    3    0    0 -0.43309101549E+00 -0.18595929391E+01  0.84754066778E+01  0.86878174671E+01  0.51100000000E-03 0.  1.
         12    1    3    3    0    0  0.18841819093E+00 -0.87680695851E+01  0.16239706243E+02  0.18456505751E+02  0.00000000000E+00 0. -1.
</event>
<event>
 7    1  0.2991278E-011  0.5052886E+02  0.7816164E-02  0.1300439E+00
        -11   -1    0    0    0    0  0.00000000000E+00  0.00000000000E+00  0.45593999997E+02  0.45594000000E+02  0.51100000000E-03 0.  1.
         11   -1    0    0    0    0 -0.00000000000E+00 -0.00000000000E+00 -0.45593999997E+02  0.45594000000E+02  0.51100000000E-03 0. -1.
    9900012    2    1    2    0    0 -0.24821564224E+02  0.29970774415E+02  0.11781678772E+02  0.50528864197E+02  0.30000013214E+02 0.  0.
         12    1    1    2    0    0  0.24821564224E+02 -0.29970774415E+02 -0.11781678772E+02  0.40659135803E+02  0.00000000000E+00 0. -1.
         11    1    3    3    0    0 -0.84559026783E+00  0.20539897895E+02 -0.12761902451E+01  0.20596870885E+02  0.51100000000E-03 0. -1.
        -11    1    3    3    0    0 -0.10366955804E+02  0.69016138671E+01  0.94326464090E+01  0.15623087568E+02  0.51100000000E-03 0.  1.
         12    1    3    3    0    0 -0.13609018153E+02  0.25292626520E+01  0.36252226077E+01  0.14308905744E+02  0.00000000000E+00 0. -1.
</event>
<event>
 7    1  0.2991278E-011  0.5052889E+02  0.7816164E-02  0.1300439E+00
        -11   -1    0    0    0    0  0.00000000000E+00  0.00000000000E+00  0.45593999997E+02  0.45594000000E+02  0.51100000000E-03 0.  1.
         11   -1    0    0    0    0 -0.00000000000E+00 -0.00000000000E+00 -0.45593999997E+02  0.45594000000E+02  0.51100000000E-03 0. -1.
    9900012    2    1    2    0    0  0.13240760368E+02 -0.19810668632E+02  0.32945151770E+02  0.50528888451E+02  0.30000086936E+02 0.  0.
         12    1    1    2    0    0 -0.13240760368E+02  0.19810668632E+02 -0.32945151770E+02  0.40659111549E+02  0.00000000000E+00 0. -1.
         11    1    3    3    0    0 -0.22981852169E+01 -0.12817917629E+02  0.40364493695E+01  0.13633546545E+02  0.51100000000E-03 0.  1.
        -11    1    3    3    0    0  0.28166520303E+01  0.43071576715E+01  0.11256136731E+02  0.12376823107E+02  0.51100000000E-03 0. -1.
         12    1    3    3    0    0  0.12722293554E+02 -0.11299908675E+02  0.17652565670E+02  0.24518518798E+02  0.00000000000E+00 0. -1.
</event>
<event>
 7    1  0.2991278E-011  0.5052886E+02  0.7816164E-02  0.1300439E+00
        -11   -1    0    0    0    0  0.00000000000E+00  0.00000000000E+00  0.45593999997E+02  0.45594000000E+02  0.51100000000E-03 0.  1.
         11   -1    0    0    0    0 -0.00000000000E+00 -0.00000000000E+00 -0.45593999997E+02  0.45594000000E+02  0.51100000000E-03 0. -1.
    9900012    2    1    2    0    0  0.38917904642E+02  0.11533858740E+02  0.23521762710E+01  0.50528856719E+02  0.29999990483E+02 0.  0.
         12    1    1    2    0    0 -0.38917904642E+02 -0.11533858740E+02 -0.23521762710E+01  0.40659143281E+02  0.00000000000E+00 0. -1.
         11    1    3    3    0    0  0.25197085626E+02 -0.17931519676E+01  0.55780966317E+01  0.25869357942E+02  0.51100000000E-03 0. -1.
        -11    1    3    3    0    0 -0.83162367519E+00 -0.24251207018E+01 -0.18662743345E+01  0.31710863294E+01  0.51100000000E-03 0.  1.
        -12    1    3    3    0    0  0.14552442691E+02  0.15752131409E+02 -0.13596460262E+01  0.21488412448E+02  0.00000000000E+00 0.  1.
</event>
<event>
 7    1  0.2991278E-011  0.5052886E+02  0.7816164E-02  0.1300439E+00
        -11   -1    0    0    0    0  0.00000000000E+00  0.00000000000E+00  0.45593999997E+02  0.45594000000E+02  0.51100000000E-03 0.  1.
         11   -1    0    0    0    0 -0.00000000000E+00 -0.00000000000E+00 -0.45593999997E+02  0.45594000000E+02  0.51100000000E-03 0. -1.
    9900012    2    1    2    0    0  0.20504332246E+01 -0.28264693276E+02  0.29155929077E+02  0.50528863723E+02  0.30000011773E+02 0.  0.
         12    1    1    2    0    0 -0.20504332246E+01  0.28264693276E+02 -0.29155929077E+02  0.40659136277E+02  0.00000000000E+00 0. -1.
         11    1    3    3    0    0  0.13377652995E+01  0.38766614680E+01  0.13450399873E+01  0.43159301388E+01  0.51100000000E-03 0. -1.
        -11    1    3    3    0    0  0.22495208524E+01 -0.11064268964E+02  0.21286785388E+02  0.24095759465E+02  0.51100000000E-03 0.  1.
         12    1    3    3    0    0 -0.15368529273E+01 -0.21077085780E+02  0.65241037018E+01  0.22117174119E+02  0.00000000000E+00 0. -1.
</event>
<event>
 7    1  0.2991278E-011  0.5052886E+02  0.7816164E-02  0.1300439E+00
        -11   -1    0    0    0    0  0.00000000000E+00  0.00000000000E+00  0.45593999997E+02  0.45594000000E+02  0.51100000000E-03 0.  1.
         11   -1    0    0    0    0 -0.00000000000E+00 -0.00000000000E+00 -0.45593999997E+02  0.45594000000E+02  0.51100000000E-03 0. -1.
    9900012    2    1    2    0    0 -0.27293616670E+02  0.29233878464E+02 -0.73214828841E+01  0.50528864832E+02  0.30000015144E+02 0.  0.
         12    1    1    2    0    0  0.27293616670E+02 -0.29233878464E+02  0.73214828841E+01  0.40659135168E+02  0.00000000000E+00 0. -1.
         11    1    3    3    0    0 -0.13290689501E+02 -0.21600066874E+01 -0.47562828060E+01  0.14280416054E+02  0.51100000000E-03 0. -1.
        -11    1    3    3    0    0 -0.15161453592E+02  0.23199541415E+02 -0.50041947689E+00  0.27718925246E+02  0.51100000000E-03 0.  1.
         12    1    3    3    0    0  0.11585264227E+01  0.81943437361E+01 -0.20647806012E+01  0.85295235312E+01  0.00000000000E+00 0. -1.
</event>
<event>
 7    1  0.2991278E-011  0.5052884E+02  0.7816164E-02  0.1300439E+00
        -11   -1    0    0    0    0  0.00000000000E+00  0.00000000000E+00  0.45593999997E+02  0.45594000000E+02  0.51100000000E-03 0. -1.
         11   -1    0    0    0    0 -0.00000000000E+00 -0.00000000000E+00 -0.45593999997E+02  0.45594000000E+02  0.51100000000E-03 0.  1.
    9900012    2    1    2    0    0  0.31651316491E+02  0.22197165795E+02 -0.12595522225E+02  0.50528841314E+02  0.29999943657E+02 0.  0.
         12    1    1    2    0    0 -0.31651316491E+02 -0.22197165795E+02  0.12595522225E+02  0.40659158686E+02  0.00000000000E+00 0. -1.
         11    1    3    3    0    0  0.80683734058E+01  0.95098149726E+01  0.76639416243E+01  0.14638006412E+02  0.51100000000E-03 0. -1.
        -11    1    3    3    0    0  0.22734552334E+02  0.11374851106E+02 -0.21951541442E+02  0.33587457175E+02  0.51100000000E-03 0.  1.
        -12    1    3    3    0    0  0.84839075155E+00  0.13124997166E+01  0.16920775931E+01  0.23033777273E+01  0.00000000000E+00 0.  1.
</event>
<event>
 7    1  0.2991278E-011  0.5052885E+02  0.7816164E-02  0.1300439E+00
        -11   -1    0    0    0    0  0.00000000000E+00  0.00000000000E+00  0.45593999997E+02  0.45594000000E+02  0.51100000000E-03 0. -1.
         11   -1    0    0    0    0 -0.00000000000E+00 -0.00000000000E+00 -0.45593999997E+02  0.45594000000E+02  0.51100000000E-03 0.  1.
    9900012    2    1    2    0    0 -0.59109391382E+01 -0.40198166090E+02  0.15279914575E+01  0.50528849537E+02  0.29999968652E+02 0.  0.
         12    1    1    2    0    0  0.59109391382E+01  0.40198166090E+02 -0.15279914575E+01  0.40659150463E+02  0.00000000000E+00 0. -1.
         11    1    3    3    0    0  0.85975469303E+01 -0.14560678798E+02  0.44688793962E+01  0.17490056135E+02  0.51100000000E-03 0. -1.
        -11    1    3    3    0    0 -0.91157080134E+01 -0.73518556518E+01 -0.68651277539E+01  0.13574825724E+02  0.51100000000E-03 0.  1.
        -12    1    3    3    0    0 -0.53927780552E+01 -0.18285631640E+02  0.39242398151E+01  0.19463967678E+02  0.00000000000E+00 0.  1.
</event>
<event>
 7    1  0.2991278E-011  0.5052886E+02  0.7816164E-02  0.1300439E+00
        -11   -1    0    0    0    0  0.00000000000E+00  0.00000000000E+00  0.45593999997E+02  0.45594000000E+02  0.51100000000E-03 0.  1.
         11   -1    0    0    0    0 -0.00000000000E+00 -0.00000000000E+00 -0.45593999997E+02  0.45594000000E+02  0.51100000000E-03 0. -1.
    9900012    2    1    2    0    0  0.13433823888E+02  0.25713186225E+02  0.28487368961E+02  0.50528858833E+02  0.29999996909E+02 0.  0.
         12    1    1    2    0    0 -0.13433823888E+02 -0.25713186225E+02 -0.28487368961E+02  0.40659141167E+02  0.00000000000E+00 0. -1.
         11    1    3    3    0    0  0.59808527864E+01  0.28069934035E+02  0.15852047989E+02  0.32786875766E+02  0.51100000000E-03 0. -1.
        -11    1    3    3    0    0  0.44660928831E+01 -0.19540903826E+01  0.13703203856E+02  0.14544492121E+02  0.51100000000E-03 0.  1.
         12    1    3    3    0    0  0.29868782189E+01 -0.40265742768E+00 -0.10678828836E+01  0.31974909463E+01  0.00000000000E+00 0. -1.
</event>
<event>
 7    1  0.2991278E-011  0.5052886E+02  0.7816164E-02  0.1300439E+00
        -11   -1    0    0    0    0  0.00000000000E+00  0.00000000000E+00  0.45593999997E+02  0.45594000000E+02  0.51100000000E-03 0.  1.
         11   -1    0    0    0    0 -0.00000000000E+00 -0.00000000000E+00 -0.45593999997E+02  0.45594000000E+02  0.51100000000E-03 0. -1.
    9900012    2    1    2    0    0 -0.21864910782E+01 -0.40249607674E+02 -0.53248413173E+01  0.50528860853E+02  0.30000003049E+02 0.  0.
         12    1    1    2    0    0  0.21864910782E+01  0.40249607674E+02  0.53248413173E+01  0.40659139147E+02  0.00000000000E+00 0. -1.
         11    1    3    3    0    0  0.16012713923E+01 -0.18072300227E+02  0.78706815197E+01  0.19776747291E+02  0.51100000000E-03 0. -1.
        -11    1    3    3    0    0 -0.55190832517E+01 -0.14617509889E+02 -0.16132964134E+02  0.22458949381E+02  0.51100000000E-03 0.  1.
        -12    1    3    3    0    0  0.17313207812E+01 -0.75597975569E+01  0.29374412970E+01  0.82931641804E+01  0.00000000000E+00 0.  1.
</event>
<event>
 7    1  0.2991278E-011  0.5052891E+02  0.7816164E-02  0.1300439E+00
        -11   -1    0    0    0    0  0.00000000000E+00  0.00000000000E+00  0.45593999997E+02  0.45594000000E+02  0.51100000000E-03 0.  1.
         11   -1    0    0    0    0 -0.00000000000E+00 -0.00000000000E+00 -0.45593999997E+02  0.45594000000E+02  0.51100000000E-03 0. -1.
    9900012    2    1    2    0    0 -0.28893033914E+02  0.26895799855E+02 -0.97452664198E+01  0.50528909059E+02  0.30000149574E+02 0.  0.
         12    1    1    2    0    0  0.28893033914E+02 -0.26895799855E+02  0.97452664198E+01  0.40659090941E+02  0.00000000000E+00 0. -1.
         11    1    3    3    0    0 -0.16181275370E+02  0.15516699565E+02 -0.10112933897E+02  0.24594167403E+02  0.51100000000E-03 0. -1.
        -11    1    3    3    0    0 -0.92959918384E+01  0.50962838639E+01  0.95689626348E+01  0.14281198117E+02  0.51100000000E-03 0.  1.
        -12    1    3    3    0    0 -0.34157667055E+01  0.62828164258E+01 -0.92012951575E+01  0.11653543538E+02  0.00000000000E+00 0.  1.
</event>
<event>
 7    1  0.2991278E-011  0.5052886E+02  0.7816164E-02  0.1300439E+00
        -11   -1    0    0    0    0  0.00000000000E+00  0.00000000000E+00  0.45593999997E+02  0.45594000000E+02  0.51100000000E-03 0. -1.
         11   -1    0    0    0    0 -0.00000000000E+00 -0.00000000000E+00 -0.45593999997E+02  0.45594000000E+02  0.51100000000E-03 0.  1.
    9900012    2    1    2    0    0  0.10595756368E+02 -0.42877334970E+01 -0.39019369647E+02  0.50528856881E+02  0.29999990974E+02 0.  0.
         12    1    1    2    0    0 -0.10595756368E+02  0.42877334970E+01  0.39019369647E+02  0.40659143119E+02  0.00000000000E+00 0. -1.
         11    1    3    3    0    0 -0.34644451782E+01 -0.56606459393E+01 -0.34162276407E+01  0.74643087019E+01  0.51100000000E-03 0. -1.
        -11    1    3    3    0    0  0.17936481905E+02 -0.26473446473E+01 -0.30592427815E+02  0.35561530573E+02  0.51100000000E-03 0.  1.
        -12    1    3    3    0    0 -0.38762803586E+01  0.40202570897E+01 -0.50107141917E+01  0.75030176060E+01  0.00000000000E+00 0.  1.
</event>
<event>
 7    1  0.2991278E-011  0.5052886E+02  0.7816164E-02  0.1300439E+00
        -11   -1    0    0    0    0  0.00000000000E+00  0.00000000000E+00  0.45593999997E+02  0.45594000000E+02  0.51100000000E-03 0.  1.
         11   -1    0    0    0    0 -0.00000000000E+00 -0.00000000000E+00 -0.45593999997E+02  0.45594000000E+02  0.51100000000E-03 0. -1.
    9900012    2    1    2    0    0 -0.32920257583E+01  0.13160854611E+02  0.38329100809E+02  0.50528862079E+02  0.30000006774E+02 0.  0.
         12    1    1    2    0    0  0.32920257583E+01 -0.13160854611E+02 -0.38329100809E+02  0.40659137921E+02  0.00000000000E+00 0. -1.
         11    1    3    3    0    0 -0.22968417183E+00  0.16923570766E+02  0.13723550204E+02  0.21789810296E+02  0.51100000000E-03 0. -1.
        -11    1    3    3    0    0 -0.77939469729E+01  0.12466218608E+01  0.11784029790E+02  0.14183195473E+02  0.51100000000E-03 0.  1.
         12    1    3    3    0    0  0.47316053864E+01 -0.50093380153E+01  0.12821520815E+02  0.14555856309E+02  0.00000000000E+00 0. -1.
</event>
<event>
 7    1  0.2991278E-011  0.5052886E+02  0.7816164E-02  0.1300439E+00
        -11   -1    0    0    0    0  0.00000000000E+00  0.00000000000E+00  0.45593999997E+02  0.45594000000E+02  0.51100000000E-03 0.  1.
         11   -1    0    0    0    0 -0.00000000000E+00 -0.00000000000E+00 -0.45593999997E+02  0.45594000000E+02  0.51100000000E-03 0. -1.
    9900012    2    1    2    0    0 -0.95416454211E+01  0.37793543110E+02  0.11565942807E+02  0.50528856733E+02  0.29999990527E+02 0.  0.
         12    1    1    2    0    0  0.95416454211E+01 -0.37793543110E+02 -0.11565942807E+02  0.40659143267E+02  0.00000000000E+00 0. -1.
         11    1    3    3    0    0 -0.56955684638E+01  0.37344742936E+01  0.68700508113E+01  0.96738511869E+01  0.51100000000E-03 0. -1.
        -11    1    3    3    0    0  0.61889011828E+01  0.26049286413E+02 -0.10350428824E+01  0.26794386250E+02  0.51100000000E-03 0.  1.
        -12    1    3    3    0    0 -0.10034978140E+02  0.80097824032E+01  0.57309348777E+01  0.14060619296E+02  0.00000000000E+00 0.  1.
</event>
<event>
 7    1  0.2991278E-011  0.5052886E+02  0.7816164E-02  0.1300439E+00
        -11   -1    0    0    0    0  0.00000000000E+00  0.00000000000E+00  0.45593999997E+02  0.45594000000E+02  0.51100000000E-03 0.  1.
         11   -1    0    0    0    0 -0.00000000000E+00 -0.00000000000E+00 -0.45593999997E+02  0.45594000000E+02  0.51100000000E-03 0. -1.
    9900012    2    1    2    0    0 -0.34534893913E+02 -0.54125642136E+01  0.20765618129E+02  0.50528860250E+02  0.30000001216E+02 0.  0.
         12    1    1    2    0    0  0.34534893913E+02  0.54125642136E+01 -0.20765618129E+02  0.40659139750E+02  0.00000000000E+00 0. -1.
         11    1    3    3    0    0 -0.45479461393E+01  0.57934204959E+01 -0.48440435191E+01  0.88154576174E+01  0.51100000000E-03 0. -1.
        -11    1    3    3    0    0 -0.12049271234E+02 -0.85829996640E+01  0.11170179101E+02  0.18537144384E+02  0.51100000000E-03 0.  1.
         12    1    3    3    0    0 -0.17937676540E+02 -0.26229850455E+01  0.14439482547E+02  0.23176258249E+02  0.00000000000E+00 0. -1.
</event>
<event>
 7    1  0.2991278E-011  0.5052883E+02  0.7816164E-02  0.1300439E+00
        -11   -1    0    0    0    0  0.00000000000E+00  0.00000000000E+00  0.45593999997E+02  0.45594000000E+02  0.51100000000E-03 0.  1.
         11   -1    0    0    0    0 -0.00000000000E+00 -0.00000000000E+00 -0.45593999997E+02  0.45594000000E+02  0.51100000000E-03 0. -1.
    9900012    2    1    2    0    0  0.85490334274E+01  0.39671222207E+02  0.25051891114E+01  0.50528833550E+02  0.29999920057E+02 0.  0.
         12    1    1    2    0    0 -0.85490334274E+01 -0.39671222207E+02 -0.25051891114E+01  0.40659166450E+02  0.00000000000E+00 0. -1.
         11    1    3    3    0    0 -0.65736410136E+01  0.50520413967E+01 -0.56913308485E+01  0.10056198364E+02  0.51100000000E-03 0. -1.
        -11    1    3    3    0    0  0.69680092719E+01  0.25223522649E+02  0.11921123673E+01  0.26195426704E+02  0.51100000000E-03 0.  1.
        -12    1    3    3    0    0  0.81546651691E+01  0.93956581616E+01  0.70044075926E+01  0.14277208482E+02  0.00000000000E+00 0.  1.
</event>
<event>
 7    1  0.2991278E-011  0.5052886E+02  0.7816164E-02  0.1300439E+00
        -11   -1    0    0    0    0  0.00000000000E+00  0.00000000000E+00  0.45593999997E+02  0.45594000000E+02  0.51100000000E-03 0. -1.
         11   -1    0    0    0    0 -0.00000000000E+00 -0.00000000000E+00 -0.45593999997E+02  0.45594000000E+02  0.51100000000E-03 0.  1.
    9900012    2    1    2    0    0 -0.12153855616E+02  0.37942921266E+02  0.81107388328E+01  0.50528861237E+02  0.30000004216E+02 0.  0.
         12    1    1    2    0    0  0.12153855616E+02 -0.37942921266E+02 -0.81107388328E+01  0.40659138763E+02  0.00000000000E+00 0. -1.
         11    1    3    3    0    0  0.12245478470E+01  0.42458952115E+01 -0.42463982810E+01  0.61285432363E+01  0.51100000000E-03 0. -1.
        -11    1    3    3    0    0 -0.19247977574E+02  0.20066795797E+02  0.80479817859E+01  0.28947036900E+02  0.51100000000E-03 0.  1.
        -12    1    3    3    0    0  0.58695741110E+01  0.13630230258E+02  0.43091553280E+01  0.15453281100E+02  0.00000000000E+00 0.  1.
</event>
<event>
 7    1  0.2991278E-011  0.5052886E+02  0.7816164E-02  0.1300439E+00
        -11   -1    0    0    0    0  0.00000000000E+00  0.00000000000E+00  0.45593999997E+02  0.45594000000E+02  0.51100000000E-03 0.  1.
         11   -1    0    0    0    0 -0.00000000000E+00 -0.00000000000E+00 -0.45593999997E+02  0.45594000000E+02  0.51100000000E-03 0. -1.
    9900012    2    1    2    0    0 -0.31243149008E+01 -0.19962209754E+02  0.35283344396E+02  0.50528861376E+02  0.30000004639E+02 0.  0.
         12    1    1    2    0    0  0.31243149008E+01  0.19962209754E+02 -0.35283344396E+02  0.40659138624E+02  0.00000000000E+00 0. -1.
         11    1    3    3    0    0 -0.64896819489E+00 -0.70483530107E+00 -0.34705614142E+01  0.36003818284E+01  0.51100000000E-03 0. -1.
        -11    1    3    3    0    0  0.47320836661E+01 -0.15081832200E+02  0.33602485908E+02  0.37134637979E+02  0.51100000000E-03 0.  1.
        -12    1    3    3    0    0 -0.72074303720E+01 -0.41755422528E+01  0.51514199022E+01  0.97938415691E+01  0.00000000000E+00 0.  1.
</event>
<event>
 7    1  0.2991278E-011  0.5052886E+02  0.7816164E-02  0.1300439E+00
        -11   -1    0    0    0    0  0.00000000000E+00  0.00000000000E+00  0.45593999997E+02  0.45594000000E+02  0.51100000000E-03 0.  1.
         11   -1    0    0    0    0 -0.00000000000E+00 -0.00000000000E+00 -0.45593999997E+02  0.45594000000E+02  0.51100000000E-03 0. -1.
    9900012    2    1    2    0    0  0.26937045398E+02 -0.26583593829E+02  0.14861819698E+02  0.50528861293E+02  0.30000004387E+02 0.  0.
         12    1    1    2    0    0 -0.26937045398E+02  0.26583593829E+02 -0.14861819698E+02  0.40659138707E+02  0.00000000000E+00 0. -1.
         11    1    3    3    0    0 -0.17911102054E+01 -0.91715925933E+01  0.33030023877E+01  0.99114081492E+01  0.51100000000E-03 0. -1.
        -11    1    3    3    0    0  0.22876039181E+02 -0.17144304782E+02  0.16452901034E+02  0.32983909831E+02  0.51100000000E-03 0.  1.
        -12    1    3    3    0    0  0.58521164220E+01 -0.26769645442E+00 -0.48940837242E+01  0.76335433127E+01  0.00000000000E+00 0.  1.
</event>
<event>
 7    1  0.2991278E-011  0.5052886E+02  0.7816164E-02  0.1300439E+00
        -11   -1    0    0    0    0  0.00000000000E+00  0.00000000000E+00  0.45593999997E+02  0.45594000000E+02  0.51100000000E-03 0. -1.
         11   -1    0    0    0    0 -0.00000000000E+00 -0.00000000000E+00 -0.45593999997E+02  0.45594000000E+02  0.51100000000E-03 0.  1.
    9900012    2    1    2    0    0  0.31962347621E+02  0.24978475124E+02  0.27658425591E+01  0.50528858715E+02  0.29999996550E+02 0.  0.
         12    1    1    2    0    0 -0.31962347621E+02 -0.24978475124E+02 -0.27658425591E+01  0.40659141285E+02  0.00000000000E+00 0. -1.
         11    1    3    3    0    0  0.13547590324E+02  0.53788697200E+01 -0.10568543788E+02  0.18004542791E+02  0.51100000000E-03 0. -1.
        -11    1    3    3    0    0  0.20332168714E+02  0.18008482703E+02  0.11942491388E+02  0.29670282012E+02  0.51100000000E-03 0.  1.
         12    1    3    3    0    0 -0.19174114166E+01  0.15911227006E+01  0.13918949594E+01  0.28540339113E+01  0.00000000000E+00 0. -1.
</event>
<event>
 7    1  0.2991278E-011  0.5052883E+02  0.7816164E-02  0.1300439E+00
        -11   -1    0    0    0    0  0.00000000000E+00  0.00000000000E+00  0.45593999997E+02  0.45594000000E+02  0.51100000000E-03 0.  1.
         11   -1    0    0    0    0 -0.00000000000E+00 -0.00000000000E+00 -0.45593999997E+02  0.45594000000E+02  0.51100000000E-03 0. -1.
    9900012    2    1    2    0    0 -0.18764488878E+01 -0.14725065282E+02  0.37852598631E+02  0.50528833369E+02  0.29999919509E+02 0.  0.
         12    1    1    2    0    0  0.18764488878E+01  0.14725065282E+02 -0.37852598631E+02  0.40659166631E+02  0.00000000000E+00 0. -1.
         11    1    3    3    0    0  0.46805407973E+01 -0.97092303887E+00  0.75086570336E+01  0.89011282662E+01  0.51100000000E-03 0. -1.
        -11    1    3    3    0    0 -0.12541334855E+02 -0.21545734343E+01  0.61404462996E+01  0.14129131171E+02  0.51100000000E-03 0.  1.
        -12    1    3    3    0    0  0.59843451698E+01 -0.11599568809E+02  0.24203495298E+02  0.27498573932E+02  0.00000000000E+00 0.  1.
</event>
<event>
 7    1  0.2991278E-011  0.5052885E+02  0.7816164E-02  0.1300439E+00
        -11   -1    0    0    0    0  0.00000000000E+00  0.00000000000E+00  0.45593999997E+02  0.45594000000E+02  0.51100000000E-03 0.  1.
         11   -1    0    0    0    0 -0.00000000000E+00 -0.00000000000E+00 -0.45593999997E+02  0.45594000000E+02  0.51100000000E-03 0. -1.
    9900012    2    1    2    0    0  0.29457897757E+02  0.80647303882E+01  0.26839498872E+02  0.50528851999E+02  0.29999976135E+02 0.  0.
         12    1    1    2    0    0 -0.29457897757E+02 -0.80647303882E+01 -0.26839498872E+02  0.40659148001E+02  0.00000000000E+00 0. -1.
         11    1    3    3    0    0  0.13085868110E+02 -0.29348009687E+01  0.25130718950E+02  0.28485189768E+02  0.51100000000E-03 0.  1.
        -11    1    3    3    0    0  0.84248876895E+01  0.27714405008E+01 -0.34221066961E+01  0.95063362833E+01  0.51100000000E-03 0. -1.
        -12    1    3    3    0    0  0.79471419575E+01  0.82280908561E+01  0.51308866183E+01  0.12537325948E+02  0.00000000000E+00 0.  1.
</event>
<event>
 7    1  0.2991278E-011  0.5052883E+02  0.7816164E-02  0.1300439E+00
        -11   -1    0    0    0    0  0.00000000000E+00  0.00000000000E+00  0.45593999997E+02  0.45594000000E+02  0.51100000000E-03 0. -1.
         11   -1    0    0    0    0 -0.00000000000E+00 -0.00000000000E+00 -0.45593999997E+02  0.45594000000E+02  0.51100000000E-03 0.  1.
    9900012    2    1    2    0    0 -0.14397017922E+01  0.14370379667E+02 -0.38007728181E+02  0.50528831852E+02  0.29999914898E+02 0.  0.
         12    1    1    2    0    0  0.14397017922E+01 -0.14370379667E+02  0.38007728181E+02  0.40659168148E+02  0.00000000000E+00 0. -1.
         11    1    3    3    0    0 -0.21655060165E+01  0.32750990043E+01 -0.12931181617E+02  0.13514109222E+02  0.51100000000E-03 0.  1.
        -11    1    3    3    0    0  0.73145761947E+01 -0.15554717885E+01  0.74532728876E+00  0.75151866525E+01  0.51100000000E-03 0. -1.
        -12    1    3    3    0    0 -0.65887719705E+01  0.12650752451E+02 -0.25821873852E+02  0.29499535977E+02  0.00000000000E+00 0.  1.
</event>
<event>
 7    1  0.2991278E-011  0.5052888E+02  0.7816164E-02  0.1300439E+00
        -11   -1    0    0    0    0  0.00000000000E+00  0.00000000000E+00  0.45593999997E+02  0.45594000000E+02  0.51100000000E-03 0.  1.
         11   -1    0    0    0    0 -0.00000000000E+00 -0.00000000000E+00 -0.45593999997E+02  0.45594000000E+02  0.51100000000E-03 0. -1.
    9900012    2    1    2    0    0  0.66087281100E+01 -0.37167971509E+02  0.15100695728E+02  0.50528875504E+02  0.30000047583E+02 0.  0.
         12    1    1    2    0    0 -0.66087281100E+01  0.37167971509E+02 -0.15100695728E+02  0.40659124496E+02  0.00000000000E+00 0. -1.
         11    1    3    3    0    0 -0.73527017939E+01 -0.92823359149E+01  0.12172986893E+01  0.11904024532E+02  0.51100000000E-03 0.  1.
        -11    1    3    3    0    0  0.74376448272E+01 -0.19392183090E+02  0.17666232746E+02  0.27266666559E+02  0.51100000000E-03 0. -1.
         12    1    3    3    0    0  0.65237850767E+01 -0.84934525041E+01 -0.37828357074E+01  0.11358184413E+02  0.00000000000E+00 0. -1.
</event>
<event>
 7    1  0.2991278E-011  0.5052886E+02  0.7816164E-02  0.1300439E+00
        -11   -1    0    0    0    0  0.00000000000E+00  0.00000000000E+00  0.45593999997E+02  0.45594000000E+02  0.51100000000E-03 0.  1.
         11   -1    0    0    0    0 -0.00000000000E+00 -0.00000000000E+00 -0.45593999997E+02  0.45594000000E+02  0.51100000000E-03 0. -1.
    9900012    2    1    2    0    0  0.26432633832E+02 -0.84235371793E+01  0.29724157978E+02  0.50528859854E+02  0.30000000012E+02 0.  0.
         12    1    1    2    0    0 -0.26432633832E+02  0.84235371793E+01 -0.29724157978E+02  0.40659140146E+02  0.00000000000E+00 0. -1.
         11    1    3    3    0    0  0.27174349483E+01 -0.28741093912E+01  0.10962666033E+01  0.41044802615E+01  0.51100000000E-03 0. -1.
        -11    1    3    3    0    0  0.17314785463E+02 -0.16417330919E+02  0.17309867664E+02  0.29478162577E+02  0.51100000000E-03 0.  1.
        -12    1    3    3    0    0  0.64004134207E+01  0.10867903130E+02  0.11318023711E+02  0.16946217016E+02  0.00000000000E+00 0.  1.
</event>
<event>
 7    1  0.2991278E-011  0.5052886E+02  0.7816164E-02  0.1300439E+00
        -11   -1    0    0    0    0  0.00000000000E+00  0.00000000000E+00  0.45593999997E+02  0.45594000000E+02  0.51100000000E-03 0.  1.
         11   -1    0    0    0    0 -0.00000000000E+00 -0.00000000000E+00 -0.45593999997E+02  0.45594000000E+02  0.51100000000E-03 0. -1.
    9900012    2    1    2    0    0  0.63463758473E+01 -0.24327546923E+02  0.31954019092E+02  0.50528863736E+02  0.30000011811E+02 0.  0.
         12    1    1    2    0    0 -0.63463758473E+01  0.24327546923E+02 -0.31954019092E+02  0.40659136264E+02  0.00000000000E+00 0. -1.
         11    1    3    3    0    0  0.67394651445E+01  0.36776227306E+01  0.11931282680E+02  0.14188051523E+02  0.51100000000E-03 0.  1.
        -11    1    3    3    0    0  0.13119866425E+01 -0.15029482373E+02  0.39143868939E+01  0.15586182162E+02  0.51100000000E-03 0. -1.
         12    1    3    3    0    0 -0.17050759398E+01 -0.12975687280E+02  0.16108349518E+02  0.20754630051E+02  0.00000000000E+00 0. -1.
</event>
<event>
 7    1  0.2991278E-011  0.5052886E+02  0.7816164E-02  0.1300439E+00
        -11   -1    0    0    0    0  0.00000000000E+00  0.00000000000E+00  0.45593999997E+02  0.45594000000E+02  0.51100000000E-03 0.  1.
         11   -1    0    0    0    0 -0.00000000000E+00 -0.00000000000E+00 -0.45593999997E+02  0.45594000000E+02  0.51100000000E-03 0. -1.
    9900012    2    1    2    0    0 -0.20667451361E+02  0.33288308608E+02 -0.10858666017E+02  0.50528860026E+02  0.30000000536E+02 0.  0.
         12    1    1    2    0    0  0.20667451361E+02 -0.33288308608E+02  0.10858666017E+02  0.40659139974E+02  0.00000000000E+00 0. -1.
         11    1    3    3    0    0 -0.21429564260E+01  0.13148536323E+02 -0.65253435173E+01  0.14834297353E+02  0.51100000000E-03 0. -1.
        -11    1    3    3    0    0 -0.10186819725E+02  0.11115732251E+02  0.90034972904E+01  0.17561143565E+02  0.51100000000E-03 0.  1.
        -12    1    3    3    0    0 -0.83376752092E+01  0.90240400339E+01 -0.13336819791E+02  0.18133419108E+02  0.00000000000E+00 0.  1.
</event>
<event>
 7    1  0.2991278E-011  0.5052886E+02  0.7816164E-02  0.1300439E+00
        -11   -1    0    0    0    0  0.00000000000E+00  0.00000000000E+00  0.45593999997E+02  0.45594000000E+02  0.51100000000E-03 0. -1.
         11   -1    0    0    0    0 -0.00000000000E+00 -0.00000000000E+00 -0.45593999997E+02  0.45594000000E+02  0.51100000000E-03 0.  1.
    9900012    2    1    2    0    0 -0.32311569422E+02 -0.67293299529E+01 -0.23745400754E+02  0.50528862563E+02  0.30000008248E+02 0.  0.
         12    1    1    2    0    0  0.32311569422E+02  0.67293299529E+01  0.23745400754E+02  0.40659137437E+02  0.00000000000E+00 0. -1.
         11    1    3    3    0    0 -0.18211996279E+02 -0.55605634666E+01 -0.49936452578E+01  0.19685862129E+02  0.51100000000E-03 0. -1.
        -11    1    3    3    0    0 -0.96554452709E+01 -0.46312814511E+01 -0.21908129615E+02  0.24385293411E+02  0.51100000000E-03 0.  1.
        -12    1    3    3    0    0 -0.44441278719E+01  0.34625149648E+01  0.31563741189E+01  0.64577070235E+01  0.00000000000E+00 0.  1.
</event>
<event>
 7    1  0.2991278E-011  0.5052886E+02  0.7816164E-02  0.1300439E+00
        -11   -1    0    0    0    0  0.00000000000E+00  0.00000000000E+00  0.45593999997E+02  0.45594000000E+02  0.51100000000E-03 0. -1.
         11   -1    0    0    0    0 -0.00000000000E+00 -0.00000000000E+00 -0.45593999997E+02  0.45594000000E+02  0.51100000000E-03 0.  1.
    9900012    2    1    2    0    0 -0.35645515892E+01  0.22882305723E+02 -0.33419453504E+02  0.50528858153E+02  0.29999994842E+02 0.  0.
         12    1    1    2    0    0  0.35645515892E+01 -0.22882305723E+02  0.33419453504E+02  0.40659141847E+02  0.00000000000E+00 0. -1.
         11    1    3    3    0    0 -0.62075100583E+01  0.19159369183E+02 -0.84924845432E+01  0.21857193384E+02  0.51100000000E-03 0.  1.
        -11    1    3    3    0    0 -0.15828043416E+01 -0.34562114321E+01 -0.16066288300E+02  0.16509884526E+02  0.51100000000E-03 0. -1.
        -12    1    3    3    0    0  0.42257628107E+01  0.71791479715E+01 -0.88606806601E+01  0.12161780243E+02  0.00000000000E+00 0.  1.
</event>
<event>
 7    1  0.2991278E-011  0.5052884E+02  0.7816164E-02  0.1300439E+00
        -11   -1    0    0    0    0  0.00000000000E+00  0.00000000000E+00  0.45593999997E+02  0.45594000000E+02  0.51100000000E-03 0.  1.
         11   -1    0    0    0    0 -0.00000000000E+00 -0.00000000000E+00 -0.45593999997E+02  0.45594000000E+02  0.51100000000E-03 0. -1.
    9900012    2    1    2    0    0 -0.31466375399E+02  0.11644214586E+02  0.22966202311E+02  0.50528844049E+02  0.29999951970E+02 0.  0.
         12    1    1    2    0    0  0.31466375399E+02 -0.11644214586E+02 -0.22966202311E+02  0.40659155951E+02  0.00000000000E+00 0. -1.
         11    1    3    3    0    0 -0.65909384834E+01  0.11843045068E+02  0.11924755168E+01  0.13605887868E+02  0.51100000000E-03 0. -1.
        -11    1    3    3    0    0 -0.25400965592E+02 -0.42193127201E+01  0.18389198011E+02  0.31641337781E+02  0.51100000000E-03 0.  1.
        -12    1    3    3    0    0  0.52552867702E+00  0.40204822386E+01  0.33845287840E+01  0.52816183988E+01  0.00000000000E+00 0.  1.
</event>
<event>
 7    1  0.2991278E-011  0.5052886E+02  0.7816164E-02  0.1300439E+00
        -11   -1    0    0    0    0  0.00000000000E+00  0.00000000000E+00  0.45593999997E+02  0.45594000000E+02  0.51100000000E-03 0.  1.
         11   -1    0    0    0    0 -0.00000000000E+00 -0.00000000000E+00 -0.45593999997E+02  0.45594000000E+02  0.51100000000E-03 0. -1.
    9900012    2    1    2    0    0 -0.35210513502E+01  0.17736940159E+01  0.40467545698E+02  0.50528855298E+02  0.29999986163E+02 0.  0.
         12    1    1    2    0    0  0.35210513502E+01 -0.17736940159E+01 -0.40467545698E+02  0.40659144702E+02  0.00000000000E+00 0. -1.
         11    1    3    3    0    0 -0.43435804148E+01 -0.19522210166E+00  0.15483428259E+01  0.46154272020E+01  0.51100000000E-03 0. -1.
        -11    1    3    3    0    0 -0.44997837534E+01 -0.69344920601E+01  0.32895597150E+02  0.33918365911E+02  0.51100000000E-03 0.  1.
        -12    1    3    3    0    0  0.53223128181E+01  0.89034081776E+01  0.60236057220E+01  0.11995062184E+02  0.00000000000E+00 0.  1.
</event>
<event>
 7    1  0.2991278E-011  0.5052886E+02  0.7816164E-02  0.1300439E+00
        -11   -1    0    0    0    0  0.00000000000E+00  0.00000000000E+00  0.45593999997E+02  0.45594000000E+02  0.51100000000E-03 0.  1.
         11   -1    0    0    0    0 -0.00000000000E+00 -0.00000000000E+00 -0.45593999997E+02  0.45594000000E+02  0.51100000000E-03 0. -1.
    9900012    2    1    2    0    0 -0.38847227080E+02  0.95246330903E+01  0.73034348323E+01  0.50528857761E+02  0.29999993649E+02 0.  0.
         12    1    1    2    0    0  0.38847227080E+02 -0.95246330903E+01 -0.73034348323E+01  0.40659142239E+02  0.00000000000E+00 0. -1.
         11    1    3    3    0    0 -0.14052984064E+02  0.16761904147E+01  0.11887882751E+02  0.18482903775E+02  0.51100000000E-03 0. -1.
        -11    1    3    3    0    0 -0.12874435807E+02  0.11547381032E+02 -0.80748138826E+01  0.19086532570E+02  0.51100000000E-03 0.  1.
        -12    1    3    3    0    0 -0.11919807209E+02 -0.36989383563E+01  0.34903659643E+01  0.12959421416E+02  0.00000000000E+00 0.  1.
</event>
<event>
 7    1  0.2991278E-011  0.5052886E+02  0.7816164E-02  0.1300439E+00
        -11   -1    0    0    0    0  0.00000000000E+00  0.00000000000E+00  0.45593999997E+02  0.45594000000E+02  0.51100000000E-03 0.  1.
         11   -1    0    0    0    0 -0.00000000000E+00 -0.00000000000E+00 -0.45593999997E+02  0.45594000000E+02  0.51100000000E-03 0. -1.
    9900012    2    1    2    0    0  0.11991404305E+02  0.17586309700E+02  0.34642372804E+02  0.50528855155E+02  0.29999985728E+02 0.  0.
         12    1    1    2    0    0 -0.11991404305E+02 -0.17586309700E+02 -0.34642372804E+02  0.40659144845E+02  0.00000000000E+00 0. -1.
         11    1    3    3    0    0  0.86065390663E+01  0.16224697979E+02  0.23528962156E+02  0.29848373483E+02  0.51100000000E-03 0.  1.
        -11    1    3    3    0    0  0.10203635107E+02 -0.92677792563E+00  0.63590543145E+01  0.12058634199E+02  0.51100000000E-03 0. -1.
        -12    1    3    3    0    0 -0.68187698678E+01  0.22883896462E+01  0.47543563339E+01  0.86218474721E+01  0.00000000000E+00 0.  1.
</event>
<event>
 7    1  0.2991278E-011  0.5052886E+02  0.7816164E-02  0.1300439E+00
        -11   -1    0    0    0    0  0.00000000000E+00  0.00000000000E+00  0.45593999997E+02  0.45594000000E+02  0.51100000000E-03 0.  1.
         11   -1    0    0    0    0 -0.00000000000E+00 -0.00000000000E+00 -0.45593999997E+02  0.45594000000E+02  0.51100000000E-03 0. -1.
    9900012    2    1    2    0    0 -0.13806531723E+02  0.38107324610E+02  0.32214010192E+01  0.50528856727E+02  0.29999990508E+02 0.  0.
         12    1    1    2    0    0  0.13806531723E+02 -0.38107324610E+02 -0.32214010192E+01  0.40659143273E+02  0.00000000000E+00 0. -1.
         11    1    3    3    0    0  0.92949429183E+00  0.28130808911E+01  0.31624555387E+01  0.43334177082E+01  0.51100000000E-03 0.  1.
        -11    1    3    3    0    0  0.73362608365E-01  0.78870211857E+01 -0.10650959672E+02  0.13253430781E+02  0.51100000000E-03 0. -1.
        -12    1    3    3    0    0 -0.14809388623E+02  0.27407222533E+02  0.10709905153E+02  0.32942008238E+02  0.00000000000E+00 0.  1.
</event>
<event>
 7    1  0.2991278E-011  0.5052885E+02  0.7816164E-02  0.1300439E+00
        -11   -1    0    0    0    0  0.00000000000E+00  0.00000000000E+00  0.45593999997E+02  0.45594000000E+02  0.51100000000E-03 0.  1.
         11   -1    0    0    0    0 -0.00000000000E+00 -0.00000000000E+00 -0.45593999997E+02  0.45594000000E+02  0.51100000000E-03 0. -1.
    9900012    2    1    2    0    0 -0.34776794163E+02 -0.13294609030E+02  0.16339953896E+02  0.50528854229E+02  0.29999982915E+02 0.  0.
         12    1    1    2    0    0  0.34776794163E+02  0.13294609030E+02 -0.16339953896E+02  0.40659145771E+02  0.00000000000E+00 0. -1.
         11    1    3    3    0    0 -0.57131382585E+01 -0.10869821714E+02 -0.31919339933E+01  0.12687845197E+02  0.51100000000E-03 0. -1.
        -11    1    3    3    0    0 -0.14873630861E+02  0.12384123906E+01  0.17572461788E+02  0.23055367570E+02  0.51100000000E-03 0.  1.
        -12    1    3    3    0    0 -0.14190025043E+02 -0.36631997069E+01  0.19594261014E+01  0.14785641462E+02  0.00000000000E+00 0.  1.
</event>
<event>
 7    1  0.2991278E-011  0.5052887E+02  0.7816164E-02  0.1300439E+00
        -11   -1    0    0    0    0  0.00000000000E+00  0.00000000000E+00  0.45593999997E+02  0.45594000000E+02  0.51100000000E-03 0.  1.
         11   -1    0    0    0    0 -0.00000000000E+00 -0.00000000000E+00 -0.45593999997E+02  0.45594000000E+02  0.51100000000E-03 0. -1.
    9900012    2    1    2    0    0  0.10305428151E+02 -0.88638483555E+01  0.38319647660E+02  0.50528867523E+02  0.30000023322E+02 0.  0.
         12    1    1    2    0    0 -0.10305428151E+02  0.88638483555E+01 -0.38319647660E+02  0.40659132477E+02  0.00000000000E+00 0. -1.
         11    1    3    3    0    0 -0.68298429304E+01 -0.15318411684E+01 -0.28998963983E+00  0.70055253958E+01  0.51100000000E-03 0. -1.
        -11    1    3    3    0    0  0.12366267122E+02 -0.63356433212E+01  0.20466631703E+02  0.24737581781E+02  0.51100000000E-03 0.  1.
         12    1    3    3    0    0  0.47690039592E+01 -0.99636386595E+00  0.18143005596E+02  0.18785760346E+02  0.00000000000E+00 0. -1.
</event>
<event>
 7    1  0.2991278E-011  0.5052884E+02  0.7816164E-02  0.1300439E+00
        -11   -1    0    0    0    0  0.00000000000E+00  0.00000000000E+00  0.45593999997E+02  0.45594000000E+02  0.51100000000E-03 0. -1.
         11   -1    0    0    0    0 -0.00000000000E+00 -0.00000000000E+00 -0.45593999997E+02  0.45594000000E+02  0.51100000000E-03 0.  1.
    9900012    2    1    2    0    0 -0.11622815788E+02 -0.31491357328E+02 -0.22942789494E+02  0.50528843307E+02  0.29999949715E+02 0.  0.
         12    1    1    2    0    0  0.11622815788E+02  0.31491357328E+02  0.22942789494E+02  0.40659156693E+02  0.00000000000E+00 0. -1.
         11    1    3    3    0    0  0.19948732201E+01  0.35438525415E+01  0.13533892591E+01  0.42860322850E+01  0.51100000000E-03 0. -1.
        -11    1    3    3    0    0 -0.43942803329E+01 -0.26194103688E+02 -0.15932506246E+02  0.30972334804E+02  0.51100000000E-03 0.  1.
        -12    1    3    3    0    0 -0.92234086754E+01 -0.88411061818E+01 -0.83636725077E+01  0.15270476218E+02  0.00000000000E+00 0.  1.
</event>
<event>
 7    1  0.2991278E-011  0.5052885E+02  0.7816164E-02  0.1300439E+00
        -11   -1    0    0    0    0  0.00000000000E+00  0.00000000000E+00  0.45593999997E+02  0.45594000000E+02  0.51100000000E-03 0. -1.
         11   -1    0    0    0    0 -0.00000000000E+00 -0.00000000000E+00 -0.45593999997E+02  0.45594000000E+02  0.51100000000E-03 0.  1.
    9900012    2    1    2    0    0 -0.34599694136E+02  0.18400693688E+02 -0.10837055501E+02  0.50528854233E+02  0.29999982927E+02 0.  0.
         12    1    1    2    0    0  0.34599694136E+02 -0.18400693688E+02  0.10837055501E+02  0.40659145767E+02  0.00000000000E+00 0. -1.
         11    1    3    3    0    0 -0.34995447470E+02  0.15001513652E+02 -0.13613319935E+01  0.38099606042E+02  0.51100000000E-03 0.  1.
        -11    1    3    3    0    0  0.36429973082E+00 -0.71965321685E+00  0.93409290453E+00  0.12341575515E+01  0.51100000000E-03 0. -1.
         12    1    3    3    0    0  0.31453602676E-01  0.41188332531E+01 -0.10409816412E+02  0.11195090640E+02  0.00000000000E+00 0. -1.
</event>
<event>
 7    1  0.2991278E-011  0.5052884E+02  0.7816164E-02  0.1300439E+00
        -11   -1    0    0    0    0  0.00000000000E+00  0.00000000000E+00  0.45593999997E+02  0.45594000000E+02  0.51100000000E-03 0. -1.
         11   -1    0    0    0    0 -0.00000000000E+00 -0.00000000000E+00 -0.45593999997E+02  0.45594000000E+02  0.51100000000E-03 0.  1.
    9900012    2    1    2    0    0  0.24116352887E+02  0.15580840646E+02 -0.28788988697E+02  0.50528844303E+02  0.29999952742E+02 0.  0.
         12    1    1    2    0    0 -0.24116352887E+02 -0.15580840646E+02  0.28788988697E+02  0.40659155697E+02  0.00000000000E+00 0. -1.
         11    1    3    3    0    0  0.11616050297E+02  0.87886010745E+01  0.34413949957E+01  0.14967141782E+02  0.51100000000E-03 0. -1.
        -11    1    3    3    0    0  0.99738945721E+01  0.62745622919E+01 -0.29685087119E+02  0.31938270185E+02  0.51100000000E-03 0.  1.
         12    1    3    3    0    0  0.25264080176E+01  0.51767727989E+00 -0.25452965740E+01  0.36234323352E+01  0.00000000000E+00 0. -1.
</event>
<event>
 7    1  0.2991278E-011  0.5052886E+02  0.7816164E-02  0.1300439E+00
        -11   -1    0    0    0    0  0.00000000000E+00  0.00000000000E+00  0.45593999997E+02  0.45594000000E+02  0.51100000000E-03 0. -1.
         11   -1    0    0    0    0 -0.00000000000E+00 -0.00000000000E+00 -0.45593999997E+02  0.45594000000E+02  0.51100000000E-03 0.  1.
    9900012    2    1    2    0    0  0.40171124393E+02  0.57131417140E+01 -0.26088874786E+01  0.50528861825E+02  0.30000006003E+02 0.  0.
         12    1    1    2    0    0 -0.40171124393E+02 -0.57131417140E+01  0.26088874786E+01  0.40659138175E+02  0.00000000000E+00 0. -1.
         11    1    3    3    0    0  0.58167819378E+01  0.16332241432E+01 -0.69407846438E+01  0.92020033116E+01  0.51100000000E-03 0. -1.
        -11    1    3    3    0    0  0.36180793525E+02  0.54042633041E+01  0.75925703758E+01  0.37361785385E+02  0.51100000000E-03 0.  1.
        -12    1    3    3    0    0 -0.18264510692E+01 -0.13243457333E+01 -0.32606732106E+01  0.39650731287E+01  0.00000000000E+00 0.  1.
</event>
<event>
 7    1  0.2991278E-011  0.5052885E+02  0.7816164E-02  0.1300439E+00
        -11   -1    0    0    0    0  0.00000000000E+00  0.00000000000E+00  0.45593999997E+02  0.45594000000E+02  0.51100000000E-03 0.  1.
         11   -1    0    0    0    0 -0.00000000000E+00 -0.00000000000E+00 -0.45593999997E+02  0.45594000000E+02  0.51100000000E-03 0. -1.
    9900012    2    1    2    0    0 -0.16710893702E+01 -0.27143858928E+01  0.40534008435E+02  0.50528852564E+02  0.29999977853E+02 0.  0.
         12    1    1    2    0    0  0.16710893702E+01  0.27143858928E+01 -0.40534008435E+02  0.40659147436E+02  0.00000000000E+00 0. -1.
         11    1    3    3    0    0  0.49198366896E+01  0.93493579989E+01  0.48273870845E+01  0.11615461866E+02  0.51100000000E-03 0. -1.
        -11    1    3    3    0    0 -0.60003000868E+01 -0.46903741625E+01  0.13409729934E+02  0.15421545581E+02  0.51100000000E-03 0.  1.
         12    1    3    3    0    0 -0.59062597297E+00 -0.73733697292E+01  0.22296891416E+02  0.23491845117E+02  0.00000000000E+00 0. -1.
</event>
<event>
 7    1  0.2991278E-011  0.5052886E+02  0.7816164E-02  0.1300439E+00
        -11   -1    0    0    0    0  0.00000000000E+00  0.00000000000E+00  0.45593999997E+02  0.45594000000E+02  0.51100000000E-03 0. -1.
         11   -1    0    0    0    0 -0.00000000000E+00 -0.00000000000E+00 -0.45593999997E+02  0.45594000000E+02  0.51100000000E-03 0.  1.
    9900012    2    1    2    0    0  0.11355722392E+02 -0.24972700243E+02 -0.30009624041E+02  0.50528859286E+02  0.29999998287E+02 0.  0.
         12    1    1    2    0    0 -0.11355722392E+02  0.24972700243E+02  0.30009624041E+02  0.40659140714E+02  0.00000000000E+00 0. -1.
         11    1    3    3    0    0  0.86438041733E+01 -0.22442801191E+02 -0.59733326141E+01  0.24780544358E+02  0.51100000000E-03 0. -1.
        -11    1    3    3    0    0  0.50901380920E+01  0.45001037876E+00 -0.16923520218E+02  0.17678165967E+02  0.51100000000E-03 0.  1.
         12    1    3    3    0    0 -0.23782198731E+01 -0.29799094302E+01 -0.71127712096E+01  0.80701489613E+01  0.00000000000E+00 0. -1.
</event>
<event>
 7    1  0.2991278E-011  0.5052886E+02  0.7816164E-02  0.1300439E+00
        -11   -1    0    0    0    0  0.00000000000E+00  0.00000000000E+00  0.45593999997E+02  0.45594000000E+02  0.51100000000E-03 0.  1.
         11   -1    0    0    0    0 -0.00000000000E+00 -0.00000000000E+00 -0.45593999997E+02  0.45594000000E+02  0.51100000000E-03 0. -1.
    9900012    2    1    2    0    0 -0.19894028304E+02  0.30225036807E+02 -0.18542935072E+02  0.50528860151E+02  0.30000000916E+02 0.  0.
         12    1    1    2    0    0  0.19894028304E+02 -0.30225036807E+02  0.18542935072E+02  0.40659139849E+02  0.00000000000E+00 0. -1.
         11    1    3    3    0    0 -0.59955406534E+01 -0.22153818372E+01 -0.99697193982E+01  0.11842707864E+02  0.51100000000E-03 0. -1.
        -11    1    3    3    0    0 -0.10918500963E+02  0.28153195023E+02 -0.11942620573E+02  0.32472176393E+02  0.51100000000E-03 0.  1.
         12    1    3    3    0    0 -0.29799866883E+01  0.42872236214E+01  0.33694048994E+01  0.62139758946E+01  0.00000000000E+00 0. -1.
</event>
<event>
 7    1  0.2991278E-011  0.5052887E+02  0.7816164E-02  0.1300439E+00
        -11   -1    0    0    0    0  0.00000000000E+00  0.00000000000E+00  0.45593999997E+02  0.45594000000E+02  0.51100000000E-03 0.  1.
         11   -1    0    0    0    0 -0.00000000000E+00 -0.00000000000E+00 -0.45593999997E+02  0.45594000000E+02  0.51100000000E-03 0. -1.
    9900012    2    1    2    0    0  0.56852032571E+01  0.17748658023E+02  0.36136250536E+02  0.50528868178E+02  0.30000025315E+02 0.  0.
         12    1    1    2    0    0 -0.56852032571E+01 -0.17748658023E+02 -0.36136250536E+02  0.40659131822E+02  0.00000000000E+00 0. -1.
         11    1    3    3    0    0  0.65271050527E+01  0.11788035007E+02  0.25731925439E+01  0.13717951371E+02  0.51100000000E-03 0. -1.
        -11    1    3    3    0    0 -0.24535952391E+01  0.10155307742E+02  0.25895547228E+02  0.27923641801E+02  0.51100000000E-03 0.  1.
         12    1    3    3    0    0  0.16116934435E+01 -0.41946847266E+01  0.76675107639E+01  0.88872750057E+01  0.00000000000E+00 0. -1.
</event>
<event>
 7    1  0.2991278E-011  0.5052886E+02  0.7816164E-02  0.1300439E+00
        -11   -1    0    0    0    0  0.00000000000E+00  0.00000000000E+00  0.45593999997E+02  0.45594000000E+02  0.51100000000E-03 0. -1.
         11   -1    0    0    0    0 -0.00000000000E+00 -0.00000000000E+00 -0.45593999997E+02  0.45594000000E+02  0.51100000000E-03 0.  1.
    9900012    2    1    2    0    0 -0.69793176814E+01 -0.22340741683E+02 -0.33246748676E+02  0.50528856972E+02  0.29999991253E+02 0.  0.
         12    1    1    2    0    0  0.69793176814E+01  0.22340741683E+02  0.33246748676E+02  0.40659143028E+02  0.00000000000E+00 0. -1.
         11    1    3    3    0    0 -0.47740203666E+01 -0.27327596257E+01  0.28336678058E+01  0.61878040634E+01  0.51100000000E-03 0. -1.
        -11    1    3    3    0    0  0.51957045938E+01 -0.17134474397E+02 -0.23629726781E+02  0.29647083281E+02  0.51100000000E-03 0.  1.
        -12    1    3    3    0    0 -0.74010019086E+01 -0.24735076608E+01 -0.12450689700E+02  0.14693969627E+02  0.00000000000E+00 0.  1.
</event>
<event>
 7    1  0.3234876E-011  0.5052886E+02  0.7816164E-02  0.1300439E+00
        -11   -1    0    0    0    0  0.00000000000E+00  0.00000000000E+00  0.45593999997E+02  0.45594000000E+02  0.51100000000E-03 0.  1.
         11   -1    0    0    0    0 -0.00000000000E+00 -0.00000000000E+00 -0.45593999997E+02  0.45594000000E+02  0.51100000000E-03 0. -1.
    9900012    2    1    2    0    0  0.55678757449E+01 -0.32024538478E+02 -0.24425265600E+02  0.50528857059E+02  0.29999991516E+02 0.  0.
         12    1    1    2    0    0 -0.55678757449E+01  0.32024538478E+02  0.24425265600E+02  0.40659142941E+02  0.00000000000E+00 0. -1.
         11    1    3    3    0    0  0.16701040685E+01  0.37518216316E+01  0.40122803562E+00  0.41263055331E+01  0.51100000000E-03 0. -1.
        -11    1    3    3    0    0 -0.17182230776E+00 -0.21355942431E+02 -0.56970097836E+01  0.22103432330E+02  0.51100000000E-03 0.  1.
        -12    1    3    3    0    0  0.40695939842E+01 -0.14420417679E+02 -0.19129483852E+02  0.24299119196E+02  0.00000000000E+00 0.  1.
</event>
<event>
 7    1  0.2991278E-011  0.5052886E+02  0.7816164E-02  0.1300439E+00
        -11   -1    0    0    0    0  0.00000000000E+00  0.00000000000E+00  0.45593999997E+02  0.45594000000E+02  0.51100000000E-03 0. -1.
         11   -1    0    0    0    0 -0.00000000000E+00 -0.00000000000E+00 -0.45593999997E+02  0.45594000000E+02  0.51100000000E-03 0.  1.
    9900012    2    1    2    0    0  0.24380889354E+02  0.10817651061E+02 -0.30687400791E+02  0.50528857025E+02  0.29999991412E+02 0.  0.
         12    1    1    2    0    0 -0.24380889354E+02 -0.10817651061E+02  0.30687400791E+02  0.40659142975E+02  0.00000000000E+00 0. -1.
         11    1    3    3    0    0  0.24151804109E+02  0.10222885283E+02 -0.26090465001E+02  0.36993639851E+02  0.51100000000E-03 0. -1.
        -11    1    3    3    0    0  0.43106803103E+01  0.45576290728E+01 -0.84296690576E-01  0.62738388324E+01  0.51100000000E-03 0.  1.
         12    1    3    3    0    0 -0.40815950652E+01 -0.39628632941E+01 -0.45126390997E+01  0.72613783408E+01  0.00000000000E+00 0. -1.
</event>
<event>
 7    1  0.2991278E-011  0.5052884E+02  0.7816164E-02  0.1300439E+00
        -11   -1    0    0    0    0  0.00000000000E+00  0.00000000000E+00  0.45593999997E+02  0.45594000000E+02  0.51100000000E-03 0.  1.
         11   -1    0    0    0    0 -0.00000000000E+00 -0.00000000000E+00 -0.45593999997E+02  0.45594000000E+02  0.51100000000E-03 0. -1.
    9900012    2    1    2    0    0  0.63728383421E+01  0.49453157027E+01  0.39850946227E+02  0.50528841978E+02  0.29999945675E+02 0.  0.
         12    1    1    2    0    0 -0.63728383421E+01 -0.49453157027E+01 -0.39850946227E+02  0.40659158022E+02  0.00000000000E+00 0. -1.
         11    1    3    3    0    0 -0.78617421128E+01  0.88976762613E+01  0.62441610764E+01  0.13415110127E+02  0.51100000000E-03 0. -1.
        -11    1    3    3    0    0  0.12887286799E+02 -0.46916376498E+01  0.26454704390E+02  0.29798406157E+02  0.51100000000E-03 0.  1.
         12    1    3    3    0    0  0.13472936560E+01  0.73927709122E+00  0.71520807597E+01  0.73153256938E+01  0.00000000000E+00 0. -1.
</event>
<event>
 7    1  0.2991278E-011  0.5052886E+02  0.7816164E-02  0.1300439E+00
        -11   -1    0    0    0    0  0.00000000000E+00  0.00000000000E+00  0.45593999997E+02  0.45594000000E+02  0.51100000000E-03 0. -1.
         11   -1    0    0    0    0 -0.00000000000E+00 -0.00000000000E+00 -0.45593999997E+02  0.45594000000E+02  0.51100000000E-03 0.  1.
    9900012    2    1    2    0    0 -0.76453554972E+01  0.34644807089E+02 -0.19860809512E+02  0.50528857444E+02  0.29999992686E+02 0.  0.
         12    1    1    2    0    0  0.76453554972E+01 -0.34644807089E+02  0.19860809512E+02  0.40659142556E+02  0.00000000000E+00 0. -1.
         11    1    3    3    0    0 -0.17942494987E+02  0.26102807458E+02 -0.17006090051E+02  0.35951311278E+02  0.51100000000E-03 0. -1.
        -11    1    3    3    0    0  0.68271704040E+01  0.46125147906E+01  0.66063534465E+00  0.82657115688E+01  0.51100000000E-03 0.  1.
         12    1    3    3    0    0  0.34699690857E+01  0.39294848411E+01 -0.35153548054E+01  0.63118345969E+01  0.00000000000E+00 0. -1.
</event>
<event>
 7    1  0.2991278E-011  0.5052886E+02  0.7816164E-02  0.1300439E+00
        -11   -1    0    0    0    0  0.00000000000E+00  0.00000000000E+00  0.45593999997E+02  0.45594000000E+02  0.51100000000E-03 0.  1.
         11   -1    0    0    0    0 -0.00000000000E+00 -0.00000000000E+00 -0.45593999997E+02  0.45594000000E+02  0.51100000000E-03 0. -1.
    9900012    2    1    2    0    0 -0.18842316315E+02  0.89962078620E-01  0.36029498841E+02  0.50528858789E+02  0.29999996776E+02 0.  0.
         12    1    1    2    0    0  0.18842316315E+02 -0.89962078620E-01 -0.36029498841E+02  0.40659141211E+02  0.00000000000E+00 0. -1.
         11    1    3    3    0    0 -0.52343950059E+01 -0.11610113598E+02  0.86311868123E+01  0.15384765676E+02  0.51100000000E-03 0. -1.
        -11    1    3    3    0    0 -0.75986564607E+01  0.12971552149E+02  0.14639238636E+02  0.20983518610E+02  0.51100000000E-03 0.  1.
        -12    1    3    3    0    0 -0.60092648481E+01 -0.12714764720E+01  0.12759073393E+02  0.14160574504E+02  0.00000000000E+00 0.  1.
</event>
<event>
 7    1  0.2991278E-011  0.5052886E+02  0.7816164E-02  0.1300439E+00
        -11   -1    0    0    0    0  0.00000000000E+00  0.00000000000E+00  0.45593999997E+02  0.45594000000E+02  0.51100000000E-03 0.  1.
         11   -1    0    0    0    0 -0.00000000000E+00 -0.00000000000E+00 -0.45593999997E+02  0.45594000000E+02  0.51100000000E-03 0. -1.
    9900012    2    1    2    0    0 -0.66215058103E+00 -0.27028786137E+02  0.30367284463E+02  0.50528859710E+02  0.29999999575E+02 0.  0.
         12    1    1    2    0    0  0.66215058103E+00  0.27028786137E+02 -0.30367284463E+02  0.40659140290E+02  0.00000000000E+00 0. -1.
         11    1    3    3    0    0  0.89771429973E+01 -0.19160194297E+01  0.15942812086E+02  0.18396561752E+02  0.51100000000E-03 0. -1.
        -11    1    3    3    0    0 -0.58186785897E+00 -0.13496160101E+02  0.98140555413E+01  0.16697322963E+02  0.51100000000E-03 0.  1.
         12    1    3    3    0    0 -0.90574257194E+01 -0.11616606606E+02  0.46104168360E+01  0.15434974995E+02  0.00000000000E+00 0. -1.
</event>
<event>
 7    1  0.2991278E-011  0.5052886E+02  0.7816164E-02  0.1300439E+00
        -11   -1    0    0    0    0  0.00000000000E+00  0.00000000000E+00  0.45593999997E+02  0.45594000000E+02  0.51100000000E-03 0.  1.
         11   -1    0    0    0    0 -0.00000000000E+00 -0.00000000000E+00 -0.45593999997E+02  0.45594000000E+02  0.51100000000E-03 0. -1.
    9900012    2    1    2    0    0 -0.16743276596E+02  0.14765153654E+02  0.33982619690E+02  0.50528861856E+02  0.30000006098E+02 0.  0.
         12    1    1    2    0    0  0.16743276596E+02 -0.14765153654E+02 -0.33982619690E+02  0.40659138144E+02  0.00000000000E+00 0. -1.
         11    1    3    3    0    0  0.37000213178E+01  0.70857525844E+01 -0.19638373170E+01  0.82313246022E+01  0.51100000000E-03 0. -1.
        -11    1    3    3    0    0 -0.51581961838E+01  0.37425402350E+01  0.12539570858E+02  0.14066073825E+02  0.51100000000E-03 0.  1.
         12    1    3    3    0    0 -0.15285101730E+02  0.39368608342E+01  0.23406886149E+02  0.28231463429E+02  0.00000000000E+00 0. -1.
</event>
<event>
 7    1  0.2991278E-011  0.5052885E+02  0.7816164E-02  0.1300439E+00
        -11   -1    0    0    0    0  0.00000000000E+00  0.00000000000E+00  0.45593999997E+02  0.45594000000E+02  0.51100000000E-03 0.  1.
         11   -1    0    0    0    0 -0.00000000000E+00 -0.00000000000E+00 -0.45593999997E+02  0.45594000000E+02  0.51100000000E-03 0. -1.
    9900012    2    1    2    0    0 -0.72443269574E+00  0.34203626803E+02  0.21971650447E+02  0.50528852044E+02  0.29999976272E+02 0.  0.
         12    1    1    2    0    0  0.72443269574E+00 -0.34203626803E+02 -0.21971650447E+02  0.40659147956E+02  0.00000000000E+00 0. -1.
         11    1    3    3    0    0 -0.85434344056E+01  0.10932214224E+02 -0.16978184778E+01  0.13978060206E+02  0.51100000000E-03 0. -1.
        -11    1    3    3    0    0 -0.14531668013E+01  0.89634275558E+01  0.14718860832E+02  0.17294495996E+02  0.51100000000E-03 0.  1.
         12    1    3    3    0    0  0.92721685112E+01  0.14307985023E+02  0.89506080926E+01  0.19256295842E+02  0.00000000000E+00 0. -1.
</event>
<event>
 7    1  0.2991278E-011  0.5052886E+02  0.7816164E-02  0.1300439E+00
        -11   -1    0    0    0    0  0.00000000000E+00  0.00000000000E+00  0.45593999997E+02  0.45594000000E+02  0.51100000000E-03 0.  1.
         11   -1    0    0    0    0 -0.00000000000E+00 -0.00000000000E+00 -0.45593999997E+02  0.45594000000E+02  0.51100000000E-03 0. -1.
    9900012    2    1    2    0    0  0.21659080582E+02 -0.25809215041E+02  0.22758167497E+02  0.50528861537E+02  0.30000005129E+02 0.  0.
         12    1    1    2    0    0 -0.21659080582E+02  0.25809215041E+02 -0.22758167497E+02  0.40659138463E+02  0.00000000000E+00 0. -1.
         11    1    3    3    0    0  0.13475018217E+02 -0.11159765545E+02  0.62744562350E+00  0.17507431886E+02  0.51100000000E-03 0. -1.
        -11    1    3    3    0    0  0.10713232741E+02 -0.93961839388E+01  0.23069696338E+02  0.27115908942E+02  0.51100000000E-03 0.  1.
        -12    1    3    3    0    0 -0.25291703759E+01 -0.52532655570E+01 -0.93897446451E+00  0.59055207093E+01  0.00000000000E+00 0.  1.
</event>
<event>
 7    1  0.2991278E-011  0.5052886E+02  0.7816164E-02  0.1300439E+00
        -11   -1    0    0    0    0  0.00000000000E+00  0.00000000000E+00  0.45593999997E+02  0.45594000000E+02  0.51100000000E-03 0. -1.
         11   -1    0    0    0    0 -0.00000000000E+00 -0.00000000000E+00 -0.45593999997E+02  0.45594000000E+02  0.51100000000E-03 0.  1.
    9900012    2    1    2    0    0  0.49456301225E+01  0.32545793621E+02 -0.23863733931E+02  0.50528859124E+02  0.29999997792E+02 0.  0.
         12    1    1    2    0    0 -0.49456301225E+01 -0.32545793621E+02  0.23863733931E+02  0.40659140876E+02  0.00000000000E+00 0. -1.
         11    1    3    3    0    0  0.86474017223E+01  0.19912050380E+01 -0.99989404466E+01  0.13368667262E+02  0.51100000000E-03 0. -1.
        -11    1    3    3    0    0 -0.36709993186E+01  0.11699568354E+02  0.21167546455E+01  0.12443343046E+02  0.51100000000E-03 0.  1.
        -12    1    3    3    0    0 -0.30772281236E-01  0.18855020229E+02 -0.15981548130E+02  0.24716848816E+02  0.00000000000E+00 0.  1.
</event>
<event>
 7    1  0.2991278E-011  0.5052884E+02  0.7816164E-02  0.1300439E+00
        -11   -1    0    0    0    0  0.00000000000E+00  0.00000000000E+00  0.45593999997E+02  0.45594000000E+02  0.51100000000E-03 0.  1.
         11   -1    0    0    0    0 -0.00000000000E+00 -0.00000000000E+00 -0.45593999997E+02  0.45594000000E+02  0.51100000000E-03 0. -1.
    9900012    2    1    2    0    0 -0.48668132937E+01 -0.17241844334E+02  0.36499323250E+02  0.50528835407E+02  0.29999925703E+02 0.  0.
         12    1    1    2    0    0  0.48668132937E+01  0.17241844334E+02 -0.36499323250E+02  0.40659164593E+02  0.00000000000E+00 0. -1.
         11    1    3    3    0    0  0.71568556356E+01 -0.59793242497E+01  0.33700052390E+01  0.99161402090E+01  0.51100000000E-03 0. -1.
        -11    1    3    3    0    0 -0.13113452553E+02 -0.12404759338E+02  0.34223251930E+02  0.38692010352E+02  0.51100000000E-03 0.  1.
        -12    1    3    3    0    0  0.10897836235E+01  0.11422392545E+01 -0.10939339188E+01  0.19206848464E+01  0.00000000000E+00 0.  1.
</event>
<event>
 7    1  0.2991278E-011  0.5052884E+02  0.7816164E-02  0.1300439E+00
        -11   -1    0    0    0    0  0.00000000000E+00  0.00000000000E+00  0.45593999997E+02  0.45594000000E+02  0.51100000000E-03 0. -1.
         11   -1    0    0    0    0 -0.00000000000E+00 -0.00000000000E+00 -0.45593999997E+02  0.45594000000E+02  0.51100000000E-03 0.  1.
    9900012    2    1    2    0    0  0.18362780037E+02  0.45176879178E+01 -0.35993974165E+02  0.50528839028E+02  0.29999936709E+02 0.  0.
         12    1    1    2    0    0 -0.18362780037E+02 -0.45176879178E+01  0.35993974165E+02  0.40659160972E+02  0.00000000000E+00 0. -1.
         11    1    3    3    0    0  0.79378596850E+01  0.76576553666E+01 -0.34756211817E+01  0.11564136152E+02  0.51100000000E-03 0. -1.
        -11    1    3    3    0    0  0.12754923944E+02 -0.85391846651E+01 -0.20764543609E+02  0.25821929268E+02  0.51100000000E-03 0.  1.
        -12    1    3    3    0    0 -0.23300035927E+01  0.53992172164E+01 -0.11753809374E+02  0.13142773608E+02  0.00000000000E+00 0.  1.
</event>
<event>
 7    1  0.2991278E-011  0.5052886E+02  0.7816164E-02  0.1300439E+00
        -11   -1    0    0    0    0  0.00000000000E+00  0.00000000000E+00  0.45593999997E+02  0.45594000000E+02  0.51100000000E-03 0.  1.
         11   -1    0    0    0    0 -0.00000000000E+00 -0.00000000000E+00 -0.45593999997E+02  0.45594000000E+02  0.51100000000E-03 0. -1.
    9900012    2    1    2    0    0 -0.76143578354E+01 -0.50810255965E+01  0.39615276934E+02  0.50528862860E+02  0.30000009151E+02 0.  0.
         12    1    1    2    0    0  0.76143578354E+01  0.50810255965E+01 -0.39615276934E+02  0.40659137140E+02  0.00000000000E+00 0. -1.
         11    1    3    3    0    0 -0.82475813060E+00  0.34953516468E+01  0.50750223009E+01  0.62171987844E+01  0.51100000000E-03 0. -1.
        -11    1    3    3    0    0 -0.87112663988E+01 -0.68206040159E+01  0.14953030921E+01  0.11164350989E+02  0.51100000000E-03 0.  1.
        -12    1    3    3    0    0  0.19216666940E+01 -0.17557732274E+01  0.33044951541E+02  0.33147313087E+02  0.00000000000E+00 0.  1.
</event>
<event>
 7    1  0.2991278E-011  0.5052885E+02  0.7816164E-02  0.1300439E+00
        -11   -1    0    0    0    0  0.00000000000E+00  0.00000000000E+00  0.45593999997E+02  0.45594000000E+02  0.51100000000E-03 0.  1.
         11   -1    0    0    0    0 -0.00000000000E+00 -0.00000000000E+00 -0.45593999997E+02  0.45594000000E+02  0.51100000000E-03 0. -1.
    9900012    2    1    2    0    0  0.20677924594E+02  0.35000546308E+02  0.74292383058E+00  0.50528846748E+02  0.29999960175E+02 0.  0.
         12    1    1    2    0    0 -0.20677924594E+02 -0.35000546308E+02 -0.74292383058E+00  0.40659153252E+02  0.00000000000E+00 0. -1.
         11    1    3    3    0    0  0.86463725501E+01  0.42860415078E+01 -0.11279163477E+02  0.14844171890E+02  0.51100000000E-03 0. -1.
        -11    1    3    3    0    0  0.82958506375E+01  0.13202548558E+02  0.69709566002E+01  0.17079890586E+02  0.51100000000E-03 0.  1.
         12    1    3    3    0    0  0.37357014062E+01  0.17511956242E+02  0.50511307079E+01  0.18604784273E+02  0.00000000000E+00 0. -1.
</event>
<event>
 7    1  0.2991278E-011  0.5052896E+02  0.7816164E-02  0.1300438E+00
        -11   -1    0    0    0    0  0.00000000000E+00  0.00000000000E+00  0.45593999997E+02  0.45594000000E+02  0.51100000000E-03 0.  1.
         11   -1    0    0    0    0 -0.00000000000E+00 -0.00000000000E+00 -0.45593999997E+02  0.45594000000E+02  0.51100000000E-03 0. -1.
    9900012    2    1    2    0    0  0.16826963805E+02  0.35451399316E+02  0.10639995288E+02  0.50528955199E+02  0.30000289823E+02 0.  0.
         12    1    1    2    0    0 -0.16826963805E+02 -0.35451399316E+02 -0.10639995288E+02  0.40659044801E+02  0.00000000000E+00 0. -1.
         11    1    3    3    0    0  0.17428777424E+02  0.97275674372E+01  0.92377789977E+01  0.21993735740E+02  0.51100000000E-03 0. -1.
        -11    1    3    3    0    0  0.50670880724E+00  0.16401180488E+02 -0.50208487162E+01  0.17159964957E+02  0.51100000000E-03 0.  1.
        -12    1    3    3    0    0 -0.11085224261E+01  0.93226513904E+01  0.64230650069E+01  0.11375254503E+02  0.00000000000E+00 0.  1.
</event>
<event>
 7    1  0.2991278E-011  0.5052886E+02  0.7816164E-02  0.1300439E+00
        -11   -1    0    0    0    0  0.00000000000E+00  0.00000000000E+00  0.45593999997E+02  0.45594000000E+02  0.51100000000E-03 0.  1.
         11   -1    0    0    0    0 -0.00000000000E+00 -0.00000000000E+00 -0.45593999997E+02  0.45594000000E+02  0.51100000000E-03 0. -1.
    9900012    2    1    2    0    0  0.25349292791E+02 -0.39303657664E+01  0.31545699979E+02  0.50528860717E+02  0.30000002635E+02 0.  0.
         12    1    1    2    0    0 -0.25349292791E+02  0.39303657664E+01 -0.31545699979E+02  0.40659139283E+02  0.00000000000E+00 0. -1.
         11    1    3    3    0    0 -0.22239211161E+01  0.76755209644E+01  0.36878646715E+01  0.88011245476E+01  0.51100000000E-03 0.  1.
        -11    1    3    3    0    0  0.19780401578E+02 -0.71574929777E+01  0.14177609000E+02  0.25367273987E+02  0.51100000000E-03 0. -1.
        -12    1    3    3    0    0  0.77928123290E+01 -0.44483937531E+01  0.13680226308E+02  0.16360462182E+02  0.00000000000E+00 0.  1.
</event>
<event>
 7    1  0.2991278E-011  0.5052886E+02  0.7816164E-02  0.1300439E+00
        -11   -1    0    0    0    0  0.00000000000E+00  0.00000000000E+00  0.45593999997E+02  0.45594000000E+02  0.51100000000E-03 0. -1.
         11   -1    0    0    0    0 -0.00000000000E+00 -0.00000000000E+00 -0.45593999997E+02  0.45594000000E+02  0.51100000000E-03 0.  1.
    9900012    2    1    2    0    0 -0.29751946013E+02  0.26874392208E+02 -0.67642208396E+01  0.50528856727E+02  0.29999990509E+02 0.  0.
         12    1    1    2    0    0  0.29751946013E+02 -0.26874392208E+02  0.67642208396E+01  0.40659143273E+02  0.00000000000E+00 0. -1.
         11    1    3    3    0    0 -0.21409114104E+01 -0.18650380075E+01 -0.27777321142E+01  0.39721108237E+01  0.51100000000E-03 0. -1.
        -11    1    3    3    0    0 -0.89829560719E+01  0.21229384565E+02  0.64295272921E+01  0.23931550101E+02  0.51100000000E-03 0.  1.
        -12    1    3    3    0    0 -0.18628078531E+02  0.75100456503E+01 -0.10416016017E+02  0.22625195802E+02  0.00000000000E+00 0.  1.
</event>
<event>
 7    1  0.2991278E-011  0.5052885E+02  0.7816164E-02  0.1300439E+00
        -11   -1    0    0    0    0  0.00000000000E+00  0.00000000000E+00  0.45593999997E+02  0.45594000000E+02  0.51100000000E-03 0.  1.
         11   -1    0    0    0    0 -0.00000000000E+00 -0.00000000000E+00 -0.45593999997E+02  0.45594000000E+02  0.51100000000E-03 0. -1.
    9900012    2    1    2    0    0  0.24796475532E+02  0.21549122785E+02  0.23956970201E+02  0.50528852040E+02  0.29999976261E+02 0.  0.
         12    1    1    2    0    0 -0.24796475532E+02 -0.21549122785E+02 -0.23956970201E+02  0.40659147960E+02  0.00000000000E+00 0. -1.
         11    1    3    3    0    0  0.10535769311E+02  0.42082349417E+01  0.21943803056E+02  0.24703080154E+02  0.51100000000E-03 0. -1.
        -11    1    3    3    0    0  0.15100136376E+01  0.10029293549E+02  0.41775353438E+01  0.10968986831E+02  0.51100000000E-03 0.  1.
         12    1    3    3    0    0  0.12750692583E+02  0.73115942939E+01 -0.21643681981E+01  0.14856785055E+02  0.00000000000E+00 0. -1.
</event>
<event>
 7    1  0.2991278E-011  0.5052886E+02  0.7816164E-02  0.1300439E+00
        -11   -1    0    0    0    0  0.00000000000E+00  0.00000000000E+00  0.45593999997E+02  0.45594000000E+02  0.51100000000E-03 0. -1.
         11   -1    0    0    0    0 -0.00000000000E+00 -0.00000000000E+00 -0.45593999997E+02  0.45594000000E+02  0.51100000000E-03 0.  1.
    9900012    2    1    2    0    0 -0.22165211440E+02 -0.11063970715E+01 -0.34068236032E+02  0.50528863033E+02  0.30000009674E+02 0.  0.
         12    1    1    2    0    0  0.22165211440E+02  0.11063970715E+01  0.34068236032E+02  0.40659136967E+02  0.00000000000E+00 0. -1.
         11    1    3    3    0    0  0.20642359673E+01  0.39360915715E+01  0.16362769603E+01  0.47361682339E+01  0.51100000000E-03 0. -1.
        -11    1    3    3    0    0 -0.22588081360E+02 -0.52293775089E+01 -0.37019814347E+02  0.43681053824E+02  0.51100000000E-03 0.  1.
        -12    1    3    3    0    0 -0.16413660471E+01  0.18688886587E+00  0.13153013553E+01  0.21116409742E+01  0.00000000000E+00 0.  1.
</event>
<event>
 7    1  0.2991278E-011  0.5052886E+02  0.7816164E-02  0.1300439E+00
        -11   -1    0    0    0    0  0.00000000000E+00  0.00000000000E+00  0.45593999997E+02  0.45594000000E+02  0.51100000000E-03 0.  1.
         11   -1    0    0    0    0 -0.00000000000E+00 -0.00000000000E+00 -0.45593999997E+02  0.45594000000E+02  0.51100000000E-03 0. -1.
    9900012    2    1    2    0    0  0.11328214085E+01  0.14236439323E+02  0.38068438911E+02  0.50528861666E+02  0.30000005519E+02 0.  0.
         12    1    1    2    0    0 -0.11328214085E+01 -0.14236439323E+02 -0.38068438911E+02  0.40659138334E+02  0.00000000000E+00 0. -1.
         11    1    3    3    0    0  0.27757303247E+01  0.44408431501E+01 -0.23783719792E+01  0.57517319350E+01  0.51100000000E-03 0. -1.
        -11    1    3    3    0    0 -0.74057298909E+01  0.11053778198E+02  0.27471225605E+02  0.30523746234E+02  0.51100000000E-03 0.  1.
        -12    1    3    3    0    0  0.57628209747E+01 -0.12581820249E+01  0.12975585285E+02  0.14253383496E+02  0.00000000000E+00 0.  1.
</event>
<event>
 7    1  0.2991278E-011  0.5052886E+02  0.7816164E-02  0.1300439E+00
        -11   -1    0    0    0    0  0.00000000000E+00  0.00000000000E+00  0.45593999997E+02  0.45594000000E+02  0.51100000000E-03 0.  1.
         11   -1    0    0    0    0 -0.00000000000E+00 -0.00000000000E+00 -0.45593999997E+02  0.45594000000E+02  0.51100000000E-03 0. -1.
    9900012    2    1    2    0    0  0.96195083389E+01  0.27917330783E+02  0.27950912526E+02  0.50528858226E+02  0.29999995063E+02 0.  0.
         12    1    1    2    0    0 -0.96195083389E+01 -0.27917330783E+02 -0.27950912526E+02  0.40659141774E+02  0.00000000000E+00 0. -1.
         11    1    3    3    0    0 -0.16791147240E+01 -0.24140585615E+01 -0.34808258307E+00  0.29611259245E+01  0.51100000000E-03 0. -1.
        -11    1    3    3    0    0  0.12225401867E+01  0.27410409306E+02  0.17680550379E+02  0.32640879351E+02  0.51100000000E-03 0.  1.
        -12    1    3    3    0    0  0.10076082876E+02  0.29209800389E+01  0.10618444730E+02  0.14926852950E+02  0.00000000000E+00 0.  1.
</event>
<event>
 7    1  0.2991278E-011  0.5052889E+02  0.7816164E-02  0.1300439E+00
        -11   -1    0    0    0    0  0.00000000000E+00  0.00000000000E+00  0.45593999997E+02  0.45594000000E+02  0.51100000000E-03 0.  1.
         11   -1    0    0    0    0 -0.00000000000E+00 -0.00000000000E+00 -0.45593999997E+02  0.45594000000E+02  0.51100000000E-03 0. -1.
    9900012    2    1    2    0    0  0.70405762259E+01 -0.32812887505E+02  0.22954483557E+02  0.50528885212E+02  0.30000077090E+02 0.  0.
         12    1    1    2    0    0 -0.70405762259E+01  0.32812887505E+02 -0.22954483557E+02  0.40659114788E+02  0.00000000000E+00 0. -1.
         11    1    3    3    0    0  0.60177103918E+01 -0.24502917334E+02  0.26119450030E+01  0.25365883647E+02  0.51100000000E-03 0. -1.
        -11    1    3    3    0    0 -0.48574595354E+01 -0.46663357272E+01  0.51807133989E+01  0.84976110666E+01  0.51100000000E-03 0.  1.
         12    1    3    3    0    0  0.58803253695E+01 -0.36436344431E+01  0.15161825155E+02  0.16665390498E+02  0.00000000000E+00 0. -1.
</event>
<event>
 7    1  0.2991278E-011  0.5052886E+02  0.7816164E-02  0.1300439E+00
        -11   -1    0    0    0    0  0.00000000000E+00  0.00000000000E+00  0.45593999997E+02  0.45594000000E+02  0.51100000000E-03 0. -1.
         11   -1    0    0    0    0 -0.00000000000E+00 -0.00000000000E+00 -0.45593999997E+02  0.45594000000E+02  0.51100000000E-03 0.  1.
    9900012    2    1    2    0    0 -0.18780258421E+02  0.37641198697E+01 -0.35865009024E+02  0.50528861088E+02  0.30000003763E+02 0.  0.
         12    1    1    2    0    0  0.18780258421E+02 -0.37641198697E+01  0.35865009024E+02  0.40659138912E+02  0.00000000000E+00 0. -1.
         11    1    3    3    0    0  0.25537917363E+01  0.38631355516E+01  0.46645079604E-01  0.46311817657E+01  0.51100000000E-03 0. -1.
        -11    1    3    3    0    0 -0.73132477940E+01  0.17404002543E+01 -0.29370212466E+02  0.30317024374E+02  0.51100000000E-03 0.  1.
        -12    1    3    3    0    0 -0.14020802364E+02 -0.18394159361E+01 -0.65414416374E+01  0.15580654948E+02  0.00000000000E+00 0.  1.
</event>
<event>
 7    1  0.2991278E-011  0.5052887E+02  0.7816164E-02  0.1300439E+00
        -11   -1    0    0    0    0  0.00000000000E+00  0.00000000000E+00  0.45593999997E+02  0.45594000000E+02  0.51100000000E-03 0. -1.
         11   -1    0    0    0    0 -0.00000000000E+00 -0.00000000000E+00 -0.45593999997E+02  0.45594000000E+02  0.51100000000E-03 0.  1.
    9900012    2    1    2    0    0  0.76519399160E+01 -0.38884306854E+02  0.90897353960E+01  0.50528870723E+02  0.30000033050E+02 0.  0.
         12    1    1    2    0    0 -0.76519399160E+01  0.38884306854E+02 -0.90897353960E+01  0.40659129277E+02  0.00000000000E+00 0. -1.
         11    1    3    3    0    0  0.70785054662E+00 -0.13384988061E+02  0.16176704985E+02  0.21008206544E+02  0.51100000000E-03 0. -1.
        -11    1    3    3    0    0  0.35440804080E+01 -0.64952225337E+01  0.26991751090E+01  0.78761645634E+01  0.51100000000E-03 0.  1.
         12    1    3    3    0    0  0.34000089614E+01 -0.19004096259E+02 -0.97861446975E+01  0.21644499616E+02  0.00000000000E+00 0. -1.
</event>
<event>
 7    1  0.2991278E-011  0.5052886E+02  0.7816164E-02  0.1300439E+00
        -11   -1    0    0    0    0  0.00000000000E+00  0.00000000000E+00  0.45593999997E+02  0.45594000000E+02  0.51100000000E-03 0. -1.
         11   -1    0    0    0    0 -0.00000000000E+00 -0.00000000000E+00 -0.45593999997E+02  0.45594000000E+02  0.51100000000E-03 0.  1.
    9900012    2    1    2    0    0 -0.29375846664E+02  0.79065023147E+01 -0.26976148813E+02  0.50528858951E+02  0.29999997267E+02 0.  0.
         12    1    1    2    0    0  0.29375846664E+02 -0.79065023147E+01  0.26976148813E+02  0.40659141049E+02  0.00000000000E+00 0. -1.
         11    1    3    3    0    0 -0.16607790611E+01 -0.53862319705E+01  0.35033182881E+01  0.66364841007E+01  0.51100000000E-03 0. -1.
        -11    1    3    3    0    0 -0.22864771630E+02  0.85841370395E+01 -0.20764538308E+02  0.32056999888E+02  0.51100000000E-03 0.  1.
         12    1    3    3    0    0 -0.48502959736E+01  0.47085972456E+01 -0.97149287927E+01  0.11835374962E+02  0.00000000000E+00 0. -1.
</event>
<event>
 7    1  0.2991278E-011  0.5052889E+02  0.7816164E-02  0.1300439E+00
        -11   -1    0    0    0    0  0.00000000000E+00  0.00000000000E+00  0.45593999997E+02  0.45594000000E+02  0.51100000000E-03 0.  1.
         11   -1    0    0    0    0 -0.00000000000E+00 -0.00000000000E+00 -0.45593999997E+02  0.45594000000E+02  0.51100000000E-03 0. -1.
    9900012    2    1    2    0    0 -0.39451104106E+02  0.30432231211E+01  0.93548118163E+01  0.50528888767E+02  0.30000087897E+02 0.  0.
         12    1    1    2    0    0  0.39451104106E+02 -0.30432231211E+01 -0.93548118163E+01  0.40659111233E+02  0.00000000000E+00 0. -1.
         11    1    3    3    0    0 -0.26143158800E+01  0.52587822244E+01  0.10041098019E+02  0.11632415385E+02  0.51100000000E-03 0.  1.
        -11    1    3    3    0    0 -0.24833014508E+02 -0.60715799603E+01  0.30520222869E+01  0.25746019752E+02  0.51100000000E-03 0. -1.
         12    1    3    3    0    0 -0.12003773717E+02  0.38560208570E+01 -0.37383084897E+01  0.13150453630E+02  0.00000000000E+00 0. -1.
</event>
<event>
 7    1  0.2991278E-011  0.5052886E+02  0.7816164E-02  0.1300439E+00
        -11   -1    0    0    0    0  0.00000000000E+00  0.00000000000E+00  0.45593999997E+02  0.45594000000E+02  0.51100000000E-03 0.  1.
         11   -1    0    0    0    0 -0.00000000000E+00 -0.00000000000E+00 -0.45593999997E+02  0.45594000000E+02  0.51100000000E-03 0. -1.
    9900012    2    1    2    0    0 -0.13045554371E+02  0.11029709374E+02  0.36896131913E+02  0.50528861693E+02  0.30000005601E+02 0.  0.
         12    1    1    2    0    0  0.13045554371E+02 -0.11029709374E+02 -0.36896131913E+02  0.40659138307E+02  0.00000000000E+00 0. -1.
         11    1    3    3    0    0  0.40722541031E+01  0.69119461039E+01  0.23607557555E+02  0.24933411849E+02  0.51100000000E-03 0. -1.
        -11    1    3    3    0    0 -0.18901275114E+02  0.37587129056E+01  0.13803290749E+02  0.23704787690E+02  0.51100000000E-03 0.  1.
         12    1    3    3    0    0  0.17834666397E+01  0.35905036488E+00 -0.51471639107E+00  0.18906621546E+01  0.00000000000E+00 0. -1.
</event>
<event>
 7    1  0.2991278E-011  0.5052886E+02  0.7816164E-02  0.1300439E+00
        -11   -1    0    0    0    0  0.00000000000E+00  0.00000000000E+00  0.45593999997E+02  0.45594000000E+02  0.51100000000E-03 0. -1.
         11   -1    0    0    0    0 -0.00000000000E+00 -0.00000000000E+00 -0.45593999997E+02  0.45594000000E+02  0.51100000000E-03 0.  1.
    9900012    2    1    2    0    0 -0.21239227029E+02 -0.31932789636E+02 -0.13503988518E+02  0.50528861733E+02  0.30000005724E+02 0.  0.
         12    1    1    2    0    0  0.21239227029E+02  0.31932789636E+02  0.13503988518E+02  0.40659138267E+02  0.00000000000E+00 0. -1.
         11    1    3    3    0    0 -0.18855773739E+02 -0.13304835951E+02  0.37121537466E+01  0.23373894598E+02  0.51100000000E-03 0. -1.
        -11    1    3    3    0    0  0.19711071630E+01 -0.29291457935E+00 -0.74879201791E+00  0.21287912406E+01  0.51100000000E-03 0.  1.
         12    1    3    3    0    0 -0.43545604528E+01 -0.18335039105E+02 -0.16467350247E+02  0.25026175894E+02  0.00000000000E+00 0. -1.
</event>
<event>
 7    1  0.2991278E-011  0.5052882E+02  0.7816164E-02  0.1300439E+00
        -11   -1    0    0    0    0  0.00000000000E+00  0.00000000000E+00  0.45593999997E+02  0.45594000000E+02  0.51100000000E-03 0. -1.
         11   -1    0    0    0    0 -0.00000000000E+00 -0.00000000000E+00 -0.45593999997E+02  0.45594000000E+02  0.51100000000E-03 0.  1.
    9900012    2    1    2    0    0 -0.27720983416E+02 -0.27479440564E+02 -0.11384037134E+02  0.50528820511E+02  0.29999880425E+02 0.  0.
         12    1    1    2    0    0  0.27720983416E+02  0.27479440564E+02  0.11384037134E+02  0.40659179489E+02  0.00000000000E+00 0. -1.
         11    1    3    3    0    0 -0.18853990563E+02 -0.55375141208E+01 -0.50003185297E+01  0.20276592624E+02  0.51100000000E-03 0. -1.
        -11    1    3    3    0    0 -0.87158570442E+01 -0.22195585986E+02 -0.10550257263E+02  0.26075239786E+02  0.51100000000E-03 0.  1.
        -12    1    3    3    0    0 -0.15113580903E+00  0.25365954356E+00  0.41665386593E+01  0.41769881010E+01  0.00000000000E+00 0.  1.
</event>
<event>
 7    1  0.2991278E-011  0.5052886E+02  0.7816164E-02  0.1300439E+00
        -11   -1    0    0    0    0  0.00000000000E+00  0.00000000000E+00  0.45593999997E+02  0.45594000000E+02  0.51100000000E-03 0.  1.
         11   -1    0    0    0    0 -0.00000000000E+00 -0.00000000000E+00 -0.45593999997E+02  0.45594000000E+02  0.51100000000E-03 0. -1.
    9900012    2    1    2    0    0 -0.58301508285E+01  0.30241282962E+02  0.26545047019E+02  0.50528863572E+02  0.30000011312E+02 0.  0.
         12    1    1    2    0    0  0.58301508285E+01 -0.30241282962E+02 -0.26545047019E+02  0.40659136428E+02  0.00000000000E+00 0. -1.
         11    1    3    3    0    0 -0.11232904973E+01  0.14635596585E+00  0.60755320980E+00  0.12854270784E+01  0.51100000000E-03 0. -1.
        -11    1    3    3    0    0  0.64254700413E+01  0.23499039355E+02  0.26870698543E+02  0.36270179987E+02  0.51100000000E-03 0.  1.
        -12    1    3    3    0    0 -0.11132330373E+02  0.65958876417E+01 -0.93320473392E+00  0.12973256506E+02  0.00000000000E+00 0.  1.
</event>
<event>
 7    1  0.2991278E-011  0.5052886E+02  0.7816164E-02  0.1300439E+00
        -11   -1    0    0    0    0  0.00000000000E+00  0.00000000000E+00  0.45593999997E+02  0.45594000000E+02  0.51100000000E-03 0. -1.
         11   -1    0    0    0    0 -0.00000000000E+00 -0.00000000000E+00 -0.45593999997E+02  0.45594000000E+02  0.51100000000E-03 0.  1.
    9900012    2    1    2    0    0  0.11535977855E+02 -0.37215167925E+02 -0.11624044150E+02  0.50528856980E+02  0.29999991276E+02 0.  0.
         12    1    1    2    0    0 -0.11535977855E+02  0.37215167925E+02  0.11624044150E+02  0.40659143020E+02  0.00000000000E+00 0. -1.
         11    1    3    3    0    0 -0.27458191363E+01 -0.13834389585E+01 -0.92028193889E+00  0.32094150852E+01  0.51100000000E-03 0. -1.
        -11    1    3    3    0    0  0.10973328800E+02 -0.21333476588E+02 -0.18716098951E+02  0.30427348364E+02  0.51100000000E-03 0.  1.
        -12    1    3    3    0    0  0.33084681907E+01 -0.14498252379E+02  0.80123367397E+01  0.16892093530E+02  0.00000000000E+00 0.  1.
</event>
<event>
 7    1  0.2991278E-011  0.5052885E+02  0.7816164E-02  0.1300439E+00
        -11   -1    0    0    0    0  0.00000000000E+00  0.00000000000E+00  0.45593999997E+02  0.45594000000E+02  0.51100000000E-03 0.  1.
         11   -1    0    0    0    0 -0.00000000000E+00 -0.00000000000E+00 -0.45593999997E+02  0.45594000000E+02  0.51100000000E-03 0. -1.
    9900012    2    1    2    0    0  0.24308089590E+01 -0.32350904472E+02  0.24508697814E+02  0.50528854401E+02  0.29999983436E+02 0.  0.
         12    1    1    2    0    0 -0.24308089590E+01  0.32350904472E+02 -0.24508697814E+02  0.40659145599E+02  0.00000000000E+00 0. -1.
         11    1    3    3    0    0  0.10528457726E+02 -0.21385045782E+02  0.19509419866E+02  0.30802371158E+02  0.51100000000E-03 0. -1.
        -11    1    3    3    0    0 -0.95853282022E+01 -0.12864212442E+02  0.24701306846E+01  0.16231698135E+02  0.51100000000E-03 0.  1.
         12    1    3    3    0    0  0.14876794347E+01  0.18983537519E+01  0.25291472630E+01  0.34947851072E+01  0.00000000000E+00 0. -1.
</event>
<event>
 7    1  0.2991278E-011  0.5052886E+02  0.7816164E-02  0.1300439E+00
        -11   -1    0    0    0    0  0.00000000000E+00  0.00000000000E+00  0.45593999997E+02  0.45594000000E+02  0.51100000000E-03 0.  1.
         11   -1    0    0    0    0 -0.00000000000E+00 -0.00000000000E+00 -0.45593999997E+02  0.45594000000E+02  0.51100000000E-03 0. -1.
    9900012    2    1    2    0    0 -0.26044315824E+02  0.25095337362E+02  0.18576421994E+02  0.50528858369E+02  0.29999995498E+02 0.  0.
         12    1    1    2    0    0  0.26044315824E+02 -0.25095337362E+02 -0.18576421994E+02  0.40659141631E+02  0.00000000000E+00 0. -1.
         11    1    3    3    0    0 -0.15970100392E+02  0.21964601440E+02  0.13130469206E+01  0.27188451876E+02  0.51100000000E-03 0. -1.
        -11    1    3    3    0    0  0.90462645796E+00 -0.20251077369E+00  0.93654151679E+01  0.94111827721E+01  0.51100000000E-03 0.  1.
         12    1    3    3    0    0 -0.10978841890E+02  0.33332466957E+01  0.78979599057E+01  0.13929223721E+02  0.00000000000E+00 0. -1.
</event>
<event>
 7    1  0.2991278E-011  0.5052876E+02  0.7816164E-02  0.1300439E+00
        -11   -1    0    0    0    0  0.00000000000E+00  0.00000000000E+00  0.45593999997E+02  0.45594000000E+02  0.51100000000E-03 0.  1.
         11   -1    0    0    0    0 -0.00000000000E+00 -0.00000000000E+00 -0.45593999997E+02  0.45594000000E+02  0.51100000000E-03 0. -1.
    9900012    2    1    2    0    0 -0.30911886617E+02  0.15209006060E+02  0.21594323614E+02  0.50528764740E+02  0.29999710903E+02 0.  0.
         12    1    1    2    0    0  0.30911886617E+02 -0.15209006060E+02 -0.21594323614E+02  0.40659235260E+02  0.00000000000E+00 0. -1.
         11    1    3    3    0    0 -0.57465702431E+01  0.17276197887E+02  0.73906534236E+01  0.19649728784E+02  0.51100000000E-03 0. -1.
        -11    1    3    3    0    0 -0.19950301395E+02  0.25298761973E+01  0.12642711147E+02  0.23754009024E+02  0.51100000000E-03 0.  1.
        -12    1    3    3    0    0 -0.52150149793E+01 -0.45970680240E+01  0.15609590440E+01  0.71250269325E+01  0.00000000000E+00 0.  1.
</event>
<event>
 7    1  0.2991278E-011  0.5052886E+02  0.7816164E-02  0.1300439E+00
        -11   -1    0    0    0    0  0.00000000000E+00  0.00000000000E+00  0.45593999997E+02  0.45594000000E+02  0.51100000000E-03 0. -1.
         11   -1    0    0    0    0 -0.00000000000E+00 -0.00000000000E+00 -0.45593999997E+02  0.45594000000E+02  0.51100000000E-03 0.  1.
    9900012    2    1    2    0    0 -0.33572327765E+02  0.15244119921E+02  0.17137132129E+02  0.50528859806E+02  0.29999999866E+02 0.  0.
         12    1    1    2    0    0  0.33572327765E+02 -0.15244119921E+02 -0.17137132129E+02  0.40659140194E+02  0.00000000000E+00 0. -1.
         11    1    3    3    0    0 -0.81111652714E+01  0.32850522638E+01  0.15068560661E+02  0.17425386397E+02  0.51100000000E-03 0. -1.
        -11    1    3    3    0    0 -0.56804564723E+01  0.11491634539E+02 -0.17936588135E+01  0.12943819464E+02  0.51100000000E-03 0.  1.
        -12    1    3    3    0    0 -0.19780706021E+02  0.46743311818E+00  0.38622302814E+01  0.20159653945E+02  0.00000000000E+00 0.  1.
</event>
<event>
 7    1  0.2991278E-011  0.5052892E+02  0.7816164E-02  0.1300439E+00
        -11   -1    0    0    0    0  0.00000000000E+00  0.00000000000E+00  0.45593999997E+02  0.45594000000E+02  0.51100000000E-03 0.  1.
         11   -1    0    0    0    0 -0.00000000000E+00 -0.00000000000E+00 -0.45593999997E+02  0.45594000000E+02  0.51100000000E-03 0. -1.
    9900012    2    1    2    0    0  0.21904955991E+01 -0.21589937450E+02  0.34383679262E+02  0.50528916517E+02  0.30000172246E+02 0.  0.
         12    1    1    2    0    0 -0.21904955991E+01  0.21589937450E+02 -0.34383679262E+02  0.40659083483E+02  0.00000000000E+00 0. -1.
         11    1    3    3    0    0 -0.85616328418E+00  0.21840992088E+01  0.85155257989E+01  0.88327506936E+01  0.51100000000E-03 0. -1.
        -11    1    3    3    0    0  0.70283856467E+01 -0.14120091139E+02  0.23277762033E+01  0.15943453857E+02  0.51100000000E-03 0.  1.
        -12    1    3    3    0    0 -0.39817267634E+01 -0.96539455197E+01  0.23540377260E+02  0.25752711967E+02  0.00000000000E+00 0.  1.
</event>
<event>
 7    1  0.2991278E-011  0.5052882E+02  0.7816164E-02  0.1300439E+00
        -11   -1    0    0    0    0  0.00000000000E+00  0.00000000000E+00  0.45593999997E+02  0.45594000000E+02  0.51100000000E-03 0. -1.
         11   -1    0    0    0    0 -0.00000000000E+00 -0.00000000000E+00 -0.45593999997E+02  0.45594000000E+02  0.51100000000E-03 0.  1.
    9900012    2    1    2    0    0 -0.26452881294E+02  0.30842112010E+02 -0.14759307008E+01  0.50528816862E+02  0.29999869333E+02 0.  0.
         12    1    1    2    0    0  0.26452881294E+02 -0.30842112010E+02  0.14759307008E+01  0.40659183138E+02  0.00000000000E+00 0. -1.
         11    1    3    3    0    0  0.19588366748E+01  0.90209606784E+01  0.12451112406E+01  0.93147772353E+01  0.51100000000E-03 0. -1.
        -11    1    3    3    0    0 -0.17853792013E+02  0.59458973853E+01 -0.93710127724E+01  0.21022070916E+02  0.51100000000E-03 0.  1.
         12    1    3    3    0    0 -0.10557925957E+02  0.15875253947E+02  0.66499708309E+01  0.20191968711E+02  0.00000000000E+00 0. -1.
</event>
<event>
 7    1  0.2991278E-011  0.5052887E+02  0.7816164E-02  0.1300439E+00
        -11   -1    0    0    0    0  0.00000000000E+00  0.00000000000E+00  0.45593999997E+02  0.45594000000E+02  0.51100000000E-03 0.  1.
         11   -1    0    0    0    0 -0.00000000000E+00 -0.00000000000E+00 -0.45593999997E+02  0.45594000000E+02  0.51100000000E-03 0. -1.
    9900012    2    1    2    0    0  0.35537782651E+02  0.19435927209E+02  0.35321347014E+01  0.50528865261E+02  0.30000016447E+02 0.  0.
         12    1    1    2    0    0 -0.35537782651E+02 -0.19435927209E+02 -0.35321347014E+01  0.40659134739E+02  0.00000000000E+00 0. -1.
         11    1    3    3    0    0  0.12131650959E+02  0.10737889807E+02 -0.81501946278E+01  0.18135735586E+02  0.51100000000E-03 0. -1.
        -11    1    3    3    0    0  0.13675387543E+02  0.12888972915E+02  0.11003422822E+02  0.21776527761E+02  0.51100000000E-03 0.  1.
         12    1    3    3    0    0  0.97307441481E+01 -0.41909355134E+01  0.67890650754E+00  0.10616601914E+02  0.00000000000E+00 0. -1.
</event>
<event>
 7    1  0.2991278E-011  0.5052886E+02  0.7816164E-02  0.1300439E+00
        -11   -1    0    0    0    0  0.00000000000E+00  0.00000000000E+00  0.45593999997E+02  0.45594000000E+02  0.51100000000E-03 0.  1.
         11   -1    0    0    0    0 -0.00000000000E+00 -0.00000000000E+00 -0.45593999997E+02  0.45594000000E+02  0.51100000000E-03 0. -1.
    9900012    2    1    2    0    0 -0.39185125936E+02  0.25919874215E+01  0.10534371400E+02  0.50528862353E+02  0.30000007607E+02 0.  0.
         12    1    1    2    0    0  0.39185125936E+02 -0.25919874215E+01 -0.10534371400E+02  0.40659137647E+02  0.00000000000E+00 0. -1.
         11    1    3    3    0    0 -0.22951921290E+01 -0.67687108240E+01 -0.36760662767E+01  0.80372144838E+01  0.51100000000E-03 0. -1.
        -11    1    3    3    0    0 -0.16880244545E+02  0.43665156137E+01  0.13153847723E+02  0.21841081124E+02  0.51100000000E-03 0.  1.
         12    1    3    3    0    0 -0.20009689263E+02  0.49941826317E+01  0.10565899537E+01  0.20650566745E+02  0.00000000000E+00 0. -1.
</event>
<event>
 7    1  0.2991278E-011  0.5052882E+02  0.7816164E-02  0.1300439E+00
        -11   -1    0    0    0    0  0.00000000000E+00  0.00000000000E+00  0.45593999997E+02  0.45594000000E+02  0.51100000000E-03 0. -1.
         11   -1    0    0    0    0 -0.00000000000E+00 -0.00000000000E+00 -0.45593999997E+02  0.45594000000E+02  0.51100000000E-03 0.  1.
    9900012    2    1    2    0    0 -0.10116394072E+02 -0.32846019038E+02 -0.21724787186E+02  0.50528821775E+02  0.29999884267E+02 0.  0.
         12    1    1    2    0    0  0.10116394072E+02  0.32846019038E+02  0.21724787186E+02  0.40659178225E+02  0.00000000000E+00 0. -1.
         11    1    3    3    0    0 -0.87671798634E+01 -0.15895239204E+02 -0.11217828373E+02  0.21339206774E+02  0.51100000000E-03 0. -1.
        -11    1    3    3    0    0  0.82276482219E+01 -0.11263885817E+02 -0.10440386404E+00  0.13949201389E+02  0.51100000000E-03 0.  1.
        -12    1    3    3    0    0 -0.95768624305E+01 -0.56868940172E+01 -0.10402554949E+02  0.15240413611E+02  0.00000000000E+00 0.  1.
</event>
<event>
 7    1  0.2991278E-011  0.5052887E+02  0.7816164E-02  0.1300439E+00
        -11   -1    0    0    0    0  0.00000000000E+00  0.00000000000E+00  0.45593999997E+02  0.45594000000E+02  0.51100000000E-03 0.  1.
         11   -1    0    0    0    0 -0.00000000000E+00 -0.00000000000E+00 -0.45593999997E+02  0.45594000000E+02  0.51100000000E-03 0. -1.
    9900012    2    1    2    0    0 -0.49013381076E+01 -0.47448346230E+01  0.40082764844E+02  0.50528873001E+02  0.30000039973E+02 0.  0.
         12    1    1    2    0    0  0.49013381076E+01  0.47448346230E+01 -0.40082764844E+02  0.40659126999E+02  0.00000000000E+00 0. -1.
         11    1    3    3    0    0 -0.35521057107E+01 -0.42026558430E-02  0.36213430360E+02  0.36387223188E+02  0.51100000000E-03 0. -1.
        -11    1    3    3    0    0  0.71622549310E+00  0.42756174187E+01  0.15661322929E+01  0.46094092776E+01  0.51100000000E-03 0.  1.
         12    1    3    3    0    0 -0.20654578900E+01 -0.90162493859E+01  0.23032021907E+01  0.95322405349E+01  0.00000000000E+00 0. -1.
</event>
<event>
 7    1  0.2991278E-011  0.5052886E+02  0.7816164E-02  0.1300439E+00
        -11   -1    0    0    0    0  0.00000000000E+00  0.00000000000E+00  0.45593999997E+02  0.45594000000E+02  0.51100000000E-03 0.  1.
         11   -1    0    0    0    0 -0.00000000000E+00 -0.00000000000E+00 -0.45593999997E+02  0.45594000000E+02  0.51100000000E-03 0. -1.
    9900012    2    1    2    0    0 -0.61045010450E+00 -0.36988002232E+02  0.16872492792E+02  0.50528856238E+02  0.29999989022E+02 0.  0.
         12    1    1    2    0    0  0.61045010450E+00  0.36988002232E+02 -0.16872492792E+02  0.40659143762E+02  0.00000000000E+00 0. -1.
         11    1    3    3    0    0  0.28937586359E+01 -0.18866430975E+02 -0.17726940854E+01  0.19169207114E+02  0.51100000000E-03 0. -1.
        -11    1    3    3    0    0 -0.52867300521E+01 -0.14309474672E+01  0.12211278991E+02  0.13383290333E+02  0.51100000000E-03 0.  1.
        -12    1    3    3    0    0  0.17825213117E+01 -0.16690623789E+02  0.64339078864E+01  0.17976358791E+02  0.00000000000E+00 0.  1.
</event>
<event>
 7    1  0.2991278E-011  0.5052886E+02  0.7816164E-02  0.1300439E+00
        -11   -1    0    0    0    0  0.00000000000E+00  0.00000000000E+00  0.45593999997E+02  0.45594000000E+02  0.51100000000E-03 0.  1.
         11   -1    0    0    0    0 -0.00000000000E+00 -0.00000000000E+00 -0.45593999997E+02  0.45594000000E+02  0.51100000000E-03 0. -1.
    9900012    2    1    2    0    0 -0.10369903961E+02  0.23193247659E+02 -0.31744351888E+02  0.50528861767E+02  0.30000005826E+02 0.  0.
         12    1    1    2    0    0  0.10369903961E+02 -0.23193247659E+02  0.31744351888E+02  0.40659138233E+02  0.00000000000E+00 0. -1.
         11    1    3    3    0    0  0.53791350054E+01  0.19391835084E+02 -0.25868317793E+02  0.32774200631E+02  0.51100000000E-03 0. -1.
        -11    1    3    3    0    0 -0.15469760021E+02  0.44035920121E+01 -0.57341502721E+01  0.17075877058E+02  0.51100000000E-03 0.  1.
         12    1    3    3    0    0 -0.27927894612E+00 -0.60217943707E+00 -0.14188382270E+00  0.67878407710E+00  0.00000000000E+00 0. -1.
</event>
<event>
 7    1  0.2991278E-011  0.5052886E+02  0.7816164E-02  0.1300439E+00
        -11   -1    0    0    0    0  0.00000000000E+00  0.00000000000E+00  0.45593999997E+02  0.45594000000E+02  0.51100000000E-03 0.  1.
         11   -1    0    0    0    0 -0.00000000000E+00 -0.00000000000E+00 -0.45593999997E+02  0.45594000000E+02  0.51100000000E-03 0. -1.
    9900012    2    1    2    0    0  0.86073937792E+01 -0.22085753260E+02  0.33034800789E+02  0.50528858496E+02  0.29999995883E+02 0.  0.
         12    1    1    2    0    0 -0.86073937792E+01  0.22085753260E+02 -0.33034800789E+02  0.40659141504E+02  0.00000000000E+00 0. -1.
         11    1    3    3    0    0 -0.71372276291E+01 -0.27762500976E+01  0.54514914981E+01  0.94003373689E+01  0.51100000000E-03 0. -1.
        -11    1    3    3    0    0  0.14567400189E+02 -0.22562805474E+02  0.25777249796E+02  0.37225743061E+02  0.51100000000E-03 0.  1.
        -12    1    3    3    0    0  0.11772212195E+01  0.32533023119E+01  0.18060594945E+01  0.39027780657E+01  0.00000000000E+00 0.  1.
</event>
<event>
 7    1  0.2991278E-011  0.5052886E+02  0.7816164E-02  0.1300439E+00
        -11   -1    0    0    0    0  0.00000000000E+00  0.00000000000E+00  0.45593999997E+02  0.45594000000E+02  0.51100000000E-03 0. -1.
         11   -1    0    0    0    0 -0.00000000000E+00 -0.00000000000E+00 -0.45593999997E+02  0.45594000000E+02  0.51100000000E-03 0.  1.
    9900012    2    1    2    0    0 -0.15794290021E+02  0.34173363501E+01 -0.37309890558E+02  0.50528859350E+02  0.29999998480E+02 0.  0.
         12    1    1    2    0    0  0.15794290021E+02 -0.34173363501E+01  0.37309890558E+02  0.40659140650E+02  0.00000000000E+00 0. -1.
         11    1    3    3    0    0 -0.13145371996E+02  0.10117780037E+02 -0.71169374453E+01  0.18050514581E+02  0.51100000000E-03 0. -1.
        -11    1    3    3    0    0 -0.10920086720E+01 -0.70569033345E+01 -0.10368211354E+02  0.12589367520E+02  0.51100000000E-03 0.  1.
         12    1    3    3    0    0 -0.15569093528E+01  0.35645964804E+00 -0.19824741759E+02  0.19888977249E+02  0.00000000000E+00 0. -1.
</event>
<event>
 7    1  0.2991278E-011  0.5052886E+02  0.7816164E-02  0.1300439E+00
        -11   -1    0    0    0    0  0.00000000000E+00  0.00000000000E+00  0.45593999997E+02  0.45594000000E+02  0.51100000000E-03 0. -1.
         11   -1    0    0    0    0 -0.00000000000E+00 -0.00000000000E+00 -0.45593999997E+02  0.45594000000E+02  0.51100000000E-03 0.  1.
    9900012    2    1    2    0    0 -0.46823762053E+01 -0.24832140473E+02 -0.31852874934E+02  0.50528862172E+02  0.30000007058E+02 0.  0.
         12    1    1    2    0    0  0.46823762053E+01  0.24832140473E+02  0.31852874934E+02  0.40659137828E+02  0.00000000000E+00 0. -1.
         11    1    3    3    0    0 -0.73295910367E+01 -0.16052137791E+02 -0.29950986711E+02  0.34762848526E+02  0.51100000000E-03 0. -1.
        -11    1    3    3    0    0 -0.48476782141E+01 -0.58354432129E+01 -0.12309054885E+01  0.76855390273E+01  0.51100000000E-03 0.  1.
         12    1    3    3    0    0  0.74948930455E+01 -0.29445594690E+01 -0.67098273397E+00  0.80804746185E+01  0.00000000000E+00 0. -1.
</event>
<event>
 7    1  0.2991278E-011  0.5052886E+02  0.7816164E-02  0.1300439E+00
        -11   -1    0    0    0    0  0.00000000000E+00  0.00000000000E+00  0.45593999997E+02  0.45594000000E+02  0.51100000000E-03 0.  1.
         11   -1    0    0    0    0 -0.00000000000E+00 -0.00000000000E+00 -0.45593999997E+02  0.45594000000E+02  0.51100000000E-03 0. -1.
    9900012    2    1    2    0    0 -0.35997132168E+02  0.16551557395E+02 -0.91333491076E+01  0.50528860284E+02  0.30000001320E+02 0.  0.
         12    1    1    2    0    0  0.35997132168E+02 -0.16551557395E+02  0.91333491076E+01  0.40659139716E+02  0.00000000000E+00 0. -1.
         11    1    3    3    0    0 -0.10263686137E+02  0.23763594951E+01  0.10608913766E+02  0.14951233699E+02  0.51100000000E-03 0. -1.
        -11    1    3    3    0    0 -0.20787068936E+02  0.10894413453E+02 -0.17314795796E+02  0.29164921278E+02  0.51100000000E-03 0.  1.
         12    1    3    3    0    0 -0.49463770948E+01  0.32807844468E+01 -0.24274670768E+01  0.64127053074E+01  0.00000000000E+00 0. -1.
</event>
<event>
 7    1  0.2991278E-011  0.5052885E+02  0.7816164E-02  0.1300439E+00
        -11   -1    0    0    0    0  0.00000000000E+00  0.00000000000E+00  0.45593999997E+02  0.45594000000E+02  0.51100000000E-03 0.  1.
         11   -1    0    0    0    0 -0.00000000000E+00 -0.00000000000E+00 -0.45593999997E+02  0.45594000000E+02  0.51100000000E-03 0. -1.
    9900012    2    1    2    0    0  0.17054464143E+02 -0.63870802033E+00  0.36903981596E+02  0.50528849089E+02  0.29999967291E+02 0.  0.
         12    1    1    2    0    0 -0.17054464143E+02  0.63870802033E+00 -0.36903981596E+02  0.40659150911E+02  0.00000000000E+00 0. -1.
         11    1    3    3    0    0  0.10543624032E+02  0.11893751559E+02  0.98625434419E+01  0.18705590001E+02  0.51100000000E-03 0. -1.
        -11    1    3    3    0    0  0.52568724241E+01 -0.40378817499E+01  0.54310210378E+01  0.85694332650E+01  0.51100000000E-03 0.  1.
         12    1    3    3    0    0  0.12539676866E+01 -0.84945778291E+01  0.21610417117E+02  0.23253825823E+02  0.00000000000E+00 0. -1.
</event>
<event>
 7    1  0.2991278E-011  0.5052886E+02  0.7816164E-02  0.1300439E+00
        -11   -1    0    0    0    0  0.00000000000E+00  0.00000000000E+00  0.45593999997E+02  0.45594000000E+02  0.51100000000E-03 0.  1.
         11   -1    0    0    0    0 -0.00000000000E+00 -0.00000000000E+00 -0.45593999997E+02  0.45594000000E+02  0.51100000000E-03 0. -1.
    9900012    2    1    2    0    0  0.45480007999E+01 -0.42914809084E+01  0.40175426721E+02  0.50528855495E+02  0.29999986762E+02 0.  0.
         12    1    1    2    0    0 -0.45480007999E+01  0.42914809084E+01 -0.40175426721E+02  0.40659144505E+02  0.00000000000E+00 0. -1.
         11    1    3    3    0    0  0.39239062816E+01 -0.34628839149E+01  0.16719555628E+01  0.54940004715E+01  0.51100000000E-03 0. -1.
        -11    1    3    3    0    0  0.36143020065E+01  0.10722447955E+02  0.20942807702E+02  0.23804101828E+02  0.51100000000E-03 0.  1.
        -12    1    3    3    0    0 -0.29902074882E+01 -0.11551044948E+02  0.17560663457E+02  0.21230753196E+02  0.00000000000E+00 0.  1.
</event>
<event>
 7    1  0.2991278E-011  0.5052887E+02  0.7816164E-02  0.1300439E+00
        -11   -1    0    0    0    0  0.00000000000E+00  0.00000000000E+00  0.45593999997E+02  0.45594000000E+02  0.51100000000E-03 0.  1.
         11   -1    0    0    0    0 -0.00000000000E+00 -0.00000000000E+00 -0.45593999997E+02  0.45594000000E+02  0.51100000000E-03 0. -1.
    9900012    2    1    2    0    0 -0.58115570284E+01  0.36776474535E+02  0.16336517469E+02  0.50528867234E+02  0.30000022444E+02 0.  0.
         12    1    1    2    0    0  0.58115570284E+01 -0.36776474535E+02 -0.16336517469E+02  0.40659132766E+02  0.00000000000E+00 0. -1.
         11    1    3    3    0    0 -0.30210174721E+01  0.65003412676E+00 -0.72511506906E+00  0.31740956283E+01  0.51100000000E-03 0. -1.
        -11    1    3    3    0    0  0.28317424114E+00  0.35235136691E+02  0.21948645897E+02  0.41513107596E+02  0.51100000000E-03 0.  1.
        -12    1    3    3    0    0 -0.30737137974E+01  0.89130371733E+00 -0.48870133598E+01  0.58416640098E+01  0.00000000000E+00 0.  1.
</event>
<event>
 7    1  0.2991278E-011  0.5052884E+02  0.7816164E-02  0.1300439E+00
        -11   -1    0    0    0    0  0.00000000000E+00  0.00000000000E+00  0.45593999997E+02  0.45594000000E+02  0.51100000000E-03 0. -1.
         11   -1    0    0    0    0 -0.00000000000E+00 -0.00000000000E+00 -0.45593999997E+02  0.45594000000E+02  0.51100000000E-03 0.  1.
    9900012    2    1    2    0    0 -0.37455913606E+02 -0.15814671797E+02 -0.34301062859E+00  0.50528844027E+02  0.29999951905E+02 0.  0.
         12    1    1    2    0    0  0.37455913606E+02  0.15814671797E+02  0.34301062859E+00  0.40659155973E+02  0.00000000000E+00 0. -1.
         11    1    3    3    0    0 -0.16458274547E+02  0.34716426956E+01 -0.68409586524E+01  0.18158353990E+02  0.51100000000E-03 0. -1.
        -11    1    3    3    0    0 -0.17158714198E+01 -0.10158462479E+02  0.10711392986E+01  0.10357891403E+02  0.51100000000E-03 0.  1.
         12    1    3    3    0    0 -0.19281767639E+02 -0.91278520141E+01  0.54268087251E+01  0.22012598634E+02  0.00000000000E+00 0. -1.
</event>
<event>
 7    1  0.2991278E-011  0.5052887E+02  0.7816164E-02  0.1300439E+00
        -11   -1    0    0    0    0  0.00000000000E+00  0.00000000000E+00  0.45593999997E+02  0.45594000000E+02  0.51100000000E-03 0.  1.
         11   -1    0    0    0    0 -0.00000000000E+00 -0.00000000000E+00 -0.45593999997E+02  0.45594000000E+02  0.51100000000E-03 0. -1.
    9900012    2    1    2    0    0 -0.23064702876E+02  0.51719295998E+01  0.33082256636E+02  0.50528867217E+02  0.30000022392E+02 0.  0.
         12    1    1    2    0    0  0.23064702876E+02 -0.51719295998E+01 -0.33082256636E+02  0.40659132783E+02  0.00000000000E+00 0. -1.
         11    1    3    3    0    0 -0.14561629498E+02  0.15323256837E+02  0.13634428037E+02  0.25154341213E+02  0.51100000000E-03 0. -1.
        -11    1    3    3    0    0 -0.34068421775E+01 -0.10645376553E+02  0.13184677888E+02  0.17284858891E+02  0.51100000000E-03 0.  1.
        -12    1    3    3    0    0 -0.50962312008E+01  0.49404931649E+00  0.62631507102E+01  0.80896671129E+01  0.00000000000E+00 0.  1.
</event>
<event>
 7    1  0.2991278E-011  0.5052887E+02  0.7816164E-02  0.1300439E+00
        -11   -1    0    0    0    0  0.00000000000E+00  0.00000000000E+00  0.45593999997E+02  0.45594000000E+02  0.51100000000E-03 0.  1.
         11   -1    0    0    0    0 -0.00000000000E+00 -0.00000000000E+00 -0.45593999997E+02  0.45594000000E+02  0.51100000000E-03 0. -1.
    9900012    2    1    2    0    0  0.20623274652E+02 -0.19965258026E+02  0.28796421082E+02  0.50528869997E+02  0.30000030844E+02 0.  0.
         12    1    1    2    0    0 -0.20623274652E+02  0.19965258026E+02 -0.28796421082E+02  0.40659130003E+02  0.00000000000E+00 0. -1.
         11    1    3    3    0    0 -0.10614139710E+01 -0.10300738043E+02 -0.17769087325E+01  0.10506626897E+02  0.51100000000E-03 0.  1.
        -11    1    3    3    0    0  0.49780984348E+01 -0.27154795152E+01  0.15390665128E+02  0.16402068966E+02  0.51100000000E-03 0. -1.
        -12    1    3    3    0    0  0.16706590188E+02 -0.69490404676E+01  0.15182664687E+02  0.23620174134E+02  0.00000000000E+00 0.  1.
</event>
<event>
 7    1  0.2991278E-011  0.5052885E+02  0.7816164E-02  0.1300439E+00
        -11   -1    0    0    0    0  0.00000000000E+00  0.00000000000E+00  0.45593999997E+02  0.45594000000E+02  0.51100000000E-03 0.  1.
         11   -1    0    0    0    0 -0.00000000000E+00 -0.00000000000E+00 -0.45593999997E+02  0.45594000000E+02  0.51100000000E-03 0. -1.
    9900012    2    1    2    0    0 -0.85739974996E+01  0.39553670490E+02 -0.38936073983E+01  0.50528850218E+02  0.29999970724E+02 0.  0.
         12    1    1    2    0    0  0.85739974996E+01 -0.39553670490E+02  0.38936073983E+01  0.40659149782E+02  0.00000000000E+00 0. -1.
         11    1    3    3    0    0  0.48894823572E+01  0.27152217659E+02 -0.39142238044E+01  0.27865231199E+02  0.51100000000E-03 0. -1.
        -11    1    3    3    0    0 -0.12465304399E+02  0.42808237302E+01 -0.36798486998E+01  0.13683952364E+02  0.51100000000E-03 0.  1.
        -12    1    3    3    0    0 -0.99817545737E+00  0.81206291012E+01  0.37004651059E+01  0.89796666555E+01  0.00000000000E+00 0.  1.
</event>
<event>
 7    1  0.2991278E-011  0.5052885E+02  0.7816164E-02  0.1300439E+00
        -11   -1    0    0    0    0  0.00000000000E+00  0.00000000000E+00  0.45593999997E+02  0.45594000000E+02  0.51100000000E-03 0.  1.
         11   -1    0    0    0    0 -0.00000000000E+00 -0.00000000000E+00 -0.45593999997E+02  0.45594000000E+02  0.51100000000E-03 0. -1.
    9900012    2    1    2    0    0  0.23104082757E+02 -0.29137709290E+02  0.16442675292E+02  0.50528852032E+02  0.29999976236E+02 0.  0.
         12    1    1    2    0    0 -0.23104082757E+02  0.29137709290E+02 -0.16442675292E+02  0.40659147968E+02  0.00000000000E+00 0. -1.
         11    1    3    3    0    0  0.14681984903E+02 -0.87991949155E+01 -0.41233299489E+01  0.17606486361E+02  0.51100000000E-03 0. -1.
        -11    1    3    3    0    0  0.78706768652E+01 -0.18403744461E+02  0.10395207052E+02  0.22554504970E+02  0.51100000000E-03 0.  1.
         12    1    3    3    0    0  0.55142098959E+00 -0.19347699132E+01  0.10170798189E+02  0.10367860702E+02  0.00000000000E+00 0. -1.
</event>
<event>
 7    1  0.2991278E-011  0.5052886E+02  0.7816164E-02  0.1300439E+00
        -11   -1    0    0    0    0  0.00000000000E+00  0.00000000000E+00  0.45593999997E+02  0.45594000000E+02  0.51100000000E-03 0.  1.
         11   -1    0    0    0    0 -0.00000000000E+00 -0.00000000000E+00 -0.45593999997E+02  0.45594000000E+02  0.51100000000E-03 0. -1.
    9900012    2    1    2    0    0  0.16300532948E+02 -0.36158332917E+02  0.89461408380E+01  0.50528857737E+02  0.29999993577E+02 0.  0.
         12    1    1    2    0    0 -0.16300532948E+02  0.36158332917E+02 -0.89461408380E+01  0.40659142263E+02  0.00000000000E+00 0. -1.
         11    1    3    3    0    0  0.15315854149E+02 -0.13112540084E+02 -0.14058124006E+01  0.20211145553E+02  0.51100000000E-03 0. -1.
        -11    1    3    3    0    0 -0.82872849098E+00  0.75643352725E+00  0.59364647628E+01  0.60415723727E+01  0.51100000000E-03 0.  1.
         12    1    3    3    0    0  0.18134072895E+01 -0.23802226360E+02  0.44154884758E+01  0.24276139811E+02  0.00000000000E+00 0. -1.
</event>
<event>
 7    1  0.2991278E-011  0.5052887E+02  0.7816164E-02  0.1300439E+00
        -11   -1    0    0    0    0  0.00000000000E+00  0.00000000000E+00  0.45593999997E+02  0.45594000000E+02  0.51100000000E-03 0.  1.
         11   -1    0    0    0    0 -0.00000000000E+00 -0.00000000000E+00 -0.45593999997E+02  0.45594000000E+02  0.51100000000E-03 0. -1.
    9900012    2    1    2    0    0  0.12006807284E+02  0.79115978312E+01  0.38031676225E+02  0.50528865751E+02  0.30000017936E+02 0.  0.
         12    1    1    2    0    0 -0.12006807284E+02 -0.79115978312E+01 -0.38031676225E+02  0.40659134249E+02  0.00000000000E+00 0. -1.
         11    1    3    3    0    0 -0.27142051750E+01  0.15152254578E+02  0.20648356908E+02  0.25754851423E+02  0.51100000000E-03 0. -1.
        -11    1    3    3    0    0  0.73656378603E+01 -0.14722841354E+00  0.62385684775E+01  0.96537057239E+01  0.51100000000E-03 0.  1.
         12    1    3    3    0    0  0.73553745988E+01 -0.70934283334E+01  0.11144750840E+02  0.15120308604E+02  0.00000000000E+00 0. -1.
</event>
<event>
 7    1  0.2991278E-011  0.5052885E+02  0.7816164E-02  0.1300439E+00
        -11   -1    0    0    0    0  0.00000000000E+00  0.00000000000E+00  0.45593999997E+02  0.45594000000E+02  0.51100000000E-03 0. -1.
         11   -1    0    0    0    0 -0.00000000000E+00 -0.00000000000E+00 -0.45593999997E+02  0.45594000000E+02  0.51100000000E-03 0.  1.
    9900012    2    1    2    0    0  0.21409895204E+02  0.30013270472E+02 -0.17146038035E+02  0.50528848049E+02  0.29999964130E+02 0.  0.
         12    1    1    2    0    0 -0.21409895204E+02 -0.30013270472E+02  0.17146038035E+02  0.40659151951E+02  0.00000000000E+00 0. -1.
         11    1    3    3    0    0  0.44475613699E+00  0.71277474596E+01 -0.23379066450E+00  0.71454356204E+01  0.51100000000E-03 0. -1.
        -11    1    3    3    0    0  0.12537334478E+02 -0.13088743628E+01  0.14166430868E+00  0.12606267367E+02  0.51100000000E-03 0.  1.
        -12    1    3    3    0    0  0.84278045890E+01  0.24194397375E+02 -0.17053911680E+02  0.30777145061E+02  0.00000000000E+00 0.  1.
</event>
<event>
 7    1  0.2991278E-011  0.5052887E+02  0.7816164E-02  0.1300439E+00
        -11   -1    0    0    0    0  0.00000000000E+00  0.00000000000E+00  0.45593999997E+02  0.45594000000E+02  0.51100000000E-03 0.  1.
         11   -1    0    0    0    0 -0.00000000000E+00 -0.00000000000E+00 -0.45593999997E+02  0.45594000000E+02  0.51100000000E-03 0. -1.
    9900012    2    1    2    0    0 -0.61870084265E+01  0.32765716342E+02  0.23265725470E+02  0.50528865450E+02  0.30000017023E+02 0.  0.
         12    1    1    2    0    0  0.61870084265E+01 -0.32765716342E+02 -0.23265725470E+02  0.40659134550E+02  0.00000000000E+00 0. -1.
         11    1    3    3    0    0  0.11494880592E+02  0.16384584731E+02  0.99088072403E+01  0.22333189602E+02  0.51100000000E-03 0. -1.
        -11    1    3    3    0    0 -0.75767996916E+01  0.32828196217E+01  0.37935059434E+01  0.90871054709E+01  0.51100000000E-03 0.  1.
         12    1    3    3    0    0 -0.10105089327E+02  0.13098311990E+02  0.95634122859E+01  0.19108570377E+02  0.00000000000E+00 0. -1.
</event>
<event>
 7    1  0.2991278E-011  0.5052871E+02  0.7816164E-02  0.1300439E+00
        -11   -1    0    0    0    0  0.00000000000E+00  0.00000000000E+00  0.45593999997E+02  0.45594000000E+02  0.51100000000E-03 0.  1.
         11   -1    0    0    0    0 -0.00000000000E+00 -0.00000000000E+00 -0.45593999997E+02  0.45594000000E+02  0.51100000000E-03 0. -1.
    9900012    2    1    2    0    0 -0.17782078629E+02  0.15452333684E+02  0.33139109169E+02  0.50528714551E+02  0.29999558347E+02 0.  0.
         12    1    1    2    0    0  0.17782078629E+02 -0.15452333684E+02 -0.33139109169E+02  0.40659285449E+02  0.00000000000E+00 0. -1.
         11    1    3    3    0    0 -0.35575837560E+01 -0.46696023407E+01 -0.83389550343E+00  0.59293313429E+01  0.51100000000E-03 0. -1.
        -11    1    3    3    0    0 -0.14772191246E+02  0.17013573870E+02  0.19536997038E+02  0.29822367168E+02  0.51100000000E-03 0.  1.
        -12    1    3    3    0    0  0.54769637241E+00  0.31083621547E+01  0.14436007635E+02  0.14777016040E+02  0.00000000000E+00 0.  1.
</event>
<event>
 7    1  0.2991278E-011  0.5052886E+02  0.7816164E-02  0.1300439E+00
        -11   -1    0    0    0    0  0.00000000000E+00  0.00000000000E+00  0.45593999997E+02  0.45594000000E+02  0.51100000000E-03 0. -1.
         11   -1    0    0    0    0 -0.00000000000E+00 -0.00000000000E+00 -0.45593999997E+02  0.45594000000E+02  0.51100000000E-03 0.  1.
    9900012    2    1    2    0    0  0.24307572767E+02  0.26256991031E+02 -0.19310043752E+02  0.50528862508E+02  0.30000008081E+02 0.  0.
         12    1    1    2    0    0 -0.24307572767E+02 -0.26256991031E+02  0.19310043752E+02  0.40659137492E+02  0.00000000000E+00 0. -1.
         11    1    3    3    0    0  0.19299654015E+01 -0.99529353775E+00  0.15965970362E+01  0.26952732764E+01  0.51100000000E-03 0. -1.
        -11    1    3    3    0    0  0.21009317215E+02  0.12033893689E+02 -0.21728059564E+02  0.32531747260E+02  0.51100000000E-03 0.  1.
        -12    1    3    3    0    0  0.13682901510E+01  0.15218390880E+02  0.82141877550E+00  0.15301841972E+02  0.00000000000E+00 0.  1.
</event>
<event>
 7    1  0.2991278E-011  0.5052887E+02  0.7816164E-02  0.1300439E+00
        -11   -1    0    0    0    0  0.00000000000E+00  0.00000000000E+00  0.45593999997E+02  0.45594000000E+02  0.51100000000E-03 0.  1.
         11   -1    0    0    0    0 -0.00000000000E+00 -0.00000000000E+00 -0.45593999997E+02  0.45594000000E+02  0.51100000000E-03 0. -1.
    9900012    2    1    2    0    0  0.14186728368E+02  0.35640237091E+02  0.13478681531E+02  0.50528872888E+02  0.30000039632E+02 0.  0.
         12    1    1    2    0    0 -0.14186728368E+02 -0.35640237091E+02 -0.13478681531E+02  0.40659127112E+02  0.00000000000E+00 0. -1.
         11    1    3    3    0    0 -0.16224024426E+01  0.59203821835E+01  0.13696499655E+02  0.15009237754E+02  0.51100000000E-03 0.  1.
        -11    1    3    3    0    0  0.16064937799E+02  0.23536771115E+02  0.28013240758E+01  0.28634057307E+02  0.51100000000E-03 0. -1.
         12    1    3    3    0    0 -0.25580698866E+00  0.61830837923E+01 -0.30191422001E+01  0.68855778278E+01  0.00000000000E+00 0. -1.
</event>
<event>
 7    1  0.2991278E-011  0.5052886E+02  0.7816164E-02  0.1300439E+00
        -11   -1    0    0    0    0  0.00000000000E+00  0.00000000000E+00  0.45593999997E+02  0.45594000000E+02  0.51100000000E-03 0.  1.
         11   -1    0    0    0    0 -0.00000000000E+00 -0.00000000000E+00 -0.45593999997E+02  0.45594000000E+02  0.51100000000E-03 0. -1.
    9900012    2    1    2    0    0  0.22886009968E+02  0.30427051959E+02  0.14268515707E+02  0.50528862236E+02  0.30000007253E+02 0.  0.
         12    1    1    2    0    0 -0.22886009968E+02 -0.30427051959E+02 -0.14268515707E+02  0.40659137764E+02  0.00000000000E+00 0. -1.
         11    1    3    3    0    0  0.33594632321E+01 -0.23843452184E+00 -0.63769428718E+01  0.72116742079E+01  0.51100000000E-03 0. -1.
        -11    1    3    3    0    0  0.10613646275E+02  0.25695407816E+02  0.13881244193E+02  0.31073982859E+02  0.51100000000E-03 0.  1.
         12    1    3    3    0    0  0.89129004615E+01  0.49700786650E+01  0.67642143857E+01  0.12243205170E+02  0.00000000000E+00 0. -1.
</event>
<event>
 7    1  0.2991278E-011  0.5052886E+02  0.7816164E-02  0.1300439E+00
        -11   -1    0    0    0    0  0.00000000000E+00  0.00000000000E+00  0.45593999997E+02  0.45594000000E+02  0.51100000000E-03 0.  1.
         11   -1    0    0    0    0 -0.00000000000E+00 -0.00000000000E+00 -0.45593999997E+02  0.45594000000E+02  0.51100000000E-03 0. -1.
    9900012    2    1    2    0    0 -0.40639357380E+02  0.63525926889E+00  0.10975090637E+01  0.50528862666E+02  0.30000008559E+02 0.  0.
         12    1    1    2    0    0  0.40639357380E+02 -0.63525926889E+00 -0.10975090637E+01  0.40659137334E+02  0.00000000000E+00 0. -1.
         11    1    3    3    0    0 -0.86845459523E+01 -0.85409408058E+01  0.25102704180E+01  0.12436658156E+02  0.51100000000E-03 0. -1.
        -11    1    3    3    0    0 -0.27207016022E+02  0.14582277986E+02 -0.97310027643E+00  0.30883838435E+02  0.51100000000E-03 0.  1.
        -12    1    3    3    0    0 -0.47477954059E+01 -0.54060779117E+01 -0.43966107786E+00  0.72083660747E+01  0.00000000000E+00 0.  1.
</event>
<event>
 7    1  0.2991278E-011  0.5052887E+02  0.7816164E-02  0.1300439E+00
        -11   -1    0    0    0    0  0.00000000000E+00  0.00000000000E+00  0.45593999997E+02  0.45594000000E+02  0.51100000000E-03 0. -1.
         11   -1    0    0    0    0 -0.00000000000E+00 -0.00000000000E+00 -0.45593999997E+02  0.45594000000E+02  0.51100000000E-03 0.  1.
    9900012    2    1    2    0    0 -0.21541583484E+02 -0.30543445308E+02 -0.16006965052E+02  0.50528870639E+02  0.30000032793E+02 0.  0.
         12    1    1    2    0    0  0.21541583484E+02  0.30543445308E+02  0.16006965052E+02  0.40659129361E+02  0.00000000000E+00 0. -1.
         11    1    3    3    0    0 -0.11959701612E+02 -0.20857697560E+02 -0.18543781812E+02  0.30363627160E+02  0.51100000000E-03 0. -1.
        -11    1    3    3    0    0 -0.24529737905E+01 -0.12197007216E+02  0.18076964979E+01  0.12571866700E+02  0.51100000000E-03 0.  1.
         12    1    3    3    0    0 -0.71289080812E+01  0.25112594680E+01  0.72912026229E+00  0.75933767786E+01  0.00000000000E+00 0. -1.
</event>
<event>
 7    1  0.2991278E-011  0.5052886E+02  0.7816164E-02  0.1300439E+00
        -11   -1    0    0    0    0  0.00000000000E+00  0.00000000000E+00  0.45593999997E+02  0.45594000000E+02  0.51100000000E-03 0.  1.
         11   -1    0    0    0    0 -0.00000000000E+00 -0.00000000000E+00 -0.45593999997E+02  0.45594000000E+02  0.51100000000E-03 0. -1.
    9900012    2    1    2    0    0 -0.89397903710E+01 -0.10680694697E+02  0.38199064332E+02  0.50528860720E+02  0.30000002645E+02 0.  0.
         12    1    1    2    0    0  0.89397903710E+01  0.10680694697E+02 -0.38199064332E+02  0.40659139280E+02  0.00000000000E+00 0. -1.
         11    1    3    3    0    0 -0.79467776657E+00 -0.61696057451E+01 -0.21021488739E+01  0.65661691991E+01  0.51100000000E-03 0.  1.
        -11    1    3    3    0    0 -0.69562081585E+01  0.36928012368E+01  0.28310208820E+02  0.29385260533E+02  0.51100000000E-03 0. -1.
         12    1    3    3    0    0 -0.11889044459E+01 -0.82038901888E+01  0.11991004386E+02  0.14577430988E+02  0.00000000000E+00 0. -1.
</event>
<event>
 7    1  0.2991278E-011  0.5052886E+02  0.7816164E-02  0.1300439E+00
        -11   -1    0    0    0    0  0.00000000000E+00  0.00000000000E+00  0.45593999997E+02  0.45594000000E+02  0.51100000000E-03 0. -1.
         11   -1    0    0    0    0 -0.00000000000E+00 -0.00000000000E+00 -0.45593999997E+02  0.45594000000E+02  0.51100000000E-03 0.  1.
    9900012    2    1    2    0    0  0.15977664622E+02 -0.21364919689E+02 -0.30682576185E+02  0.50528855377E+02  0.29999986405E+02 0.  0.
         12    1    1    2    0    0 -0.15977664622E+02  0.21364919689E+02  0.30682576185E+02  0.40659144623E+02  0.00000000000E+00 0. -1.
         11    1    3    3    0    0  0.11056638807E+02 -0.20113590608E+02 -0.19297170994E+02  0.29986440227E+02  0.51100000000E-03 0.  1.
        -11    1    3    3    0    0  0.84215288794E+01  0.45568887579E+00  0.79363047515E-01  0.84342219423E+01  0.51100000000E-03 0. -1.
         12    1    3    3    0    0 -0.35005030642E+01 -0.17070179574E+01 -0.11464768238E+02  0.12108193208E+02  0.00000000000E+00 0. -1.
</event>
<event>
 7    1  0.2991278E-011  0.5052885E+02  0.7816164E-02  0.1300439E+00
        -11   -1    0    0    0    0  0.00000000000E+00  0.00000000000E+00  0.45593999997E+02  0.45594000000E+02  0.51100000000E-03 0.  1.
         11   -1    0    0    0    0 -0.00000000000E+00 -0.00000000000E+00 -0.45593999997E+02  0.45594000000E+02  0.51100000000E-03 0. -1.
    9900012    2    1    2    0    0 -0.29781566839E+02  0.25762064538E+02  0.10126239065E+02  0.50528850842E+02  0.29999972619E+02 0.  0.
         12    1    1    2    0    0  0.29781566839E+02 -0.25762064538E+02 -0.10126239065E+02  0.40659149158E+02  0.00000000000E+00 0. -1.
         11    1    3    3    0    0 -0.20757189433E+02  0.25499038294E+02 -0.14893875281E+01  0.32913221394E+02  0.51100000000E-03 0. -1.
        -11    1    3    3    0    0 -0.95358161866E+01  0.32120984446E+01  0.10114571018E+02  0.14267232174E+02  0.51100000000E-03 0.  1.
         12    1    3    3    0    0  0.51143878051E+00 -0.29490721999E+01  0.15010555752E+01  0.33483972743E+01  0.00000000000E+00 0. -1.
</event>
<event>
 7    1  0.2991278E-011  0.5052883E+02  0.7816164E-02  0.1300439E+00
        -11   -1    0    0    0    0  0.00000000000E+00  0.00000000000E+00  0.45593999997E+02  0.45594000000E+02  0.51100000000E-03 0. -1.
         11   -1    0    0    0    0 -0.00000000000E+00 -0.00000000000E+00 -0.45593999997E+02  0.45594000000E+02  0.51100000000E-03 0.  1.
    9900012    2    1    2    0    0 -0.14901118723E+02 -0.28694969215E+02 -0.24652055059E+02  0.50528826175E+02  0.29999897642E+02 0.  0.
         12    1    1    2    0    0  0.14901118723E+02  0.28694969215E+02  0.24652055059E+02  0.40659173825E+02  0.00000000000E+00 0. -1.
         11    1    3    3    0    0 -0.77526041336E+00  0.56494212633E+01 -0.30295574559E+01  0.64571826642E+01  0.51100000000E-03 0. -1.
        -11    1    3    3    0    0 -0.22198345397E+01 -0.15454453846E+02 -0.55923470223E+01  0.16584394910E+02  0.51100000000E-03 0.  1.
         12    1    3    3    0    0 -0.11906023770E+02 -0.18889936633E+02 -0.16030150581E+02  0.27487248601E+02  0.00000000000E+00 0. -1.
</event>
<event>
 7    1  0.2991278E-011  0.5052894E+02  0.7816164E-02  0.1300439E+00
        -11   -1    0    0    0    0  0.00000000000E+00  0.00000000000E+00  0.45593999997E+02  0.45594000000E+02  0.51100000000E-03 0. -1.
         11   -1    0    0    0    0 -0.00000000000E+00 -0.00000000000E+00 -0.45593999997E+02  0.45594000000E+02  0.51100000000E-03 0.  1.
    9900012    2    1    2    0    0 -0.69291075746E+01 -0.38199683284E+02 -0.12080186673E+02  0.50528938958E+02  0.30000240455E+02 0.  0.
         12    1    1    2    0    0  0.69291075746E+01  0.38199683284E+02  0.12080186673E+02  0.40659061042E+02  0.00000000000E+00 0. -1.
         11    1    3    3    0    0  0.28728639110E+01  0.25034837123E+01 -0.26739525363E+01  0.46551906703E+01  0.51100000000E-03 0. -1.
        -11    1    3    3    0    0 -0.27842985028E+01 -0.33621268158E+02 -0.11581987117E+02  0.35669096099E+02  0.51100000000E-03 0.  1.
        -12    1    3    3    0    0 -0.70176729828E+01 -0.70818988388E+01  0.21757529802E+01  0.10204652188E+02  0.00000000000E+00 0.  1.
</event>
<event>
 7    1  0.2991278E-011  0.5052886E+02  0.7816164E-02  0.1300439E+00
        -11   -1    0    0    0    0  0.00000000000E+00  0.00000000000E+00  0.45593999997E+02  0.45594000000E+02  0.51100000000E-03 0.  1.
         11   -1    0    0    0    0 -0.00000000000E+00 -0.00000000000E+00 -0.45593999997E+02  0.45594000000E+02  0.51100000000E-03 0. -1.
    9900012    2    1    2    0    0 -0.26442586061E+02  0.13495842090E+02  0.27781599826E+02  0.50528863263E+02  0.30000010375E+02 0.  0.
         12    1    1    2    0    0  0.26442586061E+02 -0.13495842090E+02 -0.27781599826E+02  0.40659136737E+02  0.00000000000E+00 0. -1.
         11    1    3    3    0    0 -0.36323790151E+01  0.92965966894E+01 -0.13340749362E+01  0.10069788653E+02  0.51100000000E-03 0. -1.
        -11    1    3    3    0    0 -0.84727824410E+01  0.46037995963E+01  0.22861098775E+02  0.24811546717E+02  0.51100000000E-03 0.  1.
         12    1    3    3    0    0 -0.14337424605E+02 -0.40455419594E+00  0.62545759867E+01  0.15647527893E+02  0.00000000000E+00 0. -1.
</event>
<event>
 7    1  0.2991278E-011  0.5052887E+02  0.7816164E-02  0.1300439E+00
        -11   -1    0    0    0    0  0.00000000000E+00  0.00000000000E+00  0.45593999997E+02  0.45594000000E+02  0.51100000000E-03 0.  1.
         11   -1    0    0    0    0 -0.00000000000E+00 -0.00000000000E+00 -0.45593999997E+02  0.45594000000E+02  0.51100000000E-03 0. -1.
    9900012    2    1    2    0    0  0.16039683433E+02  0.20638742390E+02  0.31143787578E+02  0.50528872651E+02  0.30000038911E+02 0.  0.
         12    1    1    2    0    0 -0.16039683433E+02 -0.20638742390E+02 -0.31143787578E+02  0.40659127349E+02  0.00000000000E+00 0. -1.
         11    1    3    3    0    0 -0.84833659907E+00 -0.53410711674E+01  0.13706401776E+02  0.14734726537E+02  0.51100000000E-03 0. -1.
        -11    1    3    3    0    0  0.88758972470E+01  0.11510803777E+02  0.10102405093E+02  0.17701376909E+02  0.51100000000E-03 0.  1.
         12    1    3    3    0    0  0.80121227848E+01  0.14469009780E+02  0.73349807087E+01  0.18092769206E+02  0.00000000000E+00 0. -1.
</event>
<event>
 7    1  0.2991278E-011  0.5052883E+02  0.7816164E-02  0.1300439E+00
        -11   -1    0    0    0    0  0.00000000000E+00  0.00000000000E+00  0.45593999997E+02  0.45594000000E+02  0.51100000000E-03 0.  1.
         11   -1    0    0    0    0 -0.00000000000E+00 -0.00000000000E+00 -0.45593999997E+02  0.45594000000E+02  0.51100000000E-03 0. -1.
    9900012    2    1    2    0    0  0.16024031724E+02  0.37362666790E+02 -0.65572703132E+00  0.50528825878E+02  0.29999896739E+02 0.  0.
         12    1    1    2    0    0 -0.16024031724E+02 -0.37362666790E+02  0.65572703132E+00  0.40659174122E+02  0.00000000000E+00 0. -1.
         11    1    3    3    0    0  0.53450371304E+00  0.53046449865E+01  0.10235610480E+02  0.11540913084E+02  0.51100000000E-03 0. -1.
        -11    1    3    3    0    0  0.26610797211E+01  0.16240252474E+02 -0.13922081094E+01  0.16515610475E+02  0.51100000000E-03 0.  1.
         12    1    3    3    0    0  0.12828448290E+02  0.15817769329E+02 -0.94991294023E+01  0.22472302318E+02  0.00000000000E+00 0. -1.
</event>
<event>
 7    1  0.2991278E-011  0.5052882E+02  0.7816164E-02  0.1300439E+00
        -11   -1    0    0    0    0  0.00000000000E+00  0.00000000000E+00  0.45593999997E+02  0.45594000000E+02  0.51100000000E-03 0. -1.
         11   -1    0    0    0    0 -0.00000000000E+00 -0.00000000000E+00 -0.45593999997E+02  0.45594000000E+02  0.51100000000E-03 0.  1.
    9900012    2    1    2    0    0  0.30769135371E+02  0.75920205907E+01  0.25471361450E+02  0.50528822411E+02  0.29999886199E+02 0.  0.
         12    1    1    2    0    0 -0.30769135371E+02 -0.75920205907E+01 -0.25471361450E+02  0.40659177589E+02  0.00000000000E+00 0. -1.
         11    1    3    3    0    0  0.20357457877E+00  0.65178955452E+00  0.11735843715E+02  0.11755692246E+02  0.51100000000E-03 0. -1.
        -11    1    3    3    0    0  0.29629803156E+02  0.53199419510E+01  0.58475522663E+01  0.30666282546E+02  0.51100000000E-03 0.  1.
        -12    1    3    3    0    0  0.93575763687E+00  0.16202890852E+01  0.78879654685E+01  0.81068476183E+01  0.00000000000E+00 0.  1.
</event>
<event>
 7    1  0.2991278E-011  0.5052886E+02  0.7816164E-02  0.1300439E+00
        -11   -1    0    0    0    0  0.00000000000E+00  0.00000000000E+00  0.45593999997E+02  0.45594000000E+02  0.51100000000E-03 0. -1.
         11   -1    0    0    0    0 -0.00000000000E+00 -0.00000000000E+00 -0.45593999997E+02  0.45594000000E+02  0.51100000000E-03 0.  1.
    9900012    2    1    2    0    0  0.43650535289E+01 -0.10885761485E+02 -0.38930867407E+02  0.50528856718E+02  0.29999990479E+02 0.  0.
         12    1    1    2    0    0 -0.43650535289E+01  0.10885761485E+02  0.38930867407E+02  0.40659143282E+02  0.00000000000E+00 0. -1.
         11    1    3    3    0    0  0.41287455480E+01 -0.90208968636E+01  0.13180552497E+01  0.10008016283E+02  0.51100000000E-03 0. -1.
        -11    1    3    3    0    0 -0.84048021945E+00  0.80606273668E+00 -0.23293667237E+02  0.23322758794E+02  0.51100000000E-03 0.  1.
         12    1    3    3    0    0  0.10767882004E+01 -0.26709273580E+01 -0.16955255420E+02  0.17198081641E+02  0.00000000000E+00 0. -1.
</event>
<event>
 7    1  0.2991278E-011  0.5052886E+02  0.7816164E-02  0.1300439E+00
        -11   -1    0    0    0    0  0.00000000000E+00  0.00000000000E+00  0.45593999997E+02  0.45594000000E+02  0.51100000000E-03 0.  1.
         11   -1    0    0    0    0 -0.00000000000E+00 -0.00000000000E+00 -0.45593999997E+02  0.45594000000E+02  0.51100000000E-03 0. -1.
    9900012    2    1    2    0    0  0.29669442181E+02  0.55387479942E+01  0.27243572184E+02  0.50528858912E+02  0.29999997149E+02 0.  0.
         12    1    1    2    0    0 -0.29669442181E+02 -0.55387479942E+01 -0.27243572184E+02  0.40659141088E+02  0.00000000000E+00 0. -1.
         11    1    3    3    0    0  0.83717971826E+01 -0.26071007494E+01  0.37826464544E+01  0.95494699772E+01  0.51100000000E-03 0. -1.
        -11    1    3    3    0    0 -0.50256987942E+01 -0.17148964672E+01  0.22607798794E+01  0.57714507871E+01  0.51100000000E-03 0.  1.
        -12    1    3    3    0    0  0.26323343793E+02  0.98607452109E+01  0.21200145850E+02  0.35207938148E+02  0.00000000000E+00 0.  1.
</event>
<event>
 7    1  0.2991278E-011  0.5052886E+02  0.7816164E-02  0.1300439E+00
        -11   -1    0    0    0    0  0.00000000000E+00  0.00000000000E+00  0.45593999997E+02  0.45594000000E+02  0.51100000000E-03 0.  1.
         11   -1    0    0    0    0 -0.00000000000E+00 -0.00000000000E+00 -0.45593999997E+02  0.45594000000E+02  0.51100000000E-03 0. -1.
    9900012    2    1    2    0    0  0.33291158505E+01  0.19868399488E+02  0.35317551539E+02  0.50528858872E+02  0.29999997027E+02 0.  0.
         12    1    1    2    0    0 -0.33291158505E+01 -0.19868399488E+02 -0.35317551539E+02  0.40659141128E+02  0.00000000000E+00 0. -1.
         11    1    3    3    0    0  0.82704037573E+01  0.76019692064E+01  0.78711505259E+01  0.13716578472E+02  0.51100000000E-03 0. -1.
        -11    1    3    3    0    0 -0.81299981161E+01  0.93400946238E+01  0.29520930093E+02  0.32012802919E+02  0.51100000000E-03 0.  1.
        -12    1    3    3    0    0  0.31887102093E+01  0.29263356583E+01 -0.20745290796E+01  0.47994774805E+01  0.00000000000E+00 0.  1.
</event>
<event>
 7    1  0.2991278E-011  0.5052886E+02  0.7816164E-02  0.1300439E+00
        -11   -1    0    0    0    0  0.00000000000E+00  0.00000000000E+00  0.45593999997E+02  0.45594000000E+02  0.51100000000E-03 0.  1.
         11   -1    0    0    0    0 -0.00000000000E+00 -0.00000000000E+00 -0.45593999997E+02  0.45594000000E+02  0.51100000000E-03 0. -1.
    9900012    2    1    2    0    0 -0.31958559490E+02 -0.59181220251E+00 -0.25128993133E+02  0.50528855121E+02  0.29999985627E+02 0.  0.
         12    1    1    2    0    0  0.31958559490E+02  0.59181220251E+00  0.25128993133E+02  0.40659144879E+02  0.00000000000E+00 0. -1.
         11    1    3    3    0    0 -0.73024178797E+01  0.66450662654E+01 -0.15912624231E+02  0.18726820946E+02  0.51100000000E-03 0. -1.
        -11    1    3    3    0    0 -0.16843196084E+02 -0.11748295728E+02 -0.27878462184E+01  0.20724087281E+02  0.51100000000E-03 0.  1.
        -12    1    3    3    0    0 -0.78129455267E+01  0.45114172605E+01 -0.64285226838E+01  0.11077946895E+02  0.00000000000E+00 0.  1.
</event>
<event>
 7    1  0.2991278E-011  0.5052886E+02  0.7816164E-02  0.1300439E+00
        -11   -1    0    0    0    0  0.00000000000E+00  0.00000000000E+00  0.45593999997E+02  0.45594000000E+02  0.51100000000E-03 0. -1.
         11   -1    0    0    0    0 -0.00000000000E+00 -0.00000000000E+00 -0.45593999997E+02  0.45594000000E+02  0.51100000000E-03 0.  1.
    9900012    2    1    2    0    0 -0.10853450424E+02  0.36842530026E+02  0.13341513591E+02  0.50528863392E+02  0.30000010766E+02 0.  0.
         12    1    1    2    0    0  0.10853450424E+02 -0.36842530026E+02 -0.13341513591E+02  0.40659136608E+02  0.00000000000E+00 0. -1.
         11    1    3    3    0    0 -0.97229381549E+01  0.53680009671E+01  0.15221794570E+02  0.18842876398E+02  0.51100000000E-03 0. -1.
        -11    1    3    3    0    0 -0.16432459334E+01  0.22075314704E+02 -0.23519731204E+01  0.22260987271E+02  0.51100000000E-03 0.  1.
         12    1    3    3    0    0  0.51273366461E+00  0.93992143550E+01  0.47169214130E+00  0.94249997230E+01  0.00000000000E+00 0. -1.
</event>
<event>
 7    1  0.2991278E-011  0.5052886E+02  0.7816164E-02  0.1300439E+00
        -11   -1    0    0    0    0  0.00000000000E+00  0.00000000000E+00  0.45593999997E+02  0.45594000000E+02  0.51100000000E-03 0.  1.
         11   -1    0    0    0    0 -0.00000000000E+00 -0.00000000000E+00 -0.45593999997E+02  0.45594000000E+02  0.51100000000E-03 0. -1.
    9900012    2    1    2    0    0 -0.64821694442E+01  0.20327850863E+02  0.34611061114E+02  0.50528860894E+02  0.30000003173E+02 0.  0.
         12    1    1    2    0    0  0.64821694442E+01 -0.20327850863E+02 -0.34611061114E+02  0.40659139106E+02  0.00000000000E+00 0. -1.
         11    1    3    3    0    0 -0.31715821647E+01 -0.34299926600E+01  0.21978866984E+01  0.51627985894E+01  0.51100000000E-03 0. -1.
        -11    1    3    3    0    0 -0.86689681508E+01  0.19586757433E+02  0.32072197089E+02  0.38567057210E+02  0.51100000000E-03 0.  1.
        -12    1    3    3    0    0  0.53583808713E+01  0.41710860901E+01  0.34097732704E+00  0.67990050941E+01  0.00000000000E+00 0.  1.
</event>
<event>
 7    1  0.2991278E-011  0.5052885E+02  0.7816164E-02  0.1300439E+00
        -11   -1    0    0    0    0  0.00000000000E+00  0.00000000000E+00  0.45593999997E+02  0.45594000000E+02  0.51100000000E-03 0.  1.
         11   -1    0    0    0    0 -0.00000000000E+00 -0.00000000000E+00 -0.45593999997E+02  0.45594000000E+02  0.51100000000E-03 0. -1.
    9900012    2    1    2    0    0  0.12834341403E+02 -0.12516800748E+02  0.36493499879E+02  0.50528853998E+02  0.29999982212E+02 0.  0.
         12    1    1    2    0    0 -0.12834341403E+02  0.12516800748E+02 -0.36493499879E+02  0.40659146002E+02  0.00000000000E+00 0. -1.
         11    1    3    3    0    0  0.15705028766E+02 -0.14631183417E+01  0.15406075574E+02  0.22048487674E+02  0.51100000000E-03 0. -1.
        -11    1    3    3    0    0 -0.88908407298E+01 -0.51367332919E+01  0.85267350093E+01  0.13346845619E+02  0.51100000000E-03 0.  1.
         12    1    3    3    0    0  0.60201533667E+01 -0.59169491144E+01  0.12560689295E+02  0.15133520706E+02  0.00000000000E+00 0. -1.
</event>
<event>
 7    1  0.2991278E-011  0.5052886E+02  0.7816164E-02  0.1300439E+00
        -11   -1    0    0    0    0  0.00000000000E+00  0.00000000000E+00  0.45593999997E+02  0.45594000000E+02  0.51100000000E-03 0.  1.
         11   -1    0    0    0    0 -0.00000000000E+00 -0.00000000000E+00 -0.45593999997E+02  0.45594000000E+02  0.51100000000E-03 0. -1.
    9900012    2    1    2    0    0 -0.10104915859E+02 -0.92846110474E+01  0.38273386756E+02  0.50528862520E+02  0.30000008116E+02 0.  0.
         12    1    1    2    0    0  0.10104915859E+02  0.92846110474E+01 -0.38273386756E+02  0.40659137480E+02  0.00000000000E+00 0. -1.
         11    1    3    3    0    0  0.58147364537E+00 -0.99027965732E+01  0.33087427319E-01  0.99199085989E+01  0.51100000000E-03 0. -1.
        -11    1    3    3    0    0 -0.86507861227E+00  0.39944412746E+00  0.18831783761E+02  0.18855874324E+02  0.51100000000E-03 0.  1.
         12    1    3    3    0    0 -0.98213108920E+01  0.21874139836E+00  0.19408515568E+02  0.21753079597E+02  0.00000000000E+00 0. -1.
</event>
<event>
 7    1  0.2991278E-011  0.5052886E+02  0.7816164E-02  0.1300439E+00
        -11   -1    0    0    0    0  0.00000000000E+00  0.00000000000E+00  0.45593999997E+02  0.45594000000E+02  0.51100000000E-03 0.  1.
         11   -1    0    0    0    0 -0.00000000000E+00 -0.00000000000E+00 -0.45593999997E+02  0.45594000000E+02  0.51100000000E-03 0. -1.
    9900012    2    1    2    0    0 -0.34911143777E+02  0.92696546604E+01 -0.18666843140E+02  0.50528862157E+02  0.30000007012E+02 0.  0.
         12    1    1    2    0    0  0.34911143777E+02 -0.92696546604E+01  0.18666843140E+02  0.40659137843E+02  0.00000000000E+00 0. -1.
         11    1    3    3    0    0 -0.28416090732E+01 -0.38885062788E+01 -0.14542797144E+02  0.15319535641E+02  0.51100000000E-03 0. -1.
        -11    1    3    3    0    0 -0.25475405909E+02  0.12380906686E+02 -0.31727020967E+01  0.28501740218E+02  0.51100000000E-03 0.  1.
         12    1    3    3    0    0 -0.65941287951E+01  0.77725425302E+00 -0.95134389895E+00  0.67075862987E+01  0.00000000000E+00 0. -1.
</event>
<event>
 7    1  0.2991278E-011  0.5052887E+02  0.7816164E-02  0.1300439E+00
        -11   -1    0    0    0    0  0.00000000000E+00  0.00000000000E+00  0.45593999997E+02  0.45594000000E+02  0.51100000000E-03 0.  1.
         11   -1    0    0    0    0 -0.00000000000E+00 -0.00000000000E+00 -0.45593999997E+02  0.45594000000E+02  0.51100000000E-03 0. -1.
    9900012    2    1    2    0    0 -0.27846653531E+02 -0.29543703036E+02 -0.22132876746E+01  0.50528866410E+02  0.30000019940E+02 0.  0.
         12    1    1    2    0    0  0.27846653531E+02  0.29543703036E+02  0.22132876746E+01  0.40659133590E+02  0.00000000000E+00 0. -1.
         11    1    3    3    0    0 -0.39411055091E+01 -0.14914785901E+02  0.12234080437E+01  0.15475137434E+02  0.51100000000E-03 0. -1.
        -11    1    3    3    0    0 -0.16220863642E+02  0.21802448149E+01 -0.82367119902E+00  0.16387443951E+02  0.51100000000E-03 0.  1.
        -12    1    3    3    0    0 -0.76846843800E+01 -0.16809161950E+02 -0.26130245193E+01  0.18666285025E+02  0.00000000000E+00 0.  1.
</event>
<event>
 7    1  0.2991278E-011  0.5052886E+02  0.7816164E-02  0.1300439E+00
        -11   -1    0    0    0    0  0.00000000000E+00  0.00000000000E+00  0.45593999997E+02  0.45594000000E+02  0.51100000000E-03 0.  1.
         11   -1    0    0    0    0 -0.00000000000E+00 -0.00000000000E+00 -0.45593999997E+02  0.45594000000E+02  0.51100000000E-03 0. -1.
    9900012    2    1    2    0    0  0.93346045646E+01 -0.22608227490E+02  0.32479210877E+02  0.50528856726E+02  0.29999990505E+02 0.  0.
         12    1    1    2    0    0 -0.93346045646E+01  0.22608227490E+02 -0.32479210877E+02  0.40659143274E+02  0.00000000000E+00 0. -1.
         11    1    3    3    0    0  0.71999057748E+01  0.40238119281E+01  0.77830622878E+01  0.11340448158E+02  0.51100000000E-03 0. -1.
        -11    1    3    3    0    0 -0.60234273289E+01 -0.12719203457E+02  0.13897617158E+02  0.19778866911E+02  0.51100000000E-03 0.  1.
         12    1    3    3    0    0  0.81581261188E+01 -0.13912835960E+02  0.10798531431E+02  0.19409541656E+02  0.00000000000E+00 0. -1.
</event>
<event>
 7    1  0.2991278E-011  0.5052886E+02  0.7816164E-02  0.1300439E+00
        -11   -1    0    0    0    0  0.00000000000E+00  0.00000000000E+00  0.45593999997E+02  0.45594000000E+02  0.51100000000E-03 0.  1.
         11   -1    0    0    0    0 -0.00000000000E+00 -0.00000000000E+00 -0.45593999997E+02  0.45594000000E+02  0.51100000000E-03 0. -1.
    9900012    2    1    2    0    0  0.12167512157E+01 -0.37224862430E+02  0.16309349481E+02  0.50528858999E+02  0.29999997415E+02 0.  0.
         12    1    1    2    0    0 -0.12167512157E+01  0.37224862430E+02 -0.16309349481E+02  0.40659141001E+02  0.00000000000E+00 0. -1.
         11    1    3    3    0    0  0.35992206377E+01  0.31640906366E+01 -0.27080084824E+01  0.55044680903E+01  0.51100000000E-03 0. -1.
        -11    1    3    3    0    0 -0.12055594917E+01 -0.38598354758E+02  0.17491366418E+02  0.42393799819E+02  0.51100000000E-03 0.  1.
         12    1    3    3    0    0 -0.11769099303E+01 -0.17905983082E+01  0.15259915452E+01  0.26305910897E+01  0.00000000000E+00 0. -1.
</event>
<event>
 7    1  0.2991278E-011  0.5052885E+02  0.7816164E-02  0.1300439E+00
        -11   -1    0    0    0    0  0.00000000000E+00  0.00000000000E+00  0.45593999997E+02  0.45594000000E+02  0.51100000000E-03 0.  1.
         11   -1    0    0    0    0 -0.00000000000E+00 -0.00000000000E+00 -0.45593999997E+02  0.45594000000E+02  0.51100000000E-03 0. -1.
    9900012    2    1    2    0    0 -0.36308879795E+02 -0.18229602968E+02 -0.15852480049E+01  0.50528853580E+02  0.29999980943E+02 0.  0.
         12    1    1    2    0    0  0.36308879795E+02  0.18229602968E+02  0.15852480049E+01  0.40659146420E+02  0.00000000000E+00 0. -1.
         11    1    3    3    0    0 -0.32819867748E+01  0.43285088743E+01 -0.81047827254E+01  0.97567888955E+01  0.51100000000E-03 0. -1.
        -11    1    3    3    0    0 -0.11887279834E+02 -0.10398459274E+02  0.37103371776E+01  0.16223500835E+02  0.51100000000E-03 0.  1.
         12    1    3    3    0    0 -0.21139613187E+02 -0.12159652568E+02  0.28091975429E+01  0.24548563850E+02  0.00000000000E+00 0. -1.
</event>
<event>
 7    1  0.2991278E-011  0.5052886E+02  0.7816164E-02  0.1300439E+00
        -11   -1    0    0    0    0  0.00000000000E+00  0.00000000000E+00  0.45593999997E+02  0.45594000000E+02  0.51100000000E-03 0. -1.
         11   -1    0    0    0    0 -0.00000000000E+00 -0.00000000000E+00 -0.45593999997E+02  0.45594000000E+02  0.51100000000E-03 0.  1.
    9900012    2    1    2    0    0  0.36354163304E+02  0.16360070816E+02 -0.79930238483E+01  0.50528861582E+02  0.30000005264E+02 0.  0.
         12    1    1    2    0    0 -0.36354163304E+02 -0.16360070816E+02  0.79930238483E+01  0.40659138418E+02  0.00000000000E+00 0. -1.
         11    1    3    3    0    0  0.67625475450E+01 -0.44373816074E+01 -0.22029003083E+01  0.83830289787E+01  0.51100000000E-03 0. -1.
        -11    1    3    3    0    0  0.11517541413E+02  0.13816142685E+02 -0.12203735919E+02  0.21736391824E+02  0.51100000000E-03 0.  1.
        -12    1    3    3    0    0  0.18074074347E+02  0.69813097388E+01  0.64136123794E+01  0.20409440779E+02  0.00000000000E+00 0.  1.
</event>
<event>
 7    1  0.2991278E-011  0.5052885E+02  0.7816164E-02  0.1300439E+00
        -11   -1    0    0    0    0  0.00000000000E+00  0.00000000000E+00  0.45593999997E+02  0.45594000000E+02  0.51100000000E-03 0.  1.
         11   -1    0    0    0    0 -0.00000000000E+00 -0.00000000000E+00 -0.45593999997E+02  0.45594000000E+02  0.51100000000E-03 0. -1.
    9900012    2    1    2    0    0  0.28300993454E+02  0.16594319499E+02 -0.24017680988E+02  0.50528847646E+02  0.29999962906E+02 0.  0.
         12    1    1    2    0    0 -0.28300993454E+02 -0.16594319499E+02  0.24017680988E+02  0.40659152354E+02  0.00000000000E+00 0. -1.
         11    1    3    3    0    0 -0.11248805389E+01  0.33087948219E+01 -0.64435326912E+01  0.73302519195E+01  0.51100000000E-03 0. -1.
        -11    1    3    3    0    0  0.32016333751E+02  0.15903055433E+02 -0.15421721537E+02  0.38933048871E+02  0.51100000000E-03 0.  1.
        -12    1    3    3    0    0 -0.25904597588E+01 -0.26175307565E+01 -0.21524267595E+01  0.42655468557E+01  0.00000000000E+00 0.  1.
</event>
<event>
 7    1  0.2991278E-011  0.5052887E+02  0.7816164E-02  0.1300439E+00
        -11   -1    0    0    0    0  0.00000000000E+00  0.00000000000E+00  0.45593999997E+02  0.45594000000E+02  0.51100000000E-03 0.  1.
         11   -1    0    0    0    0 -0.00000000000E+00 -0.00000000000E+00 -0.45593999997E+02  0.45594000000E+02  0.51100000000E-03 0. -1.
    9900012    2    1    2    0    0  0.35534302628E+01 -0.96359988602E+01  0.39340634990E+02  0.50528869388E+02  0.30000028993E+02 0.  0.
         12    1    1    2    0    0 -0.35534302628E+01  0.96359988602E+01 -0.39340634990E+02  0.40659130612E+02  0.00000000000E+00 0. -1.
         11    1    3    3    0    0  0.12273055754E+02 -0.13782341077E+01  0.68197578887E+01  0.14108030504E+02  0.51100000000E-03 0. -1.
        -11    1    3    3    0    0 -0.32385523545E+01 -0.10208121899E+01  0.23060748249E+02  0.23309405590E+02  0.51100000000E-03 0.  1.
         12    1    3    3    0    0 -0.54810731365E+01 -0.72369525626E+01  0.94601288526E+01  0.13111433294E+02  0.00000000000E+00 0. -1.
</event>
<event>
 7    1  0.3514880E-011  0.5052886E+02  0.7816164E-02  0.1300439E+00
        -11   -1    0    0    0    0  0.00000000000E+00  0.00000000000E+00  0.45593999997E+02  0.45594000000E+02  0.51100000000E-03 0. -1.
         11   -1    0    0    0    0 -0.00000000000E+00 -0.00000000000E+00 -0.45593999997E+02  0.45594000000E+02  0.51100000000E-03 0.  1.
    9900012    2    1    2    0    0  0.26872045268E+02  0.14851515231E+02 -0.26655039026E+02  0.50528862934E+02  0.30000009373E+02 0.  0.
         12    1    1    2    0    0 -0.26872045268E+02 -0.14851515231E+02  0.26655039026E+02  0.40659137066E+02  0.00000000000E+00 0. -1.
         11    1    3    3    0    0 -0.34389919348E+00  0.46020228341E+01  0.29671276537E+01  0.54864129990E+01  0.51100000000E-03 0. -1.
        -11    1    3    3    0    0  0.13084952082E+02  0.11161785896E+02 -0.24603717099E+02  0.30019066120E+02  0.51100000000E-03 0.  1.
        -12    1    3    3    0    0  0.14130992380E+02 -0.91229349897E+00 -0.50184495805E+01  0.15023383815E+02  0.00000000000E+00 0.  1.
</event>
<event>
 7    1  0.2991278E-011  0.5052886E+02  0.7816164E-02  0.1300439E+00
        -11   -1    0    0    0    0  0.00000000000E+00  0.00000000000E+00  0.45593999997E+02  0.45594000000E+02  0.51100000000E-03 0.  1.
         11   -1    0    0    0    0 -0.00000000000E+00 -0.00000000000E+00 -0.45593999997E+02  0.45594000000E+02  0.51100000000E-03 0. -1.
    9900012    2    1    2    0    0  0.12128977031E+01 -0.55029706924E+01  0.40266760040E+02  0.50528858698E+02  0.29999996499E+02 0.  0.
         12    1    1    2    0    0 -0.12128977031E+01  0.55029706924E+01 -0.40266760040E+02  0.40659141302E+02  0.00000000000E+00 0. -1.
         11    1    3    3    0    0  0.14734366869E+01 -0.45869355852E+01 -0.10534921576E+01  0.49316163395E+01  0.51100000000E-03 0. -1.
        -11    1    3    3    0    0 -0.79659056538E+01 -0.30227956354E+01  0.32922086700E+02  0.34006716091E+02  0.51100000000E-03 0.  1.
        -12    1    3    3    0    0  0.77053666700E+01  0.21067605282E+01  0.83981654972E+01  0.11590526268E+02  0.00000000000E+00 0.  1.
</event>
<event>
 7    1  0.2991278E-011  0.5052886E+02  0.7816164E-02  0.1300439E+00
        -11   -1    0    0    0    0  0.00000000000E+00  0.00000000000E+00  0.45593999997E+02  0.45594000000E+02  0.51100000000E-03 0. -1.
         11   -1    0    0    0    0 -0.00000000000E+00 -0.00000000000E+00 -0.45593999997E+02  0.45594000000E+02  0.51100000000E-03 0.  1.
    9900012    2    1    2    0    0  0.33646305799E+02  0.20466291491E+01 -0.22735497554E+02  0.50528862849E+02  0.30000009117E+02 0.  0.
         12    1    1    2    0    0 -0.33646305799E+02 -0.20466291491E+01  0.22735497554E+02  0.40659137151E+02  0.00000000000E+00 0. -1.
         11    1    3    3    0    0  0.19719429218E+02  0.10749798104E+02 -0.71436624657E+01  0.23567901087E+02  0.51100000000E-03 0. -1.
        -11    1    3    3    0    0  0.73890260728E+01  0.28612124004E+00 -0.13863167026E+02  0.15712000888E+02  0.51100000000E-03 0.  1.
         12    1    3    3    0    0  0.65378505084E+01 -0.89892901950E+01 -0.17286680629E+01  0.11248960874E+02  0.00000000000E+00 0. -1.
</event>
<event>
 7    1  0.2991278E-011  0.5052886E+02  0.7816164E-02  0.1300439E+00
        -11   -1    0    0    0    0  0.00000000000E+00  0.00000000000E+00  0.45593999997E+02  0.45594000000E+02  0.51100000000E-03 0.  1.
         11   -1    0    0    0    0 -0.00000000000E+00 -0.00000000000E+00 -0.45593999997E+02  0.45594000000E+02  0.51100000000E-03 0. -1.
    9900012    2    1    2    0    0  0.78935653196E+01  0.39766782951E+02 -0.30757310515E+01  0.50528861775E+02  0.30000005852E+02 0.  0.
         12    1    1    2    0    0 -0.78935653196E+01 -0.39766782951E+02  0.30757310515E+01  0.40659138225E+02  0.00000000000E+00 0. -1.
         11    1    3    3    0    0 -0.65413372435E+01  0.14341430743E+02  0.69347692293E+01  0.17220823245E+02  0.51100000000E-03 0. -1.
        -11    1    3    3    0    0  0.36357499946E+01  0.10685317304E+02  0.19706634999E+01  0.11457669868E+02  0.51100000000E-03 0.  1.
         12    1    3    3    0    0  0.10799152568E+02  0.14740034903E+02 -0.11981163781E+02  0.21850368662E+02  0.00000000000E+00 0. -1.
</event>
<event>
 7    1  0.2991278E-011  0.5052886E+02  0.7816164E-02  0.1300439E+00
        -11   -1    0    0    0    0  0.00000000000E+00  0.00000000000E+00  0.45593999997E+02  0.45594000000E+02  0.51100000000E-03 0.  1.
         11   -1    0    0    0    0 -0.00000000000E+00 -0.00000000000E+00 -0.45593999997E+02  0.45594000000E+02  0.51100000000E-03 0. -1.
    9900012    2    1    2    0    0 -0.30833254831E+02 -0.16675576993E+02  0.20601002631E+02  0.50528858581E+02  0.29999996143E+02 0.  0.
         12    1    1    2    0    0  0.30833254831E+02  0.16675576993E+02 -0.20601002631E+02  0.40659141419E+02  0.00000000000E+00 0. -1.
         11    1    3    3    0    0 -0.68197182918E+00  0.12873418152E+01  0.53512978957E+01  0.55460548099E+01  0.51100000000E-03 0. -1.
        -11    1    3    3    0    0 -0.30769865972E+02 -0.13135983568E+02  0.19323833841E+02  0.38636113557E+02  0.51100000000E-03 0.  1.
        -12    1    3    3    0    0  0.61858297000E+00 -0.48269352406E+01 -0.40741291058E+01  0.63466902145E+01  0.00000000000E+00 0.  1.
</event>
<event>
 7    1  0.2991278E-011  0.5052886E+02  0.7816164E-02  0.1300439E+00
        -11   -1    0    0    0    0  0.00000000000E+00  0.00000000000E+00  0.45593999997E+02  0.45594000000E+02  0.51100000000E-03 0.  1.
         11   -1    0    0    0    0 -0.00000000000E+00 -0.00000000000E+00 -0.45593999997E+02  0.45594000000E+02  0.51100000000E-03 0. -1.
    9900012    2    1    2    0    0 -0.53147295991E+01 -0.12219901893E+02  0.38413454416E+02  0.50528857939E+02  0.29999994190E+02 0.  0.
         12    1    1    2    0    0  0.53147295991E+01  0.12219901893E+02 -0.38413454416E+02  0.40659142061E+02  0.00000000000E+00 0. -1.
         11    1    3    3    0    0 -0.82314326227E+01  0.38817402557E+01  0.10441780026E+02  0.13851179040E+02  0.51100000000E-03 0. -1.
        -11    1    3    3    0    0 -0.20169426792E+01 -0.16815392004E+02  0.26553861027E+02  0.31494967879E+02  0.51100000000E-03 0.  1.
        -12    1    3    3    0    0  0.49336457028E+01  0.71374985517E+00  0.14178133634E+01  0.51827110194E+01  0.00000000000E+00 0.  1.
</event>
<event>
 7    1  0.2991278E-011  0.5052885E+02  0.7816164E-02  0.1300439E+00
        -11   -1    0    0    0    0  0.00000000000E+00  0.00000000000E+00  0.45593999997E+02  0.45594000000E+02  0.51100000000E-03 0.  1.
         11   -1    0    0    0    0 -0.00000000000E+00 -0.00000000000E+00 -0.45593999997E+02  0.45594000000E+02  0.51100000000E-03 0. -1.
    9900012    2    1    2    0    0 -0.34710817092E+02 -0.16590102480E+02  0.13156512369E+02  0.50528854150E+02  0.29999982675E+02 0.  0.
         12    1    1    2    0    0  0.34710817092E+02  0.16590102480E+02 -0.13156512369E+02  0.40659145850E+02  0.00000000000E+00 0. -1.
         11    1    3    3    0    0 -0.41215260965E+01 -0.12538353737E+02  0.28604826285E+01  0.13504801107E+02  0.51100000000E-03 0. -1.
        -11    1    3    3    0    0 -0.23636414107E+02 -0.65953161447E+01  0.14507057810E+02  0.28506718392E+02  0.51100000000E-03 0.  1.
        -12    1    3    3    0    0 -0.69528768887E+01  0.25435674024E+01 -0.42110280699E+01  0.85173346515E+01  0.00000000000E+00 0.  1.
</event>
<event>
 7    1  0.2991278E-011  0.5052885E+02  0.7816164E-02  0.1300439E+00
        -11   -1    0    0    0    0  0.00000000000E+00  0.00000000000E+00  0.45593999997E+02  0.45594000000E+02  0.51100000000E-03 0. -1.
         11   -1    0    0    0    0 -0.00000000000E+00 -0.00000000000E+00 -0.45593999997E+02  0.45594000000E+02  0.51100000000E-03 0.  1.
    9900012    2    1    2    0    0 -0.38432502241E+02  0.10927564729E+02  0.75297789553E+01  0.50528850101E+02  0.29999970366E+02 0.  0.
         12    1    1    2    0    0  0.38432502241E+02 -0.10927564729E+02 -0.75297789553E+01  0.40659149899E+02  0.00000000000E+00 0. -1.
         11    1    3    3    0    0 -0.19190016213E+02  0.14004283771E+02  0.26288763513E+01  0.23901624993E+02  0.51100000000E-03 0. -1.
        -11    1    3    3    0    0 -0.80888228143E+01 -0.99934375601E+01  0.40321779223E+01  0.13474283203E+02  0.51100000000E-03 0.  1.
        -12    1    3    3    0    0 -0.11153663214E+02  0.69167185183E+01  0.86872468166E+00  0.13152941904E+02  0.00000000000E+00 0.  1.
</event>
<event>
 7    1  0.2991278E-011  0.5052886E+02  0.7816164E-02  0.1300439E+00
        -11   -1    0    0    0    0  0.00000000000E+00  0.00000000000E+00  0.45593999997E+02  0.45594000000E+02  0.51100000000E-03 0. -1.
         11   -1    0    0    0    0 -0.00000000000E+00 -0.00000000000E+00 -0.45593999997E+02  0.45594000000E+02  0.51100000000E-03 0.  1.
    9900012    2    1    2    0    0  0.12678777988E+02 -0.38631208649E+02  0.20879865320E+00  0.50528864620E+02  0.30000014500E+02 0.  0.
         12    1    1    2    0    0 -0.12678777988E+02  0.38631208649E+02 -0.20879865320E+00  0.40659135380E+02  0.00000000000E+00 0. -1.
         11    1    3    3    0    0 -0.49964681016E+01 -0.69139260388E+01  0.60868080507E+01  0.10479327234E+02  0.51100000000E-03 0. -1.
        -11    1    3    3    0    0  0.16287976266E+02 -0.21205577880E+02 -0.10174350759E+02  0.28609301244E+02  0.51100000000E-03 0.  1.
        -12    1    3    3    0    0  0.13872698239E+01 -0.10511704730E+02  0.42963413619E+01  0.11440236143E+02  0.00000000000E+00 0.  1.
</event>
<event>
 7    1  0.2991278E-011  0.5052886E+02  0.7816164E-02  0.1300439E+00
        -11   -1    0    0    0    0  0.00000000000E+00  0.00000000000E+00  0.45593999997E+02  0.45594000000E+02  0.51100000000E-03 0.  1.
         11   -1    0    0    0    0 -0.00000000000E+00 -0.00000000000E+00 -0.45593999997E+02  0.45594000000E+02  0.51100000000E-03 0. -1.
    9900012    2    1    2    0    0 -0.52867245407E+00  0.10591945002E+02  0.39251711082E+02  0.50528860605E+02  0.30000002295E+02 0.  0.
         12    1    1    2    0    0  0.52867245407E+00 -0.10591945002E+02 -0.39251711082E+02  0.40659139395E+02  0.00000000000E+00 0. -1.
         11    1    3    3    0    0 -0.44571761037E+01 -0.82140191455E+01  0.21836106618E+02  0.23751885858E+02  0.51100000000E-03 0. -1.
        -11    1    3    3    0    0 -0.55434403363E+00  0.86493647932E+01  0.10821212764E+02  0.13864250956E+02  0.51100000000E-03 0.  1.
         12    1    3    3    0    0  0.44828476833E+01  0.10156599354E+02  0.65943917002E+01  0.12912723791E+02  0.00000000000E+00 0. -1.
</event>
<event>
 7    1  0.2991278E-011  0.5052886E+02  0.7816164E-02  0.1300439E+00
        -11   -1    0    0    0    0  0.00000000000E+00  0.00000000000E+00  0.45593999997E+02  0.45594000000E+02  0.51100000000E-03 0.  1.
         11   -1    0    0    0    0 -0.00000000000E+00 -0.00000000000E+00 -0.45593999997E+02  0.45594000000E+02  0.51100000000E-03 0. -1.
    9900012    2    1    2    0    0 -0.34018482181E+01 -0.30251977134E+02  0.26952019484E+02  0.50528855320E+02  0.29999986231E+02 0.  0.
         12    1    1    2    0    0  0.34018482181E+01  0.30251977134E+02 -0.26952019484E+02  0.40659144680E+02  0.00000000000E+00 0. -1.
         11    1    3    3    0    0 -0.82518958941E+01 -0.11407987787E+02  0.65135706010E+00  0.14094688272E+02  0.51100000000E-03 0. -1.
        -11    1    3    3    0    0  0.97440509568E+01 -0.17588701129E+02  0.20032437720E+02  0.28383225640E+02  0.51100000000E-03 0.  1.
        -12    1    3    3    0    0 -0.48940032809E+01 -0.12552882180E+01  0.62682247040E+01  0.80509414085E+01  0.00000000000E+00 0.  1.
</event>
<event>
 7    1  0.2991278E-011  0.5052886E+02  0.7816164E-02  0.1300439E+00
        -11   -1    0    0    0    0  0.00000000000E+00  0.00000000000E+00  0.45593999997E+02  0.45594000000E+02  0.51100000000E-03 0.  1.
         11   -1    0    0    0    0 -0.00000000000E+00 -0.00000000000E+00 -0.45593999997E+02  0.45594000000E+02  0.51100000000E-03 0. -1.
    9900012    2    1    2    0    0  0.18568140441E+02 -0.15292602372E+02  0.32779962851E+02  0.50528862143E+02  0.30000006971E+02 0.  0.
         12    1    1    2    0    0 -0.18568140441E+02  0.15292602372E+02 -0.32779962851E+02  0.40659137857E+02  0.00000000000E+00 0. -1.
         11    1    3    3    0    0 -0.40584094009E+01 -0.48051957023E+01 -0.27095196824E+01  0.68485100404E+01  0.51100000000E-03 0. -1.
        -11    1    3    3    0    0  0.22774771897E+02 -0.98945819210E+01  0.34322213671E+02  0.42362806067E+02  0.51100000000E-03 0.  1.
        -12    1    3    3    0    0 -0.14822205474E+00 -0.59282474876E+00  0.11672688617E+01  0.13175460356E+01  0.00000000000E+00 0.  1.
</event>
<event>
 7    1  0.2991278E-011  0.5052887E+02  0.7816164E-02  0.1300439E+00
        -11   -1    0    0    0    0  0.00000000000E+00  0.00000000000E+00  0.45593999997E+02  0.45594000000E+02  0.51100000000E-03 0. -1.
         11   -1    0    0    0    0 -0.00000000000E+00 -0.00000000000E+00 -0.45593999997E+02  0.45594000000E+02  0.51100000000E-03 0.  1.
    9900012    2    1    2    0    0  0.12743521945E+02  0.38483630903E+02 -0.31269031479E+01  0.50528871599E+02  0.30000035712E+02 0.  0.
         12    1    1    2    0    0 -0.12743521945E+02 -0.38483630903E+02  0.31269031479E+01  0.40659128401E+02  0.00000000000E+00 0. -1.
         11    1    3    3    0    0  0.48293497472E+01  0.25875949251E+02  0.10922122257E+02  0.28498774070E+02  0.51100000000E-03 0. -1.
        -11    1    3    3    0    0 -0.12301869623E+01  0.38935726301E+01 -0.51800578896E+01  0.65959281218E+01  0.51100000000E-03 0.  1.
         12    1    3    3    0    0  0.91443591602E+01  0.87141090222E+01 -0.88689675154E+01  0.15434169407E+02  0.00000000000E+00 0. -1.
</event>
<event>
 7    1  0.2991278E-011  0.5052882E+02  0.7816164E-02  0.1300439E+00
        -11   -1    0    0    0    0  0.00000000000E+00  0.00000000000E+00  0.45593999997E+02  0.45594000000E+02  0.51100000000E-03 0.  1.
         11   -1    0    0    0    0 -0.00000000000E+00 -0.00000000000E+00 -0.45593999997E+02  0.45594000000E+02  0.51100000000E-03 0. -1.
    9900012    2    1    2    0    0  0.32023281217E+02 -0.13086583169E+02 -0.21363986333E+02  0.50528817630E+02  0.29999871669E+02 0.  0.
         12    1    1    2    0    0 -0.32023281217E+02  0.13086583169E+02  0.21363986333E+02  0.40659182370E+02  0.00000000000E+00 0. -1.
         11    1    3    3    0    0  0.21963002420E+02 -0.11711359999E+02 -0.30802410502E+01  0.25080217573E+02  0.51100000000E-03 0. -1.
        -11    1    3    3    0    0  0.12852021934E+02 -0.41813124498E+01 -0.15727172593E+02  0.20736484746E+02  0.51100000000E-03 0.  1.
         12    1    3    3    0    0 -0.27917431366E+01  0.28060892803E+01 -0.25565726901E+01  0.47121153116E+01  0.00000000000E+00 0. -1.
</event>
<event>
 7    1  0.2991278E-011  0.5052895E+02  0.7816164E-02  0.1300438E+00
        -11   -1    0    0    0    0  0.00000000000E+00  0.00000000000E+00  0.45593999997E+02  0.45594000000E+02  0.51100000000E-03 0. -1.
         11   -1    0    0    0    0 -0.00000000000E+00 -0.00000000000E+00 -0.45593999997E+02  0.45594000000E+02  0.51100000000E-03 0.  1.
    9900012    2    1    2    0    0  0.32699259194E+02 -0.14409777130E+02  0.19397811086E+02  0.50528950531E+02  0.30000275634E+02 0.  0.
         12    1    1    2    0    0 -0.32699259194E+02  0.14409777130E+02 -0.19397811086E+02  0.40659049469E+02  0.00000000000E+00 0. -1.
         11    1    3    3    0    0  0.11465520229E+02 -0.18124241599E+02 -0.57083845181E-01  0.21446434354E+02  0.51100000000E-03 0. -1.
        -11    1    3    3    0    0  0.16560867412E+02  0.22898031312E+01  0.14619266164E+02  0.22208747629E+02  0.51100000000E-03 0.  1.
         12    1    3    3    0    0  0.46728715541E+01  0.14246613386E+01  0.48356287667E+01  0.68737685486E+01  0.00000000000E+00 0. -1.
</event>
<event>
 7    1  0.2991278E-011  0.5052887E+02  0.7816164E-02  0.1300439E+00
        -11   -1    0    0    0    0  0.00000000000E+00  0.00000000000E+00  0.45593999997E+02  0.45594000000E+02  0.51100000000E-03 0. -1.
         11   -1    0    0    0    0 -0.00000000000E+00 -0.00000000000E+00 -0.45593999997E+02  0.45594000000E+02  0.51100000000E-03 0.  1.
    9900012    2    1    2    0    0  0.26803705635E+01 -0.33147512403E+02 -0.23392787405E+02  0.50528874734E+02  0.30000045240E+02 0.  0.
         12    1    1    2    0    0 -0.26803705635E+01  0.33147512403E+02  0.23392787405E+02  0.40659125266E+02  0.00000000000E+00 0. -1.
         11    1    3    3    0    0 -0.88094143169E+01 -0.11229742704E+02 -0.94243433784E+01  0.17103542036E+02  0.51100000000E-03 0. -1.
        -11    1    3    3    0    0  0.15447010528E+02 -0.16692984403E+02 -0.68580327131E+01  0.23754967386E+02  0.51100000000E-03 0.  1.
        -12    1    3    3    0    0 -0.39572256479E+01 -0.52247852955E+01 -0.71104113136E+01  0.96703653117E+01  0.00000000000E+00 0.  1.
</event>
<event>
 7    1  0.2991278E-011  0.5052886E+02  0.7816164E-02  0.1300439E+00
        -11   -1    0    0    0    0  0.00000000000E+00  0.00000000000E+00  0.45593999997E+02  0.45594000000E+02  0.51100000000E-03 0.  1.
         11   -1    0    0    0    0 -0.00000000000E+00 -0.00000000000E+00 -0.45593999997E+02  0.45594000000E+02  0.51100000000E-03 0. -1.
    9900012    2    1    2    0    0 -0.11426687132E+02 -0.57812379244E+01  0.38589814917E+02  0.50528859501E+02  0.29999998940E+02 0.  0.
         12    1    1    2    0    0  0.11426687132E+02  0.57812379244E+01 -0.38589814917E+02  0.40659140499E+02  0.00000000000E+00 0. -1.
         11    1    3    3    0    0  0.48254211164E+00 -0.11196752041E+02  0.33268371533E+01  0.11690506784E+02  0.51100000000E-03 0. -1.
        -11    1    3    3    0    0 -0.12331564550E+02  0.46951087689E+01  0.22766247730E+02  0.26313752423E+02  0.51100000000E-03 0.  1.
        -12    1    3    3    0    0  0.42233530715E+00  0.72040534819E+00  0.12496730034E+02  0.12524600294E+02  0.00000000000E+00 0.  1.
</event>
<event>
 7    1  0.2991278E-011  0.5052886E+02  0.7816164E-02  0.1300439E+00
        -11   -1    0    0    0    0  0.00000000000E+00  0.00000000000E+00  0.45593999997E+02  0.45594000000E+02  0.51100000000E-03 0.  1.
         11   -1    0    0    0    0 -0.00000000000E+00 -0.00000000000E+00 -0.45593999997E+02  0.45594000000E+02  0.51100000000E-03 0. -1.
    9900012    2    1    2    0    0  0.28474617256E+02 -0.27417976582E+02 -0.95192790728E+01  0.50528856603E+02  0.29999990129E+02 0.  0.
         12    1    1    2    0    0 -0.28474617256E+02  0.27417976582E+02  0.95192790728E+01  0.40659143397E+02  0.00000000000E+00 0. -1.
         11    1    3    3    0    0  0.10552138430E+02 -0.73193130857E+01 -0.49968320826E+01  0.13779996394E+02  0.51100000000E-03 0. -1.
        -11    1    3    3    0    0 -0.58204098283E+01 -0.53434908291E+01  0.17655689650E+01  0.80961286330E+01  0.51100000000E-03 0.  1.
        -12    1    3    3    0    0  0.23742888654E+02 -0.14755172667E+02 -0.62880159552E+01  0.28652731576E+02  0.00000000000E+00 0.  1.
</event>
<event>
 7    1  0.2991278E-011  0.5052886E+02  0.7816164E-02  0.1300439E+00
        -11   -1    0    0    0    0  0.00000000000E+00  0.00000000000E+00  0.45593999997E+02  0.45594000000E+02  0.51100000000E-03 0. -1.
         11   -1    0    0    0    0 -0.00000000000E+00 -0.00000000000E+00 -0.45593999997E+02  0.45594000000E+02  0.51100000000E-03 0.  1.
    9900012    2    1    2    0    0 -0.21661199642E+02 -0.19685103735E+02 -0.28221525778E+02  0.50528863311E+02  0.30000010521E+02 0.  0.
         12    1    1    2    0    0  0.21661199642E+02  0.19685103735E+02  0.28221525778E+02  0.40659136689E+02  0.00000000000E+00 0. -1.
         11    1    3    3    0    0 -0.81156695025E+01  0.49523660926E+01 -0.95443158922E+01  0.13471599293E+02  0.51100000000E-03 0. -1.
        -11    1    3    3    0    0 -0.14771878686E+02 -0.25598130694E+02 -0.19386504724E+02  0.35345569179E+02  0.51100000000E-03 0.  1.
        -12    1    3    3    0    0  0.12263485460E+01  0.96066086674E+00  0.70929483734E+00  0.17116948395E+01  0.00000000000E+00 0.  1.
</event>
<event>
 7    1  0.2991278E-011  0.5052886E+02  0.7816164E-02  0.1300439E+00
        -11   -1    0    0    0    0  0.00000000000E+00  0.00000000000E+00  0.45593999997E+02  0.45594000000E+02  0.51100000000E-03 0. -1.
         11   -1    0    0    0    0 -0.00000000000E+00 -0.00000000000E+00 -0.45593999997E+02  0.45594000000E+02  0.51100000000E-03 0.  1.
    9900012    2    1    2    0    0 -0.15995870912E+02  0.32386904385E+02 -0.18665108158E+02  0.50528859276E+02  0.29999998255E+02 0.  0.
         12    1    1    2    0    0  0.15995870912E+02 -0.32386904385E+02  0.18665108158E+02  0.40659140724E+02  0.00000000000E+00 0. -1.
         11    1    3    3    0    0 -0.17376645370E+02  0.44178882947E+01 -0.57015908718E+01  0.18814188264E+02  0.51100000000E-03 0. -1.
        -11    1    3    3    0    0 -0.14976438614E+01  0.12522038384E+02 -0.25561681994E+01  0.12867726238E+02  0.51100000000E-03 0.  1.
         12    1    3    3    0    0  0.28784183195E+01  0.15446977707E+02 -0.10407349087E+02  0.18846944774E+02  0.00000000000E+00 0. -1.
</event>
<event>
 7    1  0.2991278E-011  0.5052887E+02  0.7816164E-02  0.1300439E+00
        -11   -1    0    0    0    0  0.00000000000E+00  0.00000000000E+00  0.45593999997E+02  0.45594000000E+02  0.51100000000E-03 0.  1.
         11   -1    0    0    0    0 -0.00000000000E+00 -0.00000000000E+00 -0.45593999997E+02  0.45594000000E+02  0.51100000000E-03 0. -1.
    9900012    2    1    2    0    0 -0.28306617259E+01 -0.35955510767E+01  0.40400793357E+02  0.50528871416E+02  0.30000035157E+02 0.  0.
         12    1    1    2    0    0  0.28306617259E+01  0.35955510767E+01 -0.40400793357E+02  0.40659128584E+02  0.00000000000E+00 0. -1.
         11    1    3    3    0    0 -0.84060833392E+01  0.25437845336E+01  0.27978477392E+01  0.92174307208E+01  0.51100000000E-03 0. -1.
        -11    1    3    3    0    0 -0.23151877788E+01 -0.84660828429E+01  0.21672174742E+02  0.23381997593E+02  0.51100000000E-03 0.  1.
         12    1    3    3    0    0  0.78906093922E+01  0.23267472327E+01  0.15930770876E+02  0.17929443102E+02  0.00000000000E+00 0. -1.
</event>
<event>
 7    1  0.2991278E-011  0.5052885E+02  0.7816164E-02  0.1300439E+00
        -11   -1    0    0    0    0  0.00000000000E+00  0.00000000000E+00  0.45593999997E+02  0.45594000000E+02  0.51100000000E-03 0.  1.
         11   -1    0    0    0    0 -0.00000000000E+00 -0.00000000000E+00 -0.45593999997E+02  0.45594000000E+02  0.51100000000E-03 0. -1.
    9900012    2    1    2    0    0  0.33084035334E+02  0.60650255779E+01  0.22843560568E+02  0.50528853567E+02  0.29999980901E+02 0.  0.
         12    1    1    2    0    0 -0.33084035334E+02 -0.60650255779E+01 -0.22843560568E+02  0.40659146433E+02  0.00000000000E+00 0. -1.
         11    1    3    3    0    0  0.11026213952E+02  0.10838611396E+02  0.15131412732E+02  0.21633597543E+02  0.51100000000E-03 0. -1.
        -11    1    3    3    0    0  0.88859773221E+01 -0.91876532010E+01 -0.43779501390E+00  0.12789262256E+02  0.51100000000E-03 0.  1.
        -12    1    3    3    0    0  0.13171844060E+02  0.44140673826E+01  0.81499428506E+01  0.16105993768E+02  0.00000000000E+00 0.  1.
</event>
<event>
 7    1  0.2991278E-011  0.5052886E+02  0.7816164E-02  0.1300439E+00
        -11   -1    0    0    0    0  0.00000000000E+00  0.00000000000E+00  0.45593999997E+02  0.45594000000E+02  0.51100000000E-03 0. -1.
         11   -1    0    0    0    0 -0.00000000000E+00 -0.00000000000E+00 -0.45593999997E+02  0.45594000000E+02  0.51100000000E-03 0.  1.
    9900012    2    1    2    0    0 -0.32578338350E+02  0.94251833656E+01 -0.22427294274E+02  0.50528859090E+02  0.29999997688E+02 0.  0.
         12    1    1    2    0    0  0.32578338350E+02 -0.94251833656E+01  0.22427294274E+02  0.40659140910E+02  0.00000000000E+00 0. -1.
         11    1    3    3    0    0 -0.32953822108E+02  0.10162836329E+02 -0.21469392277E+02  0.40622314542E+02  0.51100000000E-03 0. -1.
        -11    1    3    3    0    0 -0.69200504854E+00 -0.51373835280E+01 -0.13662012968E+01  0.53607916156E+01  0.51100000000E-03 0.  1.
         12    1    3    3    0    0  0.10674888066E+01  0.43997305649E+01  0.40829929989E+00  0.45457529315E+01  0.00000000000E+00 0. -1.
</event>
<event>
 7    1  0.2991278E-011  0.5052886E+02  0.7816164E-02  0.1300439E+00
        -11   -1    0    0    0    0  0.00000000000E+00  0.00000000000E+00  0.45593999997E+02  0.45594000000E+02  0.51100000000E-03 0.  1.
         11   -1    0    0    0    0 -0.00000000000E+00 -0.00000000000E+00 -0.45593999997E+02  0.45594000000E+02  0.51100000000E-03 0. -1.
    9900012    2    1    2    0    0  0.32133093003E+02 -0.21315219035E+02  0.12895404226E+02  0.50528859840E+02  0.29999999968E+02 0.  0.
         12    1    1    2    0    0 -0.32133093003E+02  0.21315219035E+02 -0.12895404226E+02  0.40659140160E+02  0.00000000000E+00 0. -1.
         11    1    3    3    0    0  0.68217259620E+01 -0.42737980662E+01  0.17780601194E+02  0.19517967981E+02  0.51100000000E-03 0. -1.
        -11    1    3    3    0    0  0.18715253292E+02 -0.13556860008E+02 -0.44814643777E+01  0.23540022988E+02  0.51100000000E-03 0.  1.
         12    1    3    3    0    0  0.65961137489E+01 -0.34845609609E+01 -0.40373259039E+00  0.74708688707E+01  0.00000000000E+00 0. -1.
</event>
<event>
 7    1  0.2991278E-011  0.5052886E+02  0.7816164E-02  0.1300439E+00
        -11   -1    0    0    0    0  0.00000000000E+00  0.00000000000E+00  0.45593999997E+02  0.45594000000E+02  0.51100000000E-03 0. -1.
         11   -1    0    0    0    0 -0.00000000000E+00 -0.00000000000E+00 -0.45593999997E+02  0.45594000000E+02  0.51100000000E-03 0.  1.
    9900012    2    1    2    0    0  0.11124080108E+02  0.34098001456E+02 -0.19150639399E+02  0.50528857720E+02  0.29999993525E+02 0.  0.
         12    1    1    2    0    0 -0.11124080108E+02 -0.34098001456E+02  0.19150639399E+02  0.40659142280E+02  0.00000000000E+00 0. -1.
         11    1    3    3    0    0  0.11143350269E+02  0.54390744368E+00 -0.58013874500E+00  0.11171689745E+02  0.51100000000E-03 0. -1.
        -11    1    3    3    0    0 -0.81203800118E+00  0.94134565049E+01 -0.99240733075E+01  0.13702547222E+02  0.51100000000E-03 0.  1.
         12    1    3    3    0    0  0.79276783981E+00  0.24140637508E+02 -0.86464273469E+01  0.25654620753E+02  0.00000000000E+00 0. -1.
</event>
<event>
 7    1  0.2991278E-011  0.5052886E+02  0.7816164E-02  0.1300439E+00
        -11   -1    0    0    0    0  0.00000000000E+00  0.00000000000E+00  0.45593999997E+02  0.45594000000E+02  0.51100000000E-03 0. -1.
         11   -1    0    0    0    0 -0.00000000000E+00 -0.00000000000E+00 -0.45593999997E+02  0.45594000000E+02  0.51100000000E-03 0.  1.
    9900012    2    1    2    0    0  0.31779735655E+02  0.24872071837E+02  0.49592508001E+01  0.50528859278E+02  0.29999998261E+02 0.  0.
         12    1    1    2    0    0 -0.31779735655E+02 -0.24872071837E+02 -0.49592508001E+01  0.40659140722E+02  0.00000000000E+00 0. -1.
         11    1    3    3    0    0  0.61153178509E+01  0.35670173546E+01 -0.90856149868E+01  0.11518208419E+02  0.51100000000E-03 0. -1.
        -11    1    3    3    0    0  0.10803290448E+02  0.16447494631E+02  0.12470136452E+02  0.23296683617E+02  0.51100000000E-03 0.  1.
        -12    1    3    3    0    0  0.14861127357E+02  0.48575598511E+01  0.15747293348E+01  0.15713967243E+02  0.00000000000E+00 0.  1.
</event>
<event>
 7    1  0.2991278E-011  0.5052886E+02  0.7816164E-02  0.1300439E+00
        -11   -1    0    0    0    0  0.00000000000E+00  0.00000000000E+00  0.45593999997E+02  0.45594000000E+02  0.51100000000E-03 0.  1.
         11   -1    0    0    0    0 -0.00000000000E+00 -0.00000000000E+00 -0.45593999997E+02  0.45594000000E+02  0.51100000000E-03 0. -1.
    9900012    2    1    2    0    0 -0.30687697513E+02  0.67017912409E+01  0.25816990577E+02  0.50528858507E+02  0.29999995918E+02 0.  0.
         12    1    1    2    0    0  0.30687697513E+02 -0.67017912409E+01 -0.25816990577E+02  0.40659141493E+02  0.00000000000E+00 0. -1.
         11    1    3    3    0    0 -0.87362177961E+01  0.26671199289E+01 -0.46475713966E+01  0.10248656021E+02  0.51100000000E-03 0. -1.
        -11    1    3    3    0    0 -0.99688523066E+01 -0.20266244028E+01  0.22436568298E+02  0.24635032373E+02  0.51100000000E-03 0.  1.
         12    1    3    3    0    0 -0.11982627410E+02  0.60612957148E+01  0.80279936762E+01  0.15645170113E+02  0.00000000000E+00 0. -1.
</event>
<event>
 7    1  0.2991278E-011  0.5052886E+02  0.7816164E-02  0.1300439E+00
        -11   -1    0    0    0    0  0.00000000000E+00  0.00000000000E+00  0.45593999997E+02  0.45594000000E+02  0.51100000000E-03 0.  1.
         11   -1    0    0    0    0 -0.00000000000E+00 -0.00000000000E+00 -0.45593999997E+02  0.45594000000E+02  0.51100000000E-03 0. -1.
    9900012    2    1    2    0    0 -0.31181102517E+02 -0.90651202169E+01  0.24468917654E+02  0.50528862160E+02  0.30000007022E+02 0.  0.
         12    1    1    2    0    0  0.31181102517E+02  0.90651202169E+01 -0.24468917654E+02  0.40659137840E+02  0.00000000000E+00 0. -1.
         11    1    3    3    0    0 -0.67379377086E+01 -0.10152543199E+02  0.38362001317E+01  0.12774598612E+02  0.51100000000E-03 0. -1.
        -11    1    3    3    0    0  0.21139467008E+00  0.61086608454E+01  0.19503766122E+01  0.64159484272E+01  0.51100000000E-03 0.  1.
        -12    1    3    3    0    0 -0.24654559479E+02 -0.50212378632E+01  0.18682340910E+02  0.31338315121E+02  0.00000000000E+00 0.  1.
</event>
<event>
 7    1  0.2991278E-011  0.5052886E+02  0.7816164E-02  0.1300439E+00
        -11   -1    0    0    0    0  0.00000000000E+00  0.00000000000E+00  0.45593999997E+02  0.45594000000E+02  0.51100000000E-03 0.  1.
         11   -1    0    0    0    0 -0.00000000000E+00 -0.00000000000E+00 -0.45593999997E+02  0.45594000000E+02  0.51100000000E-03 0. -1.
    9900012    2    1    2    0    0 -0.19924100269E+02  0.12085158798E+02  0.33318839429E+02  0.50528857171E+02  0.29999991856E+02 0.  0.
         12    1    1    2    0    0  0.19924100269E+02 -0.12085158798E+02 -0.33318839429E+02  0.40659142829E+02  0.00000000000E+00 0. -1.
         11    1    3    3    0    0 -0.75915303738E+01 -0.13916755756E+01  0.34667269971E+01  0.84608681977E+01  0.51100000000E-03 0. -1.
        -11    1    3    3    0    0  0.20024487037E+01  0.14498442543E+02  0.10732273512E+02  0.18149279104E+02  0.51100000000E-03 0.  1.
        -12    1    3    3    0    0 -0.14335018599E+02 -0.10216081691E+01  0.19119838920E+02  0.23918709869E+02  0.00000000000E+00 0.  1.
</event>
<event>
 7    1  0.2991278E-011  0.5052886E+02  0.7816164E-02  0.1300439E+00
        -11   -1    0    0    0    0  0.00000000000E+00  0.00000000000E+00  0.45593999997E+02  0.45594000000E+02  0.51100000000E-03 0.  1.
         11   -1    0    0    0    0 -0.00000000000E+00 -0.00000000000E+00 -0.45593999997E+02  0.45594000000E+02  0.51100000000E-03 0. -1.
    9900012    2    1    2    0    0  0.28644941345E+02 -0.20382128933E+02  0.20425528221E+02  0.50528855302E+02  0.29999986176E+02 0.  0.
         12    1    1    2    0    0 -0.28644941345E+02  0.20382128933E+02 -0.20425528221E+02  0.40659144698E+02  0.00000000000E+00 0. -1.
         11    1    3    3    0    0  0.42802491241E+01 -0.13119168054E+02  0.18708586861E+01  0.13925990646E+02  0.51100000000E-03 0. -1.
        -11    1    3    3    0    0  0.18126007846E+01  0.49460040666E+00  0.11613152527E+02  0.11764160108E+02  0.51100000000E-03 0.  1.
        -12    1    3    3    0    0  0.22552091436E+02 -0.77575612859E+01  0.69415170074E+01  0.24838704548E+02  0.00000000000E+00 0.  1.
</event>
<event>
 7    1  0.2991278E-011  0.5052886E+02  0.7816164E-02  0.1300439E+00
        -11   -1    0    0    0    0  0.00000000000E+00  0.00000000000E+00  0.45593999997E+02  0.45594000000E+02  0.51100000000E-03 0.  1.
         11   -1    0    0    0    0 -0.00000000000E+00 -0.00000000000E+00 -0.45593999997E+02  0.45594000000E+02  0.51100000000E-03 0. -1.
    9900012    2    1    2    0    0  0.71560122636E+01  0.24497662865E+02  0.31651564376E+02  0.50528861730E+02  0.30000005715E+02 0.  0.
         12    1    1    2    0    0 -0.71560122636E+01 -0.24497662865E+02 -0.31651564376E+02  0.40659138270E+02  0.00000000000E+00 0. -1.
         11    1    3    3    0    0 -0.65500485470E+01  0.17999177762E+01 -0.18728849981E+01  0.70463138198E+01  0.51100000000E-03 0. -1.
        -11    1    3    3    0    0  0.28289544801E+01  0.96289214216E+01  0.81019463440E+01  0.12898086913E+02  0.51100000000E-03 0.  1.
         12    1    3    3    0    0  0.10877106331E+02  0.13068823667E+02  0.25422503031E+02  0.30584460997E+02  0.00000000000E+00 0. -1.
</event>
<event>
 7    1  0.2991278E-011  0.5052886E+02  0.7816164E-02  0.1300439E+00
        -11   -1    0    0    0    0  0.00000000000E+00  0.00000000000E+00  0.45593999997E+02  0.45594000000E+02  0.51100000000E-03 0. -1.
         11   -1    0    0    0    0 -0.00000000000E+00 -0.00000000000E+00 -0.45593999997E+02  0.45594000000E+02  0.51100000000E-03 0.  1.
    9900012    2    1    2    0    0 -0.34533449422E+02  0.11945865015E+02 -0.17829840089E+02  0.50528855671E+02  0.29999987299E+02 0.  0.
         12    1    1    2    0    0  0.34533449422E+02 -0.11945865015E+02  0.17829840089E+02  0.40659144329E+02  0.00000000000E+00 0. -1.
         11    1    3    3    0    0 -0.15311498444E+02  0.10601547136E+02  0.31177362180E+01  0.18882665746E+02  0.51100000000E-03 0. -1.
        -11    1    3    3    0    0 -0.16013311253E+01  0.96821683464E+00 -0.11495776154E+02  0.11647084393E+02  0.51100000000E-03 0.  1.
         12    1    3    3    0    0 -0.17620619852E+02  0.37610104459E+00 -0.94518001525E+01  0.19999105532E+02  0.00000000000E+00 0. -1.
</event>
<event>
 7    1  0.3226007E-011  0.5052886E+02  0.7816164E-02  0.1300439E+00
        -11   -1    0    0    0    0  0.00000000000E+00  0.00000000000E+00  0.45593999997E+02  0.45594000000E+02  0.51100000000E-03 0. -1.
         11   -1    0    0    0    0 -0.00000000000E+00 -0.00000000000E+00 -0.45593999997E+02  0.45594000000E+02  0.51100000000E-03 0.  1.
    9900012    2    1    2    0    0  0.23968505051E+02 -0.10825256571E+02 -0.31007904745E+02  0.50528861164E+02  0.30000003995E+02 0.  0.
         12    1    1    2    0    0 -0.23968505051E+02  0.10825256571E+02  0.31007904745E+02  0.40659138836E+02  0.00000000000E+00 0. -1.
         11    1    3    3    0    0  0.22944150730E+01  0.78620959217E+01 -0.87139576703E+01  0.11958676823E+02  0.51100000000E-03 0. -1.
        -11    1    3    3    0    0  0.19761136234E+02 -0.11674856562E+02 -0.11808603049E+02  0.25811778072E+02  0.51100000000E-03 0.  1.
        -12    1    3    3    0    0  0.19129537432E+01 -0.70124959312E+01 -0.10485344025E+02  0.12758406270E+02  0.00000000000E+00 0.  1.
</event>
<event>
 7    1  0.2991278E-011  0.5052886E+02  0.7816164E-02  0.1300439E+00
        -11   -1    0    0    0    0  0.00000000000E+00  0.00000000000E+00  0.45593999997E+02  0.45594000000E+02  0.51100000000E-03 0.  1.
         11   -1    0    0    0    0 -0.00000000000E+00 -0.00000000000E+00 -0.45593999997E+02  0.45594000000E+02  0.51100000000E-03 0. -1.
    9900012    2    1    2    0    0  0.13606978043E+01 -0.26836580183E+02  0.30514130242E+02  0.50528859836E+02  0.29999999957E+02 0.  0.
         12    1    1    2    0    0 -0.13606978043E+01  0.26836580183E+02 -0.30514130242E+02  0.40659140164E+02  0.00000000000E+00 0. -1.
         11    1    3    3    0    0  0.22760457251E+01  0.34748671315E+01  0.97133819862E+01  0.10564320877E+02  0.51100000000E-03 0. -1.
        -11    1    3    3    0    0 -0.33705225237E+01 -0.30283206456E+02  0.21636650965E+02  0.37370813218E+02  0.51100000000E-03 0.  1.
        -12    1    3    3    0    0  0.24551746029E+01 -0.28240858475E-01 -0.83590270928E+00  0.25937257403E+01  0.00000000000E+00 0.  1.
</event>
<event>
 7    1  0.2991278E-011  0.5052886E+02  0.7816164E-02  0.1300439E+00
        -11   -1    0    0    0    0  0.00000000000E+00  0.00000000000E+00  0.45593999997E+02  0.45594000000E+02  0.51100000000E-03 0. -1.
         11   -1    0    0    0    0 -0.00000000000E+00 -0.00000000000E+00 -0.45593999997E+02  0.45594000000E+02  0.51100000000E-03 0.  1.
    9900012    2    1    2    0    0  0.38149563743E+02  0.13755686763E+02  0.29253784498E+01  0.50528856241E+02  0.29999989031E+02 0.  0.
         12    1    1    2    0    0 -0.38149563743E+02 -0.13755686763E+02 -0.29253784498E+01  0.40659143759E+02  0.00000000000E+00 0. -1.
         11    1    3    3    0    0  0.15839968492E+02 -0.24104524628E+01  0.10593384939E+02  0.19207672624E+02  0.51100000000E-03 0. -1.
        -11    1    3    3    0    0  0.53418771872E+01  0.38869343739E+01 -0.79982837586E+01  0.10373835070E+02  0.51100000000E-03 0.  1.
         12    1    3    3    0    0  0.16967718064E+02  0.12279204852E+02  0.33027726921E+00  0.20947348547E+02  0.00000000000E+00 0. -1.
</event>
<event>
 7    1  0.2991278E-011  0.5052884E+02  0.7816164E-02  0.1300439E+00
        -11   -1    0    0    0    0  0.00000000000E+00  0.00000000000E+00  0.45593999997E+02  0.45594000000E+02  0.51100000000E-03 0. -1.
         11   -1    0    0    0    0 -0.00000000000E+00 -0.00000000000E+00 -0.45593999997E+02  0.45594000000E+02  0.51100000000E-03 0.  1.
    9900012    2    1    2    0    0 -0.30137183686E+02  0.25774021193E+02 -0.89786947084E+01  0.50528843988E+02  0.29999951785E+02 0.  0.
         12    1    1    2    0    0  0.30137183686E+02 -0.25774021193E+02  0.89786947084E+01  0.40659156012E+02  0.00000000000E+00 0. -1.
         11    1    3    3    0    0 -0.25184881186E+02  0.12701292192E+02  0.15032575013E+01  0.28246430696E+02  0.51100000000E-03 0. -1.
        -11    1    3    3    0    0 -0.33460986383E+00  0.12338641651E+02 -0.12148336622E+02  0.17318664050E+02  0.51100000000E-03 0.  1.
        -12    1    3    3    0    0 -0.46176926362E+01  0.73408734991E+00  0.16663844122E+01  0.49637492412E+01  0.00000000000E+00 0.  1.
</event>
<event>
 7    1  0.3370306E-011  0.5052883E+02  0.7816164E-02  0.1300439E+00
        -11   -1    0    0    0    0  0.00000000000E+00  0.00000000000E+00  0.45593999997E+02  0.45594000000E+02  0.51100000000E-03 0. -1.
         11   -1    0    0    0    0 -0.00000000000E+00 -0.00000000000E+00 -0.45593999997E+02  0.45594000000E+02  0.51100000000E-03 0.  1.
    9900012    2    1    2    0    0 -0.32546865461E+02  0.20567242237E+02  0.13071262581E+02  0.50528833628E+02  0.29999920296E+02 0.  0.
         12    1    1    2    0    0  0.32546865461E+02 -0.20567242237E+02 -0.13071262581E+02  0.40659166372E+02  0.00000000000E+00 0. -1.
         11    1    3    3    0    0 -0.32897392148E+00 -0.14017102834E+01 -0.52939080509E+01  0.54862080048E+01  0.51100000000E-03 0. -1.
        -11    1    3    3    0    0 -0.16106971176E+02  0.81079968150E+01  0.15141601581E+02  0.23546597026E+02  0.51100000000E-03 0.  1.
        -12    1    3    3    0    0 -0.16110920363E+02  0.13860955706E+02  0.32235690513E+01  0.21496028597E+02  0.00000000000E+00 0.  1.
</event>
<event>
 7    1  0.2991278E-011  0.5052886E+02  0.7816164E-02  0.1300439E+00
        -11   -1    0    0    0    0  0.00000000000E+00  0.00000000000E+00  0.45593999997E+02  0.45594000000E+02  0.51100000000E-03 0. -1.
         11   -1    0    0    0    0 -0.00000000000E+00 -0.00000000000E+00 -0.45593999997E+02  0.45594000000E+02  0.51100000000E-03 0.  1.
    9900012    2    1    2    0    0 -0.81039242123E+00 -0.34587893887E+01 -0.40503646435E+02  0.50528864071E+02  0.30000012831E+02 0.  0.
         12    1    1    2    0    0  0.81039242123E+00  0.34587893887E+01  0.40503646435E+02  0.40659135929E+02  0.00000000000E+00 0. -1.
         11    1    3    3    0    0 -0.95123647474E+01  0.65492733995E+01 -0.15615325301E+02  0.19422060902E+02  0.51100000000E-03 0.  1.
        -11    1    3    3    0    0  0.33794485075E+01 -0.10026474763E+02 -0.76258653327E+01  0.13042418898E+02  0.51100000000E-03 0. -1.
        -12    1    3    3    0    0  0.53225238186E+01  0.18411974448E-01 -0.17262455801E+02  0.18064384271E+02  0.00000000000E+00 0.  1.
</event>
<event>
 7    1  0.2991278E-011  0.5052884E+02  0.7816164E-02  0.1300439E+00
        -11   -1    0    0    0    0  0.00000000000E+00  0.00000000000E+00  0.45593999997E+02  0.45594000000E+02  0.51100000000E-03 0. -1.
         11   -1    0    0    0    0 -0.00000000000E+00 -0.00000000000E+00 -0.45593999997E+02  0.45594000000E+02  0.51100000000E-03 0.  1.
    9900012    2    1    2    0    0  0.20621588156E+02 -0.31476667382E+02 -0.15399248143E+02  0.50528839520E+02  0.29999938206E+02 0.  0.
         12    1    1    2    0    0 -0.20621588156E+02  0.31476667382E+02  0.15399248143E+02  0.40659160480E+02  0.00000000000E+00 0. -1.
         11    1    3    3    0    0  0.11056335768E+02  0.70214353895E+00 -0.75410260142E+01  0.13401590942E+02  0.51100000000E-03 0. -1.
        -11    1    3    3    0    0  0.10492806813E+02 -0.26041595034E+02 -0.11020158827E+02  0.30161358848E+02  0.51100000000E-03 0.  1.
         12    1    3    3    0    0 -0.92755442528E+00 -0.61372158867E+01  0.31619366981E+01  0.69658897303E+01  0.00000000000E+00 0. -1.
</event>
<event>
 7    1  0.2991278E-011  0.5052886E+02  0.7816164E-02  0.1300439E+00
        -11   -1    0    0    0    0  0.00000000000E+00  0.00000000000E+00  0.45593999997E+02  0.45594000000E+02  0.51100000000E-03 0. -1.
         11   -1    0    0    0    0 -0.00000000000E+00 -0.00000000000E+00 -0.45593999997E+02  0.45594000000E+02  0.51100000000E-03 0.  1.
    9900012    2    1    2    0    0  0.19548601928E+02  0.10387328688E+02 -0.34104564038E+02  0.50528859296E+02  0.29999998316E+02 0.  0.
         12    1    1    2    0    0 -0.19548601928E+02 -0.10387328688E+02  0.34104564038E+02  0.40659140704E+02  0.00000000000E+00 0. -1.
         11    1    3    3    0    0 -0.41558636391E+01  0.26700789091E+01 -0.10814708057E+02  0.11889425326E+02  0.51100000000E-03 0. -1.
        -11    1    3    3    0    0  0.16890670650E+02 -0.39234188071E+01 -0.13367325873E+02  0.21894596854E+02  0.51100000000E-03 0.  1.
         12    1    3    3    0    0  0.68137949168E+01  0.11640668586E+02 -0.99225301077E+01  0.16744837116E+02  0.00000000000E+00 0. -1.
</event>
<event>
 7    1  0.2991278E-011  0.5052888E+02  0.7816164E-02  0.1300439E+00
        -11   -1    0    0    0    0  0.00000000000E+00  0.00000000000E+00  0.45593999997E+02  0.45594000000E+02  0.51100000000E-03 0.  1.
         11   -1    0    0    0    0 -0.00000000000E+00 -0.00000000000E+00 -0.45593999997E+02  0.45594000000E+02  0.51100000000E-03 0. -1.
    9900012    2    1    2    0    0 -0.10599459804E+01  0.40569741812E+02  0.24771622388E+01  0.50528883323E+02  0.30000071349E+02 0.  0.
         12    1    1    2    0    0  0.10599459804E+01 -0.40569741812E+02 -0.24771622388E+01  0.40659116677E+02  0.00000000000E+00 0. -1.
         11    1    3    3    0    0  0.69992681409E+01  0.76349204716E+01 -0.23335600692E+01  0.10617309828E+02  0.51100000000E-03 0. -1.
        -11    1    3    3    0    0 -0.60630516046E+01  0.32805540379E+02 -0.13961605138E+01  0.33390318040E+02  0.51100000000E-03 0.  1.
        -12    1    3    3    0    0 -0.19961625167E+01  0.12928096103E+00  0.62068828219E+01  0.65212554561E+01  0.00000000000E+00 0.  1.
</event>
<event>
 7    1  0.2991278E-011  0.5052886E+02  0.7816164E-02  0.1300439E+00
        -11   -1    0    0    0    0  0.00000000000E+00  0.00000000000E+00  0.45593999997E+02  0.45594000000E+02  0.51100000000E-03 0.  1.
         11   -1    0    0    0    0 -0.00000000000E+00 -0.00000000000E+00 -0.45593999997E+02  0.45594000000E+02  0.51100000000E-03 0. -1.
    9900012    2    1    2    0    0 -0.62393663071E+01 -0.34733968354E+02 -0.20193744190E+02  0.50528861372E+02  0.30000004626E+02 0.  0.
         12    1    1    2    0    0  0.62393663071E+01  0.34733968354E+02  0.20193744190E+02  0.40659138628E+02  0.00000000000E+00 0. -1.
         11    1    3    3    0    0 -0.12391088506E+02 -0.17065009549E+01 -0.45824640213E+01  0.13321043376E+02  0.51100000000E-03 0. -1.
        -11    1    3    3    0    0  0.48019872142E+01 -0.20491411705E+02 -0.82358679462E+01  0.22600587514E+02  0.51100000000E-03 0.  1.
         12    1    3    3    0    0  0.13497349842E+01 -0.12536055694E+02 -0.73754122229E+01  0.14607230482E+02  0.00000000000E+00 0. -1.
</event>
<event>
 7    1  0.2991278E-011  0.5052889E+02  0.7816164E-02  0.1300439E+00
        -11   -1    0    0    0    0  0.00000000000E+00  0.00000000000E+00  0.45593999997E+02  0.45594000000E+02  0.51100000000E-03 0. -1.
         11   -1    0    0    0    0 -0.00000000000E+00 -0.00000000000E+00 -0.45593999997E+02  0.45594000000E+02  0.51100000000E-03 0.  1.
    9900012    2    1    2    0    0 -0.19944540185E+02  0.13114088937E+02 -0.32915033796E+02  0.50528887102E+02  0.30000082836E+02 0.  0.
         12    1    1    2    0    0  0.19944540185E+02 -0.13114088937E+02  0.32915033796E+02  0.40659112898E+02  0.00000000000E+00 0. -1.
         11    1    3    3    0    0  0.30034788230E+01  0.11483029116E+02 -0.11733787037E+02  0.16690194763E+02  0.51100000000E-03 0. -1.
        -11    1    3    3    0    0 -0.16783116793E+02  0.44635318856E+01 -0.82297881455E+01  0.19217844295E+02  0.51100000000E-03 0.  1.
         12    1    3    3    0    0 -0.61649022152E+01 -0.28324720650E+01 -0.12951458613E+02  0.14620848044E+02  0.00000000000E+00 0. -1.
</event>
<event>
 7    1  0.2991278E-011  0.5052885E+02  0.7816164E-02  0.1300439E+00
        -11   -1    0    0    0    0  0.00000000000E+00  0.00000000000E+00  0.45593999997E+02  0.45594000000E+02  0.51100000000E-03 0.  1.
         11   -1    0    0    0    0 -0.00000000000E+00 -0.00000000000E+00 -0.45593999997E+02  0.45594000000E+02  0.51100000000E-03 0. -1.
    9900012    2    1    2    0    0  0.35982765143E+02 -0.15363887359E+02 -0.11061545024E+02  0.50528853422E+02  0.29999980463E+02 0.  0.
         12    1    1    2    0    0 -0.35982765143E+02  0.15363887359E+02  0.11061545024E+02  0.40659146578E+02  0.00000000000E+00 0. -1.
         11    1    3    3    0    0  0.14004901278E+02 -0.82748896155E+00 -0.11347400620E+02  0.18043987888E+02  0.51100000000E-03 0. -1.
        -11    1    3    3    0    0  0.55097140271E+01 -0.15022343627E+02 -0.20632482816E+00  0.16002197565E+02  0.51100000000E-03 0.  1.
        -12    1    3    3    0    0  0.16468149838E+02  0.48594522918E+00  0.49218042504E+00  0.16482667970E+02  0.00000000000E+00 0.  1.
</event>
<event>
 7    1  0.2991278E-011  0.5052884E+02  0.7816164E-02  0.1300439E+00
        -11   -1    0    0    0    0  0.00000000000E+00  0.00000000000E+00  0.45593999997E+02  0.45594000000E+02  0.51100000000E-03 0. -1.
         11   -1    0    0    0    0 -0.00000000000E+00 -0.00000000000E+00 -0.45593999997E+02  0.45594000000E+02  0.51100000000E-03 0.  1.
    9900012    2    1    2    0    0  0.14577558334E+02  0.93782718109E+01 -0.36779202795E+02  0.50528844236E+02  0.29999952541E+02 0.  0.
         12    1    1    2    0    0 -0.14577558334E+02 -0.93782718109E+01  0.36779202795E+02  0.40659155764E+02  0.00000000000E+00 0. -1.
         11    1    3    3    0    0  0.17535660974E+02  0.22956232389E+01 -0.15629866746E+02  0.23602161482E+02  0.51100000000E-03 0. -1.
        -11    1    3    3    0    0 -0.19828788139E+01  0.22336729903E+01 -0.21741125920E+02  0.21945333444E+02  0.51100000000E-03 0.  1.
         12    1    3    3    0    0 -0.97522382602E+00  0.48489755817E+01  0.59178987101E+00  0.49813493106E+01  0.00000000000E+00 0. -1.
</event>
<event>
 7    1  0.2991278E-011  0.5052886E+02  0.7816164E-02  0.1300439E+00
        -11   -1    0    0    0    0  0.00000000000E+00  0.00000000000E+00  0.45593999997E+02  0.45594000000E+02  0.51100000000E-03 0.  1.
         11   -1    0    0    0    0 -0.00000000000E+00 -0.00000000000E+00 -0.45593999997E+02  0.45594000000E+02  0.51100000000E-03 0. -1.
    9900012    2    1    2    0    0 -0.16360574342E+02 -0.34168054505E+02  0.14766223728E+02  0.50528859519E+02  0.29999998995E+02 0.  0.
         12    1    1    2    0    0  0.16360574342E+02  0.34168054505E+02 -0.14766223728E+02  0.40659140481E+02  0.00000000000E+00 0. -1.
         11    1    3    3    0    0 -0.27021173217E+01 -0.72550536111E+00 -0.63043403703E+01  0.68972823500E+01  0.51100000000E-03 0. -1.
        -11    1    3    3    0    0 -0.16011408648E+02 -0.28936836426E+02  0.19019105820E+02  0.38150125763E+02  0.51100000000E-03 0.  1.
        -12    1    3    3    0    0  0.23529516278E+01 -0.45057127175E+01  0.20514582785E+01  0.54814514067E+01  0.00000000000E+00 0.  1.
</event>
<event>
 7    1  0.2991278E-011  0.5052888E+02  0.7816164E-02  0.1300439E+00
        -11   -1    0    0    0    0  0.00000000000E+00  0.00000000000E+00  0.45593999997E+02  0.45594000000E+02  0.51100000000E-03 0. -1.
         11   -1    0    0    0    0 -0.00000000000E+00 -0.00000000000E+00 -0.45593999997E+02  0.45594000000E+02  0.51100000000E-03 0.  1.
    9900012    2    1    2    0    0  0.27682188142E+02 -0.21886349535E+02 -0.20195261388E+02  0.50528875331E+02  0.30000047057E+02 0.  0.
         12    1    1    2    0    0 -0.27682188142E+02  0.21886349535E+02  0.20195261388E+02  0.40659124669E+02  0.00000000000E+00 0. -1.
         11    1    3    3    0    0  0.25950919864E+01 -0.81240659733E+01  0.38476694816E+01  0.93562551834E+01  0.51100000000E-03 0. -1.
        -11    1    3    3    0    0  0.20367585124E+02 -0.16993083592E+01 -0.15584421459E+02  0.25702147092E+02  0.51100000000E-03 0.  1.
        -12    1    3    3    0    0  0.47195110308E+01 -0.12062975203E+02 -0.84585094111E+01  0.15470473056E+02  0.00000000000E+00 0.  1.
</event>
<event>
 7    1  0.2991278E-011  0.5052886E+02  0.7816164E-02  0.1300439E+00
        -11   -1    0    0    0    0  0.00000000000E+00  0.00000000000E+00  0.45593999997E+02  0.45594000000E+02  0.51100000000E-03 0.  1.
         11   -1    0    0    0    0 -0.00000000000E+00 -0.00000000000E+00 -0.45593999997E+02  0.45594000000E+02  0.51100000000E-03 0. -1.
    9900012    2    1    2    0    0  0.23192460460E+02 -0.17656771574E+02  0.28346314535E+02  0.50528863852E+02  0.30000012164E+02 0.  0.
         12    1    1    2    0    0 -0.23192460460E+02  0.17656771574E+02 -0.28346314535E+02  0.40659136148E+02  0.00000000000E+00 0. -1.
         11    1    3    3    0    0 -0.10166508615E+01 -0.88441218177E+01 -0.27903509145E+01  0.93294227146E+01  0.51100000000E-03 0. -1.
        -11    1    3    3    0    0  0.18548612454E+02 -0.45692855010E+01  0.17840275454E+02  0.26138187055E+02  0.51100000000E-03 0.  1.
         12    1    3    3    0    0  0.56604988675E+01 -0.42433642555E+01  0.13296389995E+02  0.15061254083E+02  0.00000000000E+00 0. -1.
</event>
<event>
 7    1  0.2991278E-011  0.5052885E+02  0.7816164E-02  0.1300439E+00
        -11   -1    0    0    0    0  0.00000000000E+00  0.00000000000E+00  0.45593999997E+02  0.45594000000E+02  0.51100000000E-03 0. -1.
         11   -1    0    0    0    0 -0.00000000000E+00 -0.00000000000E+00 -0.45593999997E+02  0.45594000000E+02  0.51100000000E-03 0.  1.
    9900012    2    1    2    0    0  0.22138025213E+02  0.14137495545E+01 -0.34074554399E+02  0.50528854588E+02  0.29999984006E+02 0.  0.
         12    1    1    2    0    0 -0.22138025213E+02 -0.14137495545E+01  0.34074554399E+02  0.40659145412E+02  0.00000000000E+00 0. -1.
         11    1    3    3    0    0 -0.26115290960E+01 -0.75077372073E+01 -0.41247668226E+01  0.89554398995E+01  0.51100000000E-03 0. -1.
        -11    1    3    3    0    0  0.22432614337E+02  0.60989739801E+01 -0.18977481876E+02  0.30009406662E+02  0.51100000000E-03 0.  1.
         12    1    3    3    0    0  0.23169399714E+01  0.28225127817E+01 -0.10972305701E+02  0.11564008026E+02  0.00000000000E+00 0. -1.
</event>
<event>
 7    1  0.2991278E-011  0.5052886E+02  0.7816164E-02  0.1300439E+00
        -11   -1    0    0    0    0  0.00000000000E+00  0.00000000000E+00  0.45593999997E+02  0.45594000000E+02  0.51100000000E-03 0.  1.
         11   -1    0    0    0    0 -0.00000000000E+00 -0.00000000000E+00 -0.45593999997E+02  0.45594000000E+02  0.51100000000E-03 0. -1.
    9900012    2    1    2    0    0  0.58139820504E-01  0.13289384899E+02  0.38425963820E+02  0.50528858018E+02  0.29999994431E+02 0.  0.
         12    1    1    2    0    0 -0.58139820504E-01 -0.13289384899E+02 -0.38425963820E+02  0.40659141982E+02  0.00000000000E+00 0. -1.
         11    1    3    3    0    0  0.25727634970E+01  0.21056629133E+02  0.25205445605E+02  0.32944122858E+02  0.51100000000E-03 0. -1.
        -11    1    3    3    0    0  0.10479930014E+01 -0.75884666065E+01  0.10924036544E+02  0.13342326988E+02  0.51100000000E-03 0.  1.
        -12    1    3    3    0    0 -0.35626166779E+01 -0.17877762768E+00  0.22964816709E+01  0.42424081721E+01  0.00000000000E+00 0.  1.
</event>
<event>
 7    1  0.2991278E-011  0.5052886E+02  0.7816164E-02  0.1300439E+00
        -11   -1    0    0    0    0  0.00000000000E+00  0.00000000000E+00  0.45593999997E+02  0.45594000000E+02  0.51100000000E-03 0. -1.
         11   -1    0    0    0    0 -0.00000000000E+00 -0.00000000000E+00 -0.45593999997E+02  0.45594000000E+02  0.51100000000E-03 0.  1.
    9900012    2    1    2    0    0  0.23171272641E+02  0.26785971013E+02 -0.19969208607E+02  0.50528863127E+02  0.30000009960E+02 0.  0.
         12    1    1    2    0    0 -0.23171272641E+02 -0.26785971013E+02  0.19969208607E+02  0.40659136873E+02  0.00000000000E+00 0. -1.
         11    1    3    3    0    0 -0.17196881813E+01  0.18865838232E+02 -0.72462566803E+01  0.20282638284E+02  0.51100000000E-03 0. -1.
        -11    1    3    3    0    0  0.31907729303E+01  0.36694760326E+01 -0.45857809086E+01  0.66839713531E+01  0.51100000000E-03 0.  1.
         12    1    3    3    0    0  0.21700187892E+02  0.42506567482E+01 -0.81371710178E+01  0.23562253490E+02  0.00000000000E+00 0. -1.
</event>
<event>
 7    1  0.2991278E-011  0.5052886E+02  0.7816164E-02  0.1300439E+00
        -11   -1    0    0    0    0  0.00000000000E+00  0.00000000000E+00  0.45593999997E+02  0.45594000000E+02  0.51100000000E-03 0.  1.
         11   -1    0    0    0    0 -0.00000000000E+00 -0.00000000000E+00 -0.45593999997E+02  0.45594000000E+02  0.51100000000E-03 0. -1.
    9900012    2    1    2    0    0  0.12255096039E+02 -0.36012782850E+02  0.14354712433E+02  0.50528859864E+02  0.30000000044E+02 0.  0.
         12    1    1    2    0    0 -0.12255096039E+02  0.36012782850E+02 -0.14354712433E+02  0.40659140136E+02  0.00000000000E+00 0. -1.
         11    1    3    3    0    0  0.17563297719E+02 -0.16284528159E+02  0.77863363178E+01  0.25184962133E+02  0.51100000000E-03 0. -1.
        -11    1    3    3    0    0 -0.64383045190E+01 -0.11124494740E+02  0.97167288144E+01  0.16112757908E+02  0.51100000000E-03 0.  1.
        -12    1    3    3    0    0  0.11301028395E+01 -0.86037599509E+01 -0.31483526987E+01  0.92311398232E+01  0.00000000000E+00 0.  1.
</event>
<event>
 7    1  0.2991278E-011  0.5052885E+02  0.7816164E-02  0.1300439E+00
        -11   -1    0    0    0    0  0.00000000000E+00  0.00000000000E+00  0.45593999997E+02  0.45594000000E+02  0.51100000000E-03 0.  1.
         11   -1    0    0    0    0 -0.00000000000E+00 -0.00000000000E+00 -0.45593999997E+02  0.45594000000E+02  0.51100000000E-03 0. -1.
    9900012    2    1    2    0    0 -0.31455688526E+02  0.72307138098E+01 -0.24726969752E+02  0.50528848558E+02  0.29999965677E+02 0.  0.
         12    1    1    2    0    0  0.31455688526E+02 -0.72307138098E+01  0.24726969752E+02  0.40659151442E+02  0.00000000000E+00 0. -1.
         11    1    3    3    0    0 -0.14944591934E+02 -0.67259629714E+01 -0.75891744290E+01  0.18060314912E+02  0.51100000000E-03 0. -1.
        -11    1    3    3    0    0 -0.94117019297E+01  0.11177263131E+02 -0.10308867242E+01  0.14648347075E+02  0.51100000000E-03 0.  1.
        -12    1    3    3    0    0 -0.70993946629E+01  0.27794136500E+01 -0.16106908599E+02  0.17820186571E+02  0.00000000000E+00 0.  1.
</event>
<event>
 7    1  0.2991278E-011  0.5052887E+02  0.7816164E-02  0.1300439E+00
        -11   -1    0    0    0    0  0.00000000000E+00  0.00000000000E+00  0.45593999997E+02  0.45594000000E+02  0.51100000000E-03 0. -1.
         11   -1    0    0    0    0 -0.00000000000E+00 -0.00000000000E+00 -0.45593999997E+02  0.45594000000E+02  0.51100000000E-03 0.  1.
    9900012    2    1    2    0    0 -0.18616857089E+02  0.36146250114E+02 -0.16212292663E+00  0.50528867582E+02  0.30000023501E+02 0.  0.
         12    1    1    2    0    0  0.18616857089E+02 -0.36146250114E+02  0.16212292663E+00  0.40659132418E+02  0.00000000000E+00 0. -1.
         11    1    3    3    0    0 -0.11231140435E+02  0.30165093159E+02 -0.84253339589E+01  0.33272475311E+02  0.51100000000E-03 0.  1.
        -11    1    3    3    0    0  0.57602103007E+00 -0.34561791061E-01  0.71976865755E+01  0.72207816090E+01  0.51100000000E-03 0. -1.
         12    1    3    3    0    0 -0.79617376837E+01  0.60157187464E+01  0.10655244567E+01  0.10035610661E+02  0.00000000000E+00 0. -1.
</event>
<event>
 7    1  0.2991278E-011  0.5052899E+02  0.7816164E-02  0.1300438E+00
        -11   -1    0    0    0    0  0.00000000000E+00  0.00000000000E+00  0.45593999997E+02  0.45594000000E+02  0.51100000000E-03 0. -1.
         11   -1    0    0    0    0 -0.00000000000E+00 -0.00000000000E+00 -0.45593999997E+02  0.45594000000E+02  0.51100000000E-03 0.  1.
    9900012    2    1    2    0    0  0.18286334954E+01  0.24669391880E+02 -0.32268134313E+02  0.50528987614E+02  0.30000388350E+02 0.  0.
         12    1    1    2    0    0 -0.18286334954E+01 -0.24669391880E+02  0.32268134313E+02  0.40659012386E+02  0.00000000000E+00 0. -1.
         11    1    3    3    0    0 -0.75071058420E+01 -0.27193098449E+01 -0.14444677203E+02  0.16504544341E+02  0.51100000000E-03 0. -1.
        -11    1    3    3    0    0  0.54279090369E+01  0.18308365801E+02 -0.11875847979E+02  0.22487645948E+02  0.51100000000E-03 0.  1.
         12    1    3    3    0    0  0.39078303006E+01  0.90803359235E+01 -0.59476091307E+01  0.11536797325E+02  0.00000000000E+00 0. -1.
</event>
<event>
 7    1  0.2991278E-011  0.5052885E+02  0.7816164E-02  0.1300439E+00
        -11   -1    0    0    0    0  0.00000000000E+00  0.00000000000E+00  0.45593999997E+02  0.45594000000E+02  0.51100000000E-03 0.  1.
         11   -1    0    0    0    0 -0.00000000000E+00 -0.00000000000E+00 -0.45593999997E+02  0.45594000000E+02  0.51100000000E-03 0. -1.
    9900012    2    1    2    0    0 -0.12087014524E+02  0.34709453393E+02  0.17387486503E+02  0.50528846519E+02  0.29999959478E+02 0.  0.
         12    1    1    2    0    0  0.12087014524E+02 -0.34709453393E+02 -0.17387486503E+02  0.40659153481E+02  0.00000000000E+00 0. -1.
         11    1    3    3    0    0  0.12518769018E+01 -0.40839441757E+01 -0.15707220359E+01  0.45511497210E+01  0.51100000000E-03 0. -1.
        -11    1    3    3    0    0 -0.12128406995E+02  0.23530685663E+02  0.10437840193E+02  0.28455929649E+02  0.51100000000E-03 0.  1.
         12    1    3    3    0    0 -0.12104844304E+01  0.15262711905E+02  0.85203683456E+01  0.17521767149E+02  0.00000000000E+00 0. -1.
</event>
<event>
 7    1  0.2991278E-011  0.5052886E+02  0.7816164E-02  0.1300439E+00
        -11   -1    0    0    0    0  0.00000000000E+00  0.00000000000E+00  0.45593999997E+02  0.45594000000E+02  0.51100000000E-03 0. -1.
         11   -1    0    0    0    0 -0.00000000000E+00 -0.00000000000E+00 -0.45593999997E+02  0.45594000000E+02  0.51100000000E-03 0.  1.
    9900012    2    1    2    0    0 -0.39242732908E+02  0.85483096232E+01 -0.63324239109E+01  0.50528864789E+02  0.30000015013E+02 0.  0.
         12    1    1    2    0    0  0.39242732908E+02 -0.85483096232E+01  0.63324239109E+01  0.40659135211E+02  0.00000000000E+00 0. -1.
         11    1    3    3    0    0  0.77520773967E+00  0.60040823126E+01  0.33489964059E+01  0.69185062437E+01  0.51100000000E-03 0. -1.
        -11    1    3    3    0    0 -0.21826750315E+02  0.80283560599E+01 -0.77445055394E+01  0.24512015352E+02  0.51100000000E-03 0.  1.
         12    1    3    3    0    0 -0.18191190333E+02 -0.54841287494E+01 -0.19369147773E+01  0.19098343193E+02  0.00000000000E+00 0. -1.
</event>
<event>
 7    1  0.2991278E-011  0.5052886E+02  0.7816164E-02  0.1300439E+00
        -11   -1    0    0    0    0  0.00000000000E+00  0.00000000000E+00  0.45593999997E+02  0.45594000000E+02  0.51100000000E-03 0.  1.
         11   -1    0    0    0    0 -0.00000000000E+00 -0.00000000000E+00 -0.45593999997E+02  0.45594000000E+02  0.51100000000E-03 0. -1.
    9900012    2    1    2    0    0 -0.25616301013E+02  0.13018759937E+02  0.28765999844E+02  0.50528859147E+02  0.29999997864E+02 0.  0.
         12    1    1    2    0    0  0.25616301013E+02 -0.13018759937E+02 -0.28765999844E+02  0.40659140853E+02  0.00000000000E+00 0. -1.
         11    1    3    3    0    0  0.98091615818E+00 -0.25963684136E+01  0.82721376179E+01  0.87253416254E+01  0.51100000000E-03 0. -1.
        -11    1    3    3    0    0 -0.26165568822E+02  0.17646137313E+02  0.22622106025E+02  0.38830179437E+02  0.51100000000E-03 0.  1.
         12    1    3    3    0    0 -0.43164834871E+00 -0.20310089621E+01 -0.21282437985E+01  0.29733380849E+01  0.00000000000E+00 0. -1.
</event>
<event>
 7    1  0.2991278E-011  0.5052892E+02  0.7816164E-02  0.1300439E+00
        -11   -1    0    0    0    0  0.00000000000E+00  0.00000000000E+00  0.45593999997E+02  0.45594000000E+02  0.51100000000E-03 0. -1.
         11   -1    0    0    0    0 -0.00000000000E+00 -0.00000000000E+00 -0.45593999997E+02  0.45594000000E+02  0.51100000000E-03 0.  1.
    9900012    2    1    2    0    0  0.20513824357E+02 -0.16992614855E+02 -0.30717989284E+02  0.50528919648E+02  0.30000181763E+02 0.  0.
         12    1    1    2    0    0 -0.20513824357E+02  0.16992614855E+02  0.30717989284E+02  0.40659080352E+02  0.00000000000E+00 0. -1.
         11    1    3    3    0    0 -0.30017419530E+01  0.10634635373E+01  0.12586098504E+01  0.34242529790E+01  0.51100000000E-03 0. -1.
        -11    1    3    3    0    0  0.21338832128E+02 -0.19293997216E+02 -0.20416821046E+02  0.35276772345E+02  0.51100000000E-03 0.  1.
         12    1    3    3    0    0  0.21767341823E+01  0.12379188236E+01 -0.11559778088E+02  0.11827894325E+02  0.00000000000E+00 0. -1.
</event>
<event>
 7    1  0.2991278E-011  0.5052887E+02  0.7816164E-02  0.1300439E+00
        -11   -1    0    0    0    0  0.00000000000E+00  0.00000000000E+00  0.45593999997E+02  0.45594000000E+02  0.51100000000E-03 0.  1.
         11   -1    0    0    0    0 -0.00000000000E+00 -0.00000000000E+00 -0.45593999997E+02  0.45594000000E+02  0.51100000000E-03 0. -1.
    9900012    2    1    2    0    0 -0.24078343143E+02  0.23449029233E+02  0.22881029731E+02  0.50528866930E+02  0.30000021520E+02 0.  0.
         12    1    1    2    0    0  0.24078343143E+02 -0.23449029233E+02 -0.22881029731E+02  0.40659133070E+02  0.00000000000E+00 0. -1.
         11    1    3    3    0    0  0.18155824999E+01  0.48701552974E+00  0.32834748640E+01  0.37834813840E+01  0.51100000000E-03 0. -1.
        -11    1    3    3    0    0 -0.23684372401E+02  0.24610872020E+02  0.83461046062E+01  0.35161086160E+02  0.51100000000E-03 0.  1.
        -12    1    3    3    0    0 -0.22095532420E+01 -0.16488583171E+01  0.11251450261E+02  0.11584299386E+02  0.00000000000E+00 0.  1.
</event>
<event>
 7    1  0.2991278E-011  0.5052886E+02  0.7816164E-02  0.1300439E+00
        -11   -1    0    0    0    0  0.00000000000E+00  0.00000000000E+00  0.45593999997E+02  0.45594000000E+02  0.51100000000E-03 0.  1.
         11   -1    0    0    0    0 -0.00000000000E+00 -0.00000000000E+00 -0.45593999997E+02  0.45594000000E+02  0.51100000000E-03 0. -1.
    9900012    2    1    2    0    0  0.16618718990E+02 -0.16518205643E+02 -0.33228492643E+02  0.50528860045E+02  0.30000000594E+02 0.  0.
         12    1    1    2    0    0 -0.16618718990E+02  0.16518205643E+02  0.33228492643E+02  0.40659139955E+02  0.00000000000E+00 0. -1.
         11    1    3    3    0    0 -0.69764700501E+00  0.50572047114E+01 -0.15480282517E+01  0.53346436213E+01  0.51100000000E-03 0. -1.
        -11    1    3    3    0    0  0.17856069003E+02 -0.11777134588E+02 -0.26632341321E+02  0.34158771990E+02  0.51100000000E-03 0.  1.
         12    1    3    3    0    0 -0.53970300816E+00 -0.97982757663E+01 -0.50481230698E+01  0.11035444434E+02  0.00000000000E+00 0. -1.
</event>
<event>
 7    1  0.2991278E-011  0.5052886E+02  0.7816164E-02  0.1300439E+00
        -11   -1    0    0    0    0  0.00000000000E+00  0.00000000000E+00  0.45593999997E+02  0.45594000000E+02  0.51100000000E-03 0.  1.
         11   -1    0    0    0    0 -0.00000000000E+00 -0.00000000000E+00 -0.45593999997E+02  0.45594000000E+02  0.51100000000E-03 0. -1.
    9900012    2    1    2    0    0  0.91530542173E+01 -0.14221345264E+02  0.36974861150E+02  0.50528863023E+02  0.30000009645E+02 0.  0.
         12    1    1    2    0    0 -0.91530542173E+01  0.14221345264E+02 -0.36974861150E+02  0.40659136977E+02  0.00000000000E+00 0. -1.
         11    1    3    3    0    0  0.16000222382E+01  0.76279039247E+01  0.37696467059E+01  0.86576686235E+01  0.51100000000E-03 0. -1.
        -11    1    3    3    0    0  0.25236463512E+01 -0.24117142835E+01  0.12708720063E+02  0.13179405245E+02  0.51100000000E-03 0.  1.
         12    1    3    3    0    0  0.50293856278E+01 -0.19437534905E+02  0.20496494381E+02  0.28691789155E+02  0.00000000000E+00 0. -1.
</event>
<event>
 7    1  0.2991278E-011  0.5052885E+02  0.7816164E-02  0.1300439E+00
        -11   -1    0    0    0    0  0.00000000000E+00  0.00000000000E+00  0.45593999997E+02  0.45594000000E+02  0.51100000000E-03 0.  1.
         11   -1    0    0    0    0 -0.00000000000E+00 -0.00000000000E+00 -0.45593999997E+02  0.45594000000E+02  0.51100000000E-03 0. -1.
    9900012    2    1    2    0    0  0.31087638061E+02  0.12749947166E+02  0.22894632424E+02  0.50528848671E+02  0.29999966021E+02 0.  0.
         12    1    1    2    0    0 -0.31087638061E+02 -0.12749947166E+02 -0.22894632424E+02  0.40659151329E+02  0.00000000000E+00 0. -1.
         11    1    3    3    0    0 -0.49213849452E+00 -0.38146571176E+01  0.37910118763E+01  0.54005166910E+01  0.51100000000E-03 0. -1.
        -11    1    3    3    0    0  0.32175517699E+02  0.10805356651E+02  0.19803370836E+02  0.39296223333E+02  0.51100000000E-03 0.  1.
        -12    1    3    3    0    0 -0.59574114308E+00  0.57592476327E+01 -0.69975028849E+00  0.58321086470E+01  0.00000000000E+00 0.  1.
</event>
<event>
 7    1  0.2991278E-011  0.5052888E+02  0.7816164E-02  0.1300439E+00
        -11   -1    0    0    0    0  0.00000000000E+00  0.00000000000E+00  0.45593999997E+02  0.45594000000E+02  0.51100000000E-03 0.  1.
         11   -1    0    0    0    0 -0.00000000000E+00 -0.00000000000E+00 -0.45593999997E+02  0.45594000000E+02  0.51100000000E-03 0. -1.
    9900012    2    1    2    0    0 -0.25656935199E+02  0.10853924994E+02  0.29615509217E+02  0.50528875591E+02  0.30000047845E+02 0.  0.
         12    1    1    2    0    0  0.25656935199E+02 -0.10853924994E+02 -0.29615509217E+02  0.40659124409E+02  0.00000000000E+00 0. -1.
         11    1    3    3    0    0 -0.96602660632E+01 -0.65583742312E+01  0.21061200672E+02  0.24081262155E+02  0.51100000000E-03 0. -1.
        -11    1    3    3    0    0 -0.14532407195E+02  0.13095811572E+02  0.95697809824E+01  0.21777783357E+02  0.51100000000E-03 0.  1.
         12    1    3    3    0    0 -0.14642619406E+01  0.43164876532E+01 -0.10154724380E+01  0.46698300786E+01  0.00000000000E+00 0. -1.
</event>
<event>
 7    1  0.2991278E-011  0.5052886E+02  0.7816164E-02  0.1300439E+00
        -11   -1    0    0    0    0  0.00000000000E+00  0.00000000000E+00  0.45593999997E+02  0.45594000000E+02  0.51100000000E-03 0.  1.
         11   -1    0    0    0    0 -0.00000000000E+00 -0.00000000000E+00 -0.45593999997E+02  0.45594000000E+02  0.51100000000E-03 0. -1.
    9900012    2    1    2    0    0 -0.34575832873E+02 -0.16869446600E+02  0.13156726929E+02  0.50528856983E+02  0.29999991284E+02 0.  0.
         12    1    1    2    0    0  0.34575832873E+02  0.16869446600E+02 -0.13156726929E+02  0.40659143017E+02  0.00000000000E+00 0. -1.
         11    1    3    3    0    0 -0.14186543884E+02 -0.17537872537E+02  0.97893320179E+01  0.24589957749E+02  0.51100000000E-03 0. -1.
        -11    1    3    3    0    0 -0.22712697181E+02  0.11192253067E+01  0.12686043443E+01  0.22775614937E+02  0.51100000000E-03 0.  1.
         12    1    3    3    0    0  0.23234081918E+01 -0.45079936994E+00  0.20987905669E+01  0.31632842967E+01  0.00000000000E+00 0. -1.
</event>
<event>
 7    1  0.2991278E-011  0.5052893E+02  0.7816164E-02  0.1300439E+00
        -11   -1    0    0    0    0  0.00000000000E+00  0.00000000000E+00  0.45593999997E+02  0.45594000000E+02  0.51100000000E-03 0. -1.
         11   -1    0    0    0    0 -0.00000000000E+00 -0.00000000000E+00 -0.45593999997E+02  0.45594000000E+02  0.51100000000E-03 0.  1.
    9900012    2    1    2    0    0 -0.32300725801E+02  0.13704115076E+02  0.20543133909E+02  0.50528929572E+02  0.30000211925E+02 0.  0.
         12    1    1    2    0    0  0.32300725801E+02 -0.13704115076E+02 -0.20543133909E+02  0.40659070428E+02  0.00000000000E+00 0. -1.
         11    1    3    3    0    0 -0.25378138093E+02 -0.12916278833E+01  0.20451124044E+02  0.32618501967E+02  0.51100000000E-03 0. -1.
        -11    1    3    3    0    0 -0.51640167012E+01  0.35482576821E+01 -0.68344977618E+00  0.63027220252E+01  0.51100000000E-03 0.  1.
         12    1    3    3    0    0 -0.17585710071E+01  0.11447485277E+02  0.77545964139E+00  0.11607705579E+02  0.00000000000E+00 0. -1.
</event>
<event>
 7    1  0.2991278E-011  0.5052886E+02  0.7816164E-02  0.1300439E+00
        -11   -1    0    0    0    0  0.00000000000E+00  0.00000000000E+00  0.45593999997E+02  0.45594000000E+02  0.51100000000E-03 0.  1.
         11   -1    0    0    0    0 -0.00000000000E+00 -0.00000000000E+00 -0.45593999997E+02  0.45594000000E+02  0.51100000000E-03 0. -1.
    9900012    2    1    2    0    0  0.30556227611E+01 -0.28829708173E+01  0.40441525453E+02  0.50528864099E+02  0.30000012917E+02 0.  0.
         12    1    1    2    0    0 -0.30556227611E+01  0.28829708173E+01 -0.40441525453E+02  0.40659135901E+02  0.00000000000E+00 0. -1.
         11    1    3    3    0    0 -0.58405558095E+01  0.38052215298E+00  0.34346174402E-01  0.58530393125E+01  0.51100000000E-03 0. -1.
        -11    1    3    3    0    0  0.28681333043E+01 -0.68276144922E+01  0.35143552479E+02  0.35915341978E+02  0.51100000000E-03 0.  1.
         12    1    3    3    0    0  0.60280452663E+01  0.35641215219E+01  0.52636268001E+01  0.87604828090E+01  0.00000000000E+00 0. -1.
</event>
<event>
 7    1  0.2991278E-011  0.5052886E+02  0.7816164E-02  0.1300439E+00
        -11   -1    0    0    0    0  0.00000000000E+00  0.00000000000E+00  0.45593999997E+02  0.45594000000E+02  0.51100000000E-03 0.  1.
         11   -1    0    0    0    0 -0.00000000000E+00 -0.00000000000E+00 -0.45593999997E+02  0.45594000000E+02  0.51100000000E-03 0. -1.
    9900012    2    1    2    0    0  0.25220528526E+02  0.96312111769E+01  0.30402795509E+02  0.50528864955E+02  0.30000015516E+02 0.  0.
         12    1    1    2    0    0 -0.25220528526E+02 -0.96312111769E+01 -0.30402795509E+02  0.40659135045E+02  0.00000000000E+00 0. -1.
         11    1    3    3    0    0 -0.35154916586E+01 -0.57525527944E+01  0.50462158090E+01  0.84210949113E+01  0.51100000000E-03 0. -1.
        -11    1    3    3    0    0  0.13350443181E+02  0.32782326454E+01  0.77670409111E+01  0.15789492303E+02  0.51100000000E-03 0.  1.
         12    1    3    3    0    0  0.15385577004E+02  0.12105531326E+02  0.17589538789E+02  0.26318277741E+02  0.00000000000E+00 0. -1.
</event>
<event>
 7    1  0.2991278E-011  0.5052886E+02  0.7816164E-02  0.1300439E+00
        -11   -1    0    0    0    0  0.00000000000E+00  0.00000000000E+00  0.45593999997E+02  0.45594000000E+02  0.51100000000E-03 0.  1.
         11   -1    0    0    0    0 -0.00000000000E+00 -0.00000000000E+00 -0.45593999997E+02  0.45594000000E+02  0.51100000000E-03 0. -1.
    9900012    2    1    2    0    0  0.27091616644E+02 -0.23497237178E+02  0.19159581740E+02  0.50528863022E+02  0.30000009642E+02 0.  0.
         12    1    1    2    0    0 -0.27091616644E+02  0.23497237178E+02 -0.19159581740E+02  0.40659136978E+02  0.00000000000E+00 0. -1.
         11    1    3    3    0    0 -0.89418908505E+00 -0.15748135070E+02  0.59832022098E+01  0.16870152377E+02  0.51100000000E-03 0. -1.
        -11    1    3    3    0    0  0.11753202636E+02  0.72090291546E+00  0.13279984552E+01  0.11849938961E+02  0.51100000000E-03 0.  1.
         12    1    3    3    0    0  0.16232603093E+02 -0.84700050235E+01  0.11848381075E+02  0.21808771684E+02  0.00000000000E+00 0. -1.
</event>
<event>
 7    1  0.2991278E-011  0.5052886E+02  0.7816164E-02  0.1300439E+00
        -11   -1    0    0    0    0  0.00000000000E+00  0.00000000000E+00  0.45593999997E+02  0.45594000000E+02  0.51100000000E-03 0.  1.
         11   -1    0    0    0    0 -0.00000000000E+00 -0.00000000000E+00 -0.45593999997E+02  0.45594000000E+02  0.51100000000E-03 0. -1.
    9900012    2    1    2    0    0 -0.94872944221E+01 -0.41616509251E+01  0.39317144221E+02  0.50528856827E+02  0.29999990811E+02 0.  0.
         12    1    1    2    0    0  0.94872944221E+01  0.41616509251E+01 -0.39317144221E+02  0.40659143173E+02  0.00000000000E+00 0. -1.
         11    1    3    3    0    0  0.26035346714E+01 -0.54356198059E+01  0.10029449528E+01  0.61098489587E+01  0.51100000000E-03 0. -1.
        -11    1    3    3    0    0 -0.12506818060E+02  0.53336225511E+01  0.13113404985E+02  0.18889929012E+02  0.51100000000E-03 0.  1.
        -12    1    3    3    0    0  0.41598896670E+00 -0.40596536703E+01  0.25200794284E+02  0.25529078857E+02  0.00000000000E+00 0.  1.
</event>
<event>
 7    1  0.2991278E-011  0.5052885E+02  0.7816164E-02  0.1300439E+00
        -11   -1    0    0    0    0  0.00000000000E+00  0.00000000000E+00  0.45593999997E+02  0.45594000000E+02  0.51100000000E-03 0. -1.
         11   -1    0    0    0    0 -0.00000000000E+00 -0.00000000000E+00 -0.45593999997E+02  0.45594000000E+02  0.51100000000E-03 0.  1.
    9900012    2    1    2    0    0  0.23479535576E+02  0.25687793070E+02 -0.21024155176E+02  0.50528850912E+02  0.29999972833E+02 0.  0.
         12    1    1    2    0    0 -0.23479535576E+02 -0.25687793070E+02  0.21024155176E+02  0.40659149088E+02  0.00000000000E+00 0. -1.
         11    1    3    3    0    0  0.10906011202E+02  0.12811826472E+02  0.24377579573E+01  0.17000783570E+02  0.51100000000E-03 0. -1.
        -11    1    3    3    0    0  0.12123641072E+02  0.55640933807E+01 -0.22475865888E+02  0.26136303405E+02  0.51100000000E-03 0.  1.
        -12    1    3    3    0    0  0.44988330174E+00  0.73118732174E+01 -0.98604724590E+00  0.73917639372E+01  0.00000000000E+00 0.  1.
</event>
<event>
 7    1  0.2991278E-011  0.5052886E+02  0.7816164E-02  0.1300439E+00
        -11   -1    0    0    0    0  0.00000000000E+00  0.00000000000E+00  0.45593999997E+02  0.45594000000E+02  0.51100000000E-03 0. -1.
         11   -1    0    0    0    0 -0.00000000000E+00 -0.00000000000E+00 -0.45593999997E+02  0.45594000000E+02  0.51100000000E-03 0.  1.
    9900012    2    1    2    0    0  0.52984251249E+01 -0.20331186303E+02 -0.34809985610E+02  0.50528861502E+02  0.30000005020E+02 0.  0.
         12    1    1    2    0    0 -0.52984251249E+01  0.20331186303E+02  0.34809985610E+02  0.40659138498E+02  0.00000000000E+00 0. -1.
         11    1    3    3    0    0 -0.49814818483E+01 -0.12570594766E+02 -0.23423015034E+02  0.27045751011E+02  0.51100000000E-03 0. -1.
        -11    1    3    3    0    0  0.13505616262E+02 -0.19617655319E+01 -0.93456266544E+01  0.16540584405E+02  0.51100000000E-03 0.  1.
         12    1    3    3    0    0 -0.32257092892E+01 -0.57988260044E+01 -0.20413439208E+01  0.69425260857E+01  0.00000000000E+00 0. -1.
</event>
<event>
 7    1  0.2991278E-011  0.5052887E+02  0.7816164E-02  0.1300439E+00
        -11   -1    0    0    0    0  0.00000000000E+00  0.00000000000E+00  0.45593999997E+02  0.45594000000E+02  0.51100000000E-03 0.  1.
         11   -1    0    0    0    0 -0.00000000000E+00 -0.00000000000E+00 -0.45593999997E+02  0.45594000000E+02  0.51100000000E-03 0. -1.
    9900012    2    1    2    0    0  0.46012802902E+00 -0.39034346614E+02  0.11369841489E+02  0.50528865370E+02  0.30000016779E+02 0.  0.
         12    1    1    2    0    0 -0.46012802902E+00  0.39034346614E+02 -0.11369841489E+02  0.40659134630E+02  0.00000000000E+00 0. -1.
         11    1    3    3    0    0 -0.14065482254E+02 -0.21666637527E+02  0.17208019438E+01  0.25889034983E+02  0.51100000000E-03 0. -1.
        -11    1    3    3    0    0  0.38892656424E+01 -0.53768079105E+01  0.25394319020E+01  0.71052913515E+01  0.51100000000E-03 0.  1.
         12    1    3    3    0    0  0.10636344641E+02 -0.11990901176E+02  0.71096076428E+01  0.17534539035E+02  0.00000000000E+00 0. -1.
</event>
<event>
 7    1  0.2991278E-011  0.5052885E+02  0.7816164E-02  0.1300439E+00
        -11   -1    0    0    0    0  0.00000000000E+00  0.00000000000E+00  0.45593999997E+02  0.45594000000E+02  0.51100000000E-03 0.  1.
         11   -1    0    0    0    0 -0.00000000000E+00 -0.00000000000E+00 -0.45593999997E+02  0.45594000000E+02  0.51100000000E-03 0. -1.
    9900012    2    1    2    0    0 -0.39722536753E+02 -0.56800747978E+01 -0.65591994495E+01  0.50528852527E+02  0.29999977740E+02 0.  0.
         12    1    1    2    0    0  0.39722536753E+02  0.56800747978E+01  0.65591994495E+01  0.40659147473E+02  0.00000000000E+00 0. -1.
         11    1    3    3    0    0 -0.11463329868E+02  0.30708638922E+01 -0.63490540217E+01  0.13459146479E+02  0.51100000000E-03 0. -1.
        -11    1    3    3    0    0 -0.18019271104E+02 -0.14981147317E+02  0.50638768470E+01  0.23974397908E+02  0.51100000000E-03 0.  1.
        -12    1    3    3    0    0 -0.10239935782E+02  0.62302086265E+01 -0.52740222748E+01  0.13095308141E+02  0.00000000000E+00 0.  1.
</event>
<event>
 7    1  0.2991278E-011  0.5052890E+02  0.7816164E-02  0.1300439E+00
        -11   -1    0    0    0    0  0.00000000000E+00  0.00000000000E+00  0.45593999997E+02  0.45594000000E+02  0.51100000000E-03 0. -1.
         11   -1    0    0    0    0 -0.00000000000E+00 -0.00000000000E+00 -0.45593999997E+02  0.45594000000E+02  0.51100000000E-03 0.  1.
    9900012    2    1    2    0    0 -0.20218003828E+02 -0.27504196273E+02  0.22088775747E+02  0.50528898861E+02  0.30000118579E+02 0.  0.
         12    1    1    2    0    0  0.20218003828E+02  0.27504196273E+02 -0.22088775747E+02  0.40659101139E+02  0.00000000000E+00 0. -1.
         11    1    3    3    0    0 -0.72317289911E+00 -0.69099902548E+01 -0.36677740886E+01  0.78564312121E+01  0.51100000000E-03 0. -1.
        -11    1    3    3    0    0 -0.20643616209E+02 -0.23208551392E+02  0.24461946101E+02  0.39537103526E+02  0.51100000000E-03 0.  1.
        -12    1    3    3    0    0  0.11487852800E+01  0.26143453744E+01  0.12946037344E+01  0.31353641232E+01  0.00000000000E+00 0.  1.
</event>
<event>
 7    1  0.2991278E-011  0.5052886E+02  0.7816164E-02  0.1300439E+00
        -11   -1    0    0    0    0  0.00000000000E+00  0.00000000000E+00  0.45593999997E+02  0.45594000000E+02  0.51100000000E-03 0.  1.
         11   -1    0    0    0    0 -0.00000000000E+00 -0.00000000000E+00 -0.45593999997E+02  0.45594000000E+02  0.51100000000E-03 0. -1.
    9900012    2    1    2    0    0  0.11360378220E+02 -0.14272761202E+02  0.36337250267E+02  0.50528860036E+02  0.30000000565E+02 0.  0.
         12    1    1    2    0    0 -0.11360378220E+02  0.14272761202E+02 -0.36337250267E+02  0.40659139964E+02  0.00000000000E+00 0. -1.
         11    1    3    3    0    0  0.18612048353E+02 -0.51151769472E+01  0.10504007765E+02  0.21975157758E+02  0.51100000000E-03 0. -1.
        -11    1    3    3    0    0 -0.66730813243E+00 -0.15014846118E+01  0.69326319419E+01  0.71246854026E+01  0.51100000000E-03 0.  1.
         12    1    3    3    0    0 -0.65843620006E+01 -0.76560996426E+01  0.18900610561E+02  0.21429016876E+02  0.00000000000E+00 0. -1.
</event>
<event>
 7    1  0.2991278E-011  0.5052886E+02  0.7816164E-02  0.1300439E+00
        -11   -1    0    0    0    0  0.00000000000E+00  0.00000000000E+00  0.45593999997E+02  0.45594000000E+02  0.51100000000E-03 0.  1.
         11   -1    0    0    0    0 -0.00000000000E+00 -0.00000000000E+00 -0.45593999997E+02  0.45594000000E+02  0.51100000000E-03 0. -1.
    9900012    2    1    2    0    0 -0.20101210426E+02 -0.43066714889E+01  0.35079335370E+02  0.50528857733E+02  0.29999993565E+02 0.  0.
         12    1    1    2    0    0  0.20101210426E+02  0.43066714889E+01 -0.35079335370E+02  0.40659142267E+02  0.00000000000E+00 0. -1.
         11    1    3    3    0    0  0.57299954498E+01 -0.38326630711E+01  0.18060664592E+01  0.71262914891E+01  0.51100000000E-03 0. -1.
        -11    1    3    3    0    0 -0.15092946427E+02 -0.73788089968E+00  0.27060557330E+02  0.30993793949E+02  0.51100000000E-03 0.  1.
        -12    1    3    3    0    0 -0.10738259449E+02  0.26387248189E+00  0.62127115803E+01  0.12408772295E+02  0.00000000000E+00 0.  1.
</event>
<event>
 7    1  0.2991278E-011  0.5052884E+02  0.7816164E-02  0.1300439E+00
        -11   -1    0    0    0    0  0.00000000000E+00  0.00000000000E+00  0.45593999997E+02  0.45594000000E+02  0.51100000000E-03 0. -1.
         11   -1    0    0    0    0 -0.00000000000E+00 -0.00000000000E+00 -0.45593999997E+02  0.45594000000E+02  0.51100000000E-03 0.  1.
    9900012    2    1    2    0    0 -0.38566837358E+02  0.12010442744E+02  0.46384850607E+01  0.50528840855E+02  0.29999942262E+02 0.  0.
         12    1    1    2    0    0  0.38566837358E+02 -0.12010442744E+02 -0.46384850607E+01  0.40659159145E+02  0.00000000000E+00 0. -1.
         11    1    3    3    0    0 -0.14850796427E+01  0.71798494992E+01 -0.14056597863E+01  0.74653586700E+01  0.51100000000E-03 0. -1.
        -11    1    3    3    0    0 -0.18647890455E+02 -0.12434278937E+01  0.12642489028E+02  0.22563742164E+02  0.51100000000E-03 0.  1.
        -12    1    3    3    0    0 -0.18433867261E+02  0.60740211388E+01 -0.65983441815E+01  0.20499740021E+02  0.00000000000E+00 0.  1.
</event>
<event>
 7    1  0.2991278E-011  0.5052886E+02  0.7816164E-02  0.1300439E+00
        -11   -1    0    0    0    0  0.00000000000E+00  0.00000000000E+00  0.45593999997E+02  0.45594000000E+02  0.51100000000E-03 0.  1.
         11   -1    0    0    0    0 -0.00000000000E+00 -0.00000000000E+00 -0.45593999997E+02  0.45594000000E+02  0.51100000000E-03 0. -1.
    9900012    2    1    2    0    0  0.28347719556E+02  0.36652840613E+01  0.28916047728E+02  0.50528864157E+02  0.30000013092E+02 0.  0.
         12    1    1    2    0    0 -0.28347719556E+02 -0.36652840613E+01 -0.28916047728E+02  0.40659135843E+02  0.00000000000E+00 0. -1.
         11    1    3    3    0    0  0.64494137112E+01 -0.84802491808E+01  0.67644800518E+01  0.12620132884E+02  0.51100000000E-03 0. -1.
        -11    1    3    3    0    0  0.24922021906E+02  0.11849223115E+02  0.20926756445E+02  0.34632938077E+02  0.51100000000E-03 0.  1.
        -12    1    3    3    0    0 -0.30237160609E+01  0.29631012736E+00  0.12248112308E+01  0.32757931955E+01  0.00000000000E+00 0.  1.
</event>
<event>
 7    1  0.2991278E-011  0.5052886E+02  0.7816164E-02  0.1300439E+00
        -11   -1    0    0    0    0  0.00000000000E+00  0.00000000000E+00  0.45593999997E+02  0.45594000000E+02  0.51100000000E-03 0. -1.
         11   -1    0    0    0    0 -0.00000000000E+00 -0.00000000000E+00 -0.45593999997E+02  0.45594000000E+02  0.51100000000E-03 0.  1.
    9900012    2    1    2    0    0  0.25474041928E+02 -0.29539571096E+02 -0.11473994575E+02  0.50528860508E+02  0.30000002000E+02 0.  0.
         12    1    1    2    0    0 -0.25474041928E+02  0.29539571096E+02  0.11473994575E+02  0.40659139492E+02  0.00000000000E+00 0. -1.
         11    1    3    3    0    0  0.50785249259E+01 -0.10551312571E+02  0.59110309013E+01  0.13117236712E+02  0.51100000000E-03 0. -1.
        -11    1    3    3    0    0  0.19261006544E+02 -0.67299397783E+01 -0.79331332845E+01  0.21890935715E+02  0.51100000000E-03 0.  1.
        -12    1    3    3    0    0  0.11345104581E+01 -0.12258318748E+02 -0.94518921916E+01  0.15520688081E+02  0.00000000000E+00 0.  1.
</event>
<event>
 7    1  0.2991278E-011  0.5052886E+02  0.7816164E-02  0.1300439E+00
        -11   -1    0    0    0    0  0.00000000000E+00  0.00000000000E+00  0.45593999997E+02  0.45594000000E+02  0.51100000000E-03 0.  1.
         11   -1    0    0    0    0 -0.00000000000E+00 -0.00000000000E+00 -0.45593999997E+02  0.45594000000E+02  0.51100000000E-03 0. -1.
    9900012    2    1    2    0    0  0.80144540434E+01  0.39652611198E+02  0.40748585172E+01  0.50528861785E+02  0.30000005882E+02 0.  0.
         12    1    1    2    0    0 -0.80144540434E+01 -0.39652611198E+02 -0.40748585172E+01  0.40659138215E+02  0.00000000000E+00 0. -1.
         11    1    3    3    0    0 -0.45893049786E+01  0.29948938204E+01 -0.36629855289E+01  0.65915531119E+01  0.51100000000E-03 0. -1.
        -11    1    3    3    0    0  0.94047090384E+01  0.38449634305E+02  0.70100738919E+01  0.40199055543E+02  0.51100000000E-03 0.  1.
        -12    1    3    3    0    0  0.31990499836E+01 -0.17919169273E+01  0.72777015421E+00  0.37382531307E+01  0.00000000000E+00 0.  1.
</event>
<event>
 7    1  0.2991278E-011  0.5052888E+02  0.7816164E-02  0.1300439E+00
        -11   -1    0    0    0    0  0.00000000000E+00  0.00000000000E+00  0.45593999997E+02  0.45594000000E+02  0.51100000000E-03 0.  1.
         11   -1    0    0    0    0 -0.00000000000E+00 -0.00000000000E+00 -0.45593999997E+02  0.45594000000E+02  0.51100000000E-03 0. -1.
    9900012    2    1    2    0    0  0.27784983344E+02  0.24815172201E+02  0.16290067542E+02  0.50528875916E+02  0.30000048833E+02 0.  0.
         12    1    1    2    0    0 -0.27784983344E+02 -0.24815172201E+02 -0.16290067542E+02  0.40659124084E+02  0.00000000000E+00 0. -1.
         11    1    3    3    0    0  0.18265738997E+02  0.21238512602E+02  0.16674061340E+02  0.32599631293E+02  0.51100000000E-03 0.  1.
        -11    1    3    3    0    0 -0.38613701663E+01  0.15958968277E+01 -0.12892596683E+01  0.43725572609E+01  0.51100000000E-03 0. -1.
        -12    1    3    3    0    0  0.13380614514E+02  0.19807627709E+01  0.90526587080E+00  0.13556687361E+02  0.00000000000E+00 0.  1.
</event>
<event>
 7    1  0.2991278E-011  0.5052891E+02  0.7816164E-02  0.1300439E+00
        -11   -1    0    0    0    0  0.00000000000E+00  0.00000000000E+00  0.45593999997E+02  0.45594000000E+02  0.51100000000E-03 0. -1.
         11   -1    0    0    0    0 -0.00000000000E+00 -0.00000000000E+00 -0.45593999997E+02  0.45594000000E+02  0.51100000000E-03 0.  1.
    9900012    2    1    2    0    0  0.29877965065E+01 -0.40052671990E+02  0.63260172619E+01  0.50528905618E+02  0.30000139118E+02 0.  0.
         12    1    1    2    0    0 -0.29877965065E+01  0.40052671990E+02 -0.63260172619E+01  0.40659094382E+02  0.00000000000E+00 0. -1.
         11    1    3    3    0    0  0.46830736815E+01 -0.12768035240E+02  0.76447538993E+01  0.15601159106E+02  0.51100000000E-03 0. -1.
        -11    1    3    3    0    0  0.32498124295E+01  0.75165164908E+00 -0.52178494417E+01  0.61929164443E+01  0.51100000000E-03 0.  1.
        -12    1    3    3    0    0 -0.49450896045E+01 -0.28036288399E+02  0.38991128043E+01  0.28734830069E+02  0.00000000000E+00 0.  1.
</event>
<event>
 7    1  0.2991278E-011  0.5052886E+02  0.7816164E-02  0.1300439E+00
        -11   -1    0    0    0    0  0.00000000000E+00  0.00000000000E+00  0.45593999997E+02  0.45594000000E+02  0.51100000000E-03 0. -1.
         11   -1    0    0    0    0 -0.00000000000E+00 -0.00000000000E+00 -0.45593999997E+02  0.45594000000E+02  0.51100000000E-03 0.  1.
    9900012    2    1    2    0    0 -0.26240291834E+02  0.25108335585E+02 -0.18280710761E+02  0.50528858134E+02  0.29999994783E+02 0.  0.
         12    1    1    2    0    0  0.26240291834E+02 -0.25108335585E+02  0.18280710761E+02  0.40659141866E+02  0.00000000000E+00 0. -1.
         11    1    3    3    0    0 -0.11126251558E+02  0.61142576512E+01 -0.18135204046E+02  0.22137372166E+02  0.51100000000E-03 0. -1.
        -11    1    3    3    0    0 -0.17125740437E+02  0.17715276053E+02  0.25754119218E+01  0.24774073907E+02  0.51100000000E-03 0.  1.
        -12    1    3    3    0    0  0.20117001611E+01  0.12788018808E+01 -0.27209186363E+01  0.36174120603E+01  0.00000000000E+00 0.  1.
</event>
<event>
 7    1  0.2991278E-011  0.5052885E+02  0.7816164E-02  0.1300439E+00
        -11   -1    0    0    0    0  0.00000000000E+00  0.00000000000E+00  0.45593999997E+02  0.45594000000E+02  0.51100000000E-03 0. -1.
         11   -1    0    0    0    0 -0.00000000000E+00 -0.00000000000E+00 -0.45593999997E+02  0.45594000000E+02  0.51100000000E-03 0.  1.
    9900012    2    1    2    0    0  0.18277969940E+02  0.30717711149E+02 -0.19377935745E+02  0.50528851496E+02  0.29999974606E+02 0.  0.
         12    1    1    2    0    0 -0.18277969940E+02 -0.30717711149E+02  0.19377935745E+02  0.40659148504E+02  0.00000000000E+00 0. -1.
         11    1    3    3    0    0  0.20260926332E+02  0.12829776441E+02 -0.18486519953E+01  0.24052563560E+02  0.51100000000E-03 0. -1.
        -11    1    3    3    0    0  0.20713243355E+01  0.70778792691E+00 -0.20323471812E+01  0.29869354828E+01  0.51100000000E-03 0.  1.
         12    1    3    3    0    0 -0.40542807277E+01  0.17180146781E+02 -0.15496936569E+02  0.23489352453E+02  0.00000000000E+00 0. -1.
</event>
<event>
 7    1  0.2991278E-011  0.5052886E+02  0.7816164E-02  0.1300439E+00
        -11   -1    0    0    0    0  0.00000000000E+00  0.00000000000E+00  0.45593999997E+02  0.45594000000E+02  0.51100000000E-03 0. -1.
         11   -1    0    0    0    0 -0.00000000000E+00 -0.00000000000E+00 -0.45593999997E+02  0.45594000000E+02  0.51100000000E-03 0.  1.
    9900012    2    1    2    0    0  0.20511541252E+02 -0.29044845616E+02 -0.19719006389E+02  0.50528860875E+02  0.30000003116E+02 0.  0.
         12    1    1    2    0    0 -0.20511541252E+02  0.29044845616E+02  0.19719006389E+02  0.40659139125E+02  0.00000000000E+00 0. -1.
         11    1    3    3    0    0  0.62891867932E+01 -0.27463291936E+02 -0.11588501272E+02  0.30464399493E+02  0.51100000000E-03 0. -1.
        -11    1    3    3    0    0  0.14303921220E+02 -0.47727953148E+01 -0.73649586730E+01  0.16781667197E+02  0.51100000000E-03 0.  1.
        -12    1    3    3    0    0 -0.81566761458E-01  0.31912416346E+01 -0.76554644449E+00  0.32827941856E+01  0.00000000000E+00 0.  1.
</event>
<event>
 7    1  0.2991278E-011  0.5052886E+02  0.7816164E-02  0.1300439E+00
        -11   -1    0    0    0    0  0.00000000000E+00  0.00000000000E+00  0.45593999997E+02  0.45594000000E+02  0.51100000000E-03 0. -1.
         11   -1    0    0    0    0 -0.00000000000E+00 -0.00000000000E+00 -0.45593999997E+02  0.45594000000E+02  0.51100000000E-03 0.  1.
    9900012    2    1    2    0    0  0.34187448791E+02  0.97272676106E+01 -0.19742450457E+02  0.50528859084E+02  0.29999997672E+02 0.  0.
         12    1    1    2    0    0 -0.34187448791E+02 -0.97272676106E+01  0.19742450457E+02  0.40659140916E+02  0.00000000000E+00 0. -1.
         11    1    3    3    0    0 -0.38314253056E+01 -0.32990536606E+01 -0.18890807704E+01  0.53974254368E+01  0.51100000000E-03 0. -1.
        -11    1    3    3    0    0  0.17002183137E+01  0.14910859109E+01 -0.39808442076E+01  0.45783403515E+01  0.51100000000E-03 0.  1.
         12    1    3    3    0    0  0.36318655783E+02  0.11535235360E+02 -0.13872525479E+02  0.40553093296E+02  0.00000000000E+00 0. -1.
</event>
<event>
 7    1  0.2991278E-011  0.5052886E+02  0.7816164E-02  0.1300439E+00
        -11   -1    0    0    0    0  0.00000000000E+00  0.00000000000E+00  0.45593999997E+02  0.45594000000E+02  0.51100000000E-03 0.  1.
         11   -1    0    0    0    0 -0.00000000000E+00 -0.00000000000E+00 -0.45593999997E+02  0.45594000000E+02  0.51100000000E-03 0. -1.
    9900012    2    1    2    0    0  0.23119198256E+02 -0.28167724965E+01  0.33327682084E+02  0.50528856768E+02  0.29999990632E+02 0.  0.
         12    1    1    2    0    0 -0.23119198256E+02  0.28167724965E+01 -0.33327682084E+02  0.40659143232E+02  0.00000000000E+00 0. -1.
         11    1    3    3    0    0  0.14470354186E+02  0.81277319527E+01  0.21130451741E+02  0.26869074565E+02  0.51100000000E-03 0. -1.
        -11    1    3    3    0    0 -0.28448660171E+00 -0.10824360697E+02  0.92822866421E+01  0.14262137382E+02  0.51100000000E-03 0.  1.
         12    1    3    3    0    0  0.89333306714E+01 -0.12014375211E+00  0.29149437006E+01  0.93976448211E+01  0.00000000000E+00 0. -1.
</event>
<event>
 7    1  0.2991278E-011  0.5052886E+02  0.7816164E-02  0.1300439E+00
        -11   -1    0    0    0    0  0.00000000000E+00  0.00000000000E+00  0.45593999997E+02  0.45594000000E+02  0.51100000000E-03 0.  1.
         11   -1    0    0    0    0 -0.00000000000E+00 -0.00000000000E+00 -0.45593999997E+02  0.45594000000E+02  0.51100000000E-03 0. -1.
    9900012    2    1    2    0    0 -0.28663112060E+02 -0.25729445662E+02  0.13022564910E+02  0.50528861250E+02  0.30000004256E+02 0.  0.
         12    1    1    2    0    0  0.28663112060E+02  0.25729445662E+02 -0.13022564910E+02  0.40659138750E+02  0.00000000000E+00 0. -1.
         11    1    3    3    0    0 -0.13662026276E+02 -0.14461659207E+02  0.10670730163E+01  0.19923081942E+02  0.51100000000E-03 0. -1.
        -11    1    3    3    0    0 -0.73393466449E+00 -0.11628343643E+02  0.11433884115E+02  0.16324544165E+02  0.51100000000E-03 0.  1.
        -12    1    3    3    0    0 -0.14267151120E+02  0.36055718790E+00  0.52160777901E+00  0.14281235144E+02  0.00000000000E+00 0.  1.
</event>
<event>
 7    1  0.2991278E-011  0.5052885E+02  0.7816164E-02  0.1300439E+00
        -11   -1    0    0    0    0  0.00000000000E+00  0.00000000000E+00  0.45593999997E+02  0.45594000000E+02  0.51100000000E-03 0. -1.
         11   -1    0    0    0    0 -0.00000000000E+00 -0.00000000000E+00 -0.45593999997E+02  0.45594000000E+02  0.51100000000E-03 0.  1.
    9900012    2    1    2    0    0  0.95663655411E+01  0.39202110989E+02 -0.49845506912E+01  0.50528848493E+02  0.29999965479E+02 0.  0.
         12    1    1    2    0    0 -0.95663655411E+01 -0.39202110989E+02  0.49845506912E+01  0.40659151507E+02  0.00000000000E+00 0. -1.
         11    1    3    3    0    0  0.82526995525E-01  0.34738235460E+01  0.31938409806E+01  0.47196272315E+01  0.51100000000E-03 0. -1.
        -11    1    3    3    0    0  0.13871848590E+02  0.37767053600E+02 -0.73793748256E+01  0.40905179305E+02  0.51100000000E-03 0.  1.
        -12    1    3    3    0    0 -0.43880100442E+01 -0.20387661564E+01 -0.79901684624E+00  0.49040419563E+01  0.00000000000E+00 0.  1.
</event>
<event>
 7    1  0.2991278E-011  0.5052885E+02  0.7816164E-02  0.1300439E+00
        -11   -1    0    0    0    0  0.00000000000E+00  0.00000000000E+00  0.45593999997E+02  0.45594000000E+02  0.51100000000E-03 0.  1.
         11   -1    0    0    0    0 -0.00000000000E+00 -0.00000000000E+00 -0.45593999997E+02  0.45594000000E+02  0.51100000000E-03 0. -1.
    9900012    2    1    2    0    0 -0.14661831882E+02 -0.15388344619E+02  0.34661154176E+02  0.50528854989E+02  0.29999985224E+02 0.  0.
         12    1    1    2    0    0  0.14661831882E+02  0.15388344619E+02 -0.34661154176E+02  0.40659145011E+02  0.00000000000E+00 0. -1.
         11    1    3    3    0    0 -0.16321635892E+02 -0.75107258250E+01  0.22983425978E+02  0.29172669925E+02  0.51100000000E-03 0.  1.
        -11    1    3    3    0    0  0.37112189546E+01  0.41144023408E+01  0.50748065910E+01  0.75136618867E+01  0.51100000000E-03 0. -1.
        -12    1    3    3    0    0 -0.20514149446E+01 -0.11992021135E+02  0.66029216068E+01  0.13842523177E+02  0.00000000000E+00 0.  1.
</event>
<event>
 7    1  0.2991278E-011  0.5052882E+02  0.7816164E-02  0.1300439E+00
        -11   -1    0    0    0    0  0.00000000000E+00  0.00000000000E+00  0.45593999997E+02  0.45594000000E+02  0.51100000000E-03 0. -1.
         11   -1    0    0    0    0 -0.00000000000E+00 -0.00000000000E+00 -0.45593999997E+02  0.45594000000E+02  0.51100000000E-03 0.  1.
    9900012    2    1    2    0    0 -0.76675384916E+01  0.37063514686E+02 -0.14855091149E+02  0.50528818990E+02  0.29999875801E+02 0.  0.
         12    1    1    2    0    0  0.76675384916E+01 -0.37063514686E+02  0.14855091149E+02  0.40659181010E+02  0.00000000000E+00 0. -1.
         11    1    3    3    0    0 -0.11408882422E+02  0.33353227950E+01 -0.24870017464E+01  0.12143811355E+02  0.51100000000E-03 0. -1.
        -11    1    3    3    0    0  0.69796252864E+01  0.15113829037E+02 -0.18219064254E+01  0.16747009900E+02  0.51100000000E-03 0.  1.
         12    1    3    3    0    0 -0.32382813557E+01  0.18614362853E+02 -0.10546182978E+02  0.21637997735E+02  0.00000000000E+00 0. -1.
</event>
<event>
 7    1  0.2991278E-011  0.5052885E+02  0.7816164E-02  0.1300439E+00
        -11   -1    0    0    0    0  0.00000000000E+00  0.00000000000E+00  0.45593999997E+02  0.45594000000E+02  0.51100000000E-03 0. -1.
         11   -1    0    0    0    0 -0.00000000000E+00 -0.00000000000E+00 -0.45593999997E+02  0.45594000000E+02  0.51100000000E-03 0.  1.
    9900012    2    1    2    0    0  0.12946892432E+02  0.19444108379E+02 -0.33278693825E+02  0.50528845594E+02  0.29999956668E+02 0.  0.
         12    1    1    2    0    0 -0.12946892432E+02 -0.19444108379E+02  0.33278693825E+02  0.40659154406E+02  0.00000000000E+00 0. -1.
         11    1    3    3    0    0 -0.14773065543E+01 -0.63680392292E+01 -0.79324458299E+01  0.10279010428E+02  0.51100000000E-03 0. -1.
        -11    1    3    3    0    0  0.15944582892E+02  0.22217865690E+02 -0.22611532516E+02  0.35484428732E+02  0.51100000000E-03 0.  1.
        -12    1    3    3    0    0 -0.15203839057E+01  0.35942819188E+01 -0.27347154785E+01  0.47654064340E+01  0.00000000000E+00 0.  1.
</event>
<event>
 7    1  0.2991278E-011  0.5052887E+02  0.7816164E-02  0.1300439E+00
        -11   -1    0    0    0    0  0.00000000000E+00  0.00000000000E+00  0.45593999997E+02  0.45594000000E+02  0.51100000000E-03 0.  1.
         11   -1    0    0    0    0 -0.00000000000E+00 -0.00000000000E+00 -0.45593999997E+02  0.45594000000E+02  0.51100000000E-03 0. -1.
    9900012    2    1    2    0    0 -0.27091875534E+02  0.68084461506E+00  0.30310589963E+02  0.50528866546E+02  0.30000020353E+02 0.  0.
         12    1    1    2    0    0  0.27091875534E+02 -0.68084461506E+00 -0.30310589963E+02  0.40659133454E+02  0.00000000000E+00 0. -1.
         11    1    3    3    0    0 -0.47829229222E+01 -0.25177738465E+01 -0.53820927449E+01  0.76277427460E+01  0.51100000000E-03 0. -1.
        -11    1    3    3    0    0 -0.21056712298E+02  0.27206199936E+01  0.35727739305E+02  0.41560296704E+02  0.51100000000E-03 0.  1.
        -12    1    3    3    0    0 -0.12522403133E+01  0.47799846799E+00 -0.35056597387E-01  0.13408270965E+01  0.00000000000E+00 0.  1.
</event>
<event>
 7    1  0.2991278E-011  0.5052887E+02  0.7816164E-02  0.1300439E+00
        -11   -1    0    0    0    0  0.00000000000E+00  0.00000000000E+00  0.45593999997E+02  0.45594000000E+02  0.51100000000E-03 0.  1.
         11   -1    0    0    0    0 -0.00000000000E+00 -0.00000000000E+00 -0.45593999997E+02  0.45594000000E+02  0.51100000000E-03 0. -1.
    9900012    2    1    2    0    0  0.91177894552E+01  0.10069761930E+02  0.38322717885E+02  0.50528869464E+02  0.30000029222E+02 0.  0.
         12    1    1    2    0    0 -0.91177894552E+01 -0.10069761930E+02 -0.38322717885E+02  0.40659130536E+02  0.00000000000E+00 0. -1.
         11    1    3    3    0    0 -0.92451798746E+01  0.48009743912E+01  0.14557112886E+02  0.17900621270E+02  0.51100000000E-03 0. -1.
        -11    1    3    3    0    0  0.11437708364E+02 -0.27062225664E+01  0.13494718802E+02  0.17895593005E+02  0.51100000000E-03 0.  1.
         12    1    3    3    0    0  0.69252609661E+01  0.79750101054E+01  0.10270886196E+02  0.14732655188E+02  0.00000000000E+00 0. -1.
</event>
<event>
 7    1  0.2991278E-011  0.5052887E+02  0.7816164E-02  0.1300439E+00
        -11   -1    0    0    0    0  0.00000000000E+00  0.00000000000E+00  0.45593999997E+02  0.45594000000E+02  0.51100000000E-03 0.  1.
         11   -1    0    0    0    0 -0.00000000000E+00 -0.00000000000E+00 -0.45593999997E+02  0.45594000000E+02  0.51100000000E-03 0. -1.
    9900012    2    1    2    0    0 -0.23842246538E+02  0.78805326987E+01  0.31978265412E+02  0.50528868499E+02  0.30000026291E+02 0.  0.
         12    1    1    2    0    0  0.23842246538E+02 -0.78805326987E+01 -0.31978265412E+02  0.40659131501E+02  0.00000000000E+00 0. -1.
         11    1    3    3    0    0  0.22347842662E+01  0.70203587178E+01  0.13996262727E+02  0.15816923463E+02  0.51100000000E-03 0. -1.
        -11    1    3    3    0    0 -0.21589144904E+02 -0.30748690327E+01  0.18665156165E+02  0.28704251465E+02  0.51100000000E-03 0.  1.
        -12    1    3    3    0    0 -0.44878859003E+01  0.39350430136E+01 -0.68315347920E+00  0.60076935715E+01  0.00000000000E+00 0.  1.
</event>
<event>
 7    1  0.2991278E-011  0.5052886E+02  0.7816164E-02  0.1300439E+00
        -11   -1    0    0    0    0  0.00000000000E+00  0.00000000000E+00  0.45593999997E+02  0.45594000000E+02  0.51100000000E-03 0.  1.
         11   -1    0    0    0    0 -0.00000000000E+00 -0.00000000000E+00 -0.45593999997E+02  0.45594000000E+02  0.51100000000E-03 0. -1.
    9900012    2    1    2    0    0  0.30735931139E+01 -0.29283943439E+02  0.28038711992E+02  0.50528859722E+02  0.29999999611E+02 0.  0.
         12    1    1    2    0    0 -0.30735931139E+01  0.29283943439E+02 -0.28038711992E+02  0.40659140278E+02  0.00000000000E+00 0. -1.
         11    1    3    3    0    0  0.11536112061E+02 -0.15457461350E+02  0.40608381617E+01  0.19710540320E+02  0.51100000000E-03 0. -1.
        -11    1    3    3    0    0 -0.44024381297E+01  0.16667618655E+00  0.84208611229E+01  0.95036911118E+01  0.51100000000E-03 0.  1.
         12    1    3    3    0    0 -0.40600808176E+01 -0.13993158276E+02  0.15557012707E+02  0.21314628290E+02  0.00000000000E+00 0. -1.
</event>
<event>
 7    1  0.2991278E-011  0.5052886E+02  0.7816164E-02  0.1300439E+00
        -11   -1    0    0    0    0  0.00000000000E+00  0.00000000000E+00  0.45593999997E+02  0.45594000000E+02  0.51100000000E-03 0. -1.
         11   -1    0    0    0    0 -0.00000000000E+00 -0.00000000000E+00 -0.45593999997E+02  0.45594000000E+02  0.51100000000E-03 0.  1.
    9900012    2    1    2    0    0 -0.94250818299E+00 -0.40534545287E+02  0.30377430387E+01  0.50528861223E+02  0.30000004174E+02 0.  0.
         12    1    1    2    0    0  0.94250818299E+00  0.40534545287E+02 -0.30377430387E+01  0.40659138777E+02  0.00000000000E+00 0. -1.
         11    1    3    3    0    0  0.38996908667E+01 -0.26822792035E+01 -0.48788913941E+00  0.47581768204E+01  0.51100000000E-03 0. -1.
        -11    1    3    3    0    0 -0.14454707456E+02 -0.15595884806E+02 -0.53893990360E-01  0.21264362096E+02  0.51100000000E-03 0.  1.
        -12    1    3    3    0    0  0.96125084059E+01 -0.22256381277E+02  0.35795261685E+01  0.24506322307E+02  0.00000000000E+00 0.  1.
</event>
<event>
 7    1  0.2991278E-011  0.5052886E+02  0.7816164E-02  0.1300439E+00
        -11   -1    0    0    0    0  0.00000000000E+00  0.00000000000E+00  0.45593999997E+02  0.45594000000E+02  0.51100000000E-03 0.  1.
         11   -1    0    0    0    0 -0.00000000000E+00 -0.00000000000E+00 -0.45593999997E+02  0.45594000000E+02  0.51100000000E-03 0. -1.
    9900012    2    1    2    0    0  0.19545064586E+02  0.16001254600E+02  0.31860884440E+02  0.50528860121E+02  0.30000000823E+02 0.  0.
         12    1    1    2    0    0 -0.19545064586E+02 -0.16001254600E+02 -0.31860884440E+02  0.40659139879E+02  0.00000000000E+00 0. -1.
         11    1    3    3    0    0  0.64957131158E+01  0.10847787009E+02  0.30991892354E+01  0.13018208250E+02  0.51100000000E-03 0. -1.
        -11    1    3    3    0    0  0.26258663131E+01  0.79225320413E+01  0.24554196561E+02  0.25933959529E+02  0.51100000000E-03 0.  1.
        -12    1    3    3    0    0  0.10423485157E+02 -0.27690644496E+01  0.42074986439E+01  0.11576692342E+02  0.00000000000E+00 0.  1.
</event>
<event>
 7    1  0.2991278E-011  0.5052886E+02  0.7816164E-02  0.1300439E+00
        -11   -1    0    0    0    0  0.00000000000E+00  0.00000000000E+00  0.45593999997E+02  0.45594000000E+02  0.51100000000E-03 0. -1.
         11   -1    0    0    0    0 -0.00000000000E+00 -0.00000000000E+00 -0.45593999997E+02  0.45594000000E+02  0.51100000000E-03 0.  1.
    9900012    2    1    2    0    0  0.22281078691E+02  0.73184082212E+01 -0.33213858882E+02  0.50528856030E+02  0.29999988390E+02 0.  0.
         12    1    1    2    0    0 -0.22281078691E+02 -0.73184082212E+01  0.33213858882E+02  0.40659143970E+02  0.00000000000E+00 0. -1.
         11    1    3    3    0    0 -0.28540298296E+01  0.28608829754E+01  0.22560483569E+01  0.46281629311E+01  0.51100000000E-03 0. -1.
        -11    1    3    3    0    0  0.23466537871E+02 -0.41920333440E+00 -0.25368701169E+02  0.34560456165E+02  0.51100000000E-03 0.  1.
        -12    1    3    3    0    0  0.16685706491E+01  0.48767285802E+01 -0.10101206070E+02  0.11340236934E+02  0.00000000000E+00 0.  1.
</event>
<event>
 7    1  0.2991278E-011  0.5052886E+02  0.7816164E-02  0.1300439E+00
        -11   -1    0    0    0    0  0.00000000000E+00  0.00000000000E+00  0.45593999997E+02  0.45594000000E+02  0.51100000000E-03 0. -1.
         11   -1    0    0    0    0 -0.00000000000E+00 -0.00000000000E+00 -0.45593999997E+02  0.45594000000E+02  0.51100000000E-03 0.  1.
    9900012    2    1    2    0    0 -0.26533304559E+02  0.20694014845E+02 -0.22823383087E+02  0.50528864290E+02  0.30000013495E+02 0.  0.
         12    1    1    2    0    0  0.26533304559E+02 -0.20694014845E+02  0.22823383087E+02  0.40659135710E+02  0.00000000000E+00 0. -1.
         11    1    3    3    0    0  0.51864547587E+01 -0.21558924919E+01 -0.13807766108E+01  0.57839199261E+01  0.51100000000E-03 0. -1.
        -11    1    3    3    0    0 -0.10634342263E+02  0.66419095162E+01 -0.51392685931E+01  0.13550508453E+02  0.51100000000E-03 0.  1.
         12    1    3    3    0    0 -0.21085417054E+02  0.16207997820E+02 -0.16303337883E+02  0.31194435911E+02  0.00000000000E+00 0. -1.
</event>
<event>
 7    1  0.2991278E-011  0.5052887E+02  0.7816164E-02  0.1300439E+00
        -11   -1    0    0    0    0  0.00000000000E+00  0.00000000000E+00  0.45593999997E+02  0.45594000000E+02  0.51100000000E-03 0. -1.
         11   -1    0    0    0    0 -0.00000000000E+00 -0.00000000000E+00 -0.45593999997E+02  0.45594000000E+02  0.51100000000E-03 0.  1.
    9900012    2    1    2    0    0  0.28590806263E+02  0.28904484735E+02 -0.51147341833E+00  0.50528867623E+02  0.30000023628E+02 0.  0.
         12    1    1    2    0    0 -0.28590806263E+02 -0.28904484735E+02  0.51147341833E+00  0.40659132377E+02  0.00000000000E+00 0. -1.
         11    1    3    3    0    0  0.93348622372E+01  0.13829693334E+02  0.51700556540E+01  0.17467957706E+02  0.51100000000E-03 0. -1.
        -11    1    3    3    0    0  0.21772054101E+02  0.75540555683E+01 -0.86183780548E+01  0.24604116239E+02  0.51100000000E-03 0.  1.
        -12    1    3    3    0    0 -0.25161100756E+01  0.75207358327E+01  0.29368489825E+01  0.84567936787E+01  0.00000000000E+00 0.  1.
</event>
<event>
 7    1  0.2991278E-011  0.5052886E+02  0.7816164E-02  0.1300439E+00
        -11   -1    0    0    0    0  0.00000000000E+00  0.00000000000E+00  0.45593999997E+02  0.45594000000E+02  0.51100000000E-03 0. -1.
         11   -1    0    0    0    0 -0.00000000000E+00 -0.00000000000E+00 -0.45593999997E+02  0.45594000000E+02  0.51100000000E-03 0.  1.
    9900012    2    1    2    0    0 -0.30710203242E+02  0.68610808409E+01 -0.25748297942E+02  0.50528857604E+02  0.29999993173E+02 0.  0.
         12    1    1    2    0    0  0.30710203242E+02 -0.68610808409E+01  0.25748297942E+02  0.40659142396E+02  0.00000000000E+00 0. -1.
         11    1    3    3    0    0  0.10372750884E+01 -0.11998793098E+00 -0.17831539474E+01  0.20663917764E+01  0.51100000000E-03 0. -1.
        -11    1    3    3    0    0 -0.29251595197E+02  0.15353791921E+02 -0.21380927817E+02  0.39351478022E+02  0.51100000000E-03 0.  1.
        -12    1    3    3    0    0 -0.24958831331E+01 -0.83727231492E+01 -0.25842161780E+01  0.91109878060E+01  0.00000000000E+00 0.  1.
</event>
<event>
 7    1  0.2991278E-011  0.5052887E+02  0.7816164E-02  0.1300439E+00
        -11   -1    0    0    0    0  0.00000000000E+00  0.00000000000E+00  0.45593999997E+02  0.45594000000E+02  0.51100000000E-03 0. -1.
         11   -1    0    0    0    0 -0.00000000000E+00 -0.00000000000E+00 -0.45593999997E+02  0.45594000000E+02  0.51100000000E-03 0.  1.
    9900012    2    1    2    0    0 -0.38378978540E+02  0.11483998920E+02  0.69524714726E+01  0.50528867145E+02  0.30000022174E+02 0.  0.
         12    1    1    2    0    0  0.38378978540E+02 -0.11483998920E+02 -0.69524714726E+01  0.40659132855E+02  0.00000000000E+00 0. -1.
         11    1    3    3    0    0 -0.92978106572E+01  0.59993739866E+01  0.37966268849E+01  0.11698553210E+02  0.51100000000E-03 0. -1.
        -11    1    3    3    0    0 -0.70776077608E+01 -0.57859571684E+01 -0.75822158352E+01  0.11876861084E+02  0.51100000000E-03 0.  1.
        -12    1    3    3    0    0 -0.22003560122E+02  0.11270582101E+02  0.10738060423E+02  0.26953452851E+02  0.00000000000E+00 0.  1.
</event>
<event>
 7    1  0.2991278E-011  0.5052882E+02  0.7816164E-02  0.1300439E+00
        -11   -1    0    0    0    0  0.00000000000E+00  0.00000000000E+00  0.45593999997E+02  0.45594000000E+02  0.51100000000E-03 0.  1.
         11   -1    0    0    0    0 -0.00000000000E+00 -0.00000000000E+00 -0.45593999997E+02  0.45594000000E+02  0.51100000000E-03 0. -1.
    9900012    2    1    2    0    0 -0.10291408624E+02  0.35031640868E+02  0.17889657250E+02  0.50528821579E+02  0.29999883672E+02 0.  0.
         12    1    1    2    0    0  0.10291408624E+02 -0.35031640868E+02 -0.17889657250E+02  0.40659178421E+02  0.00000000000E+00 0. -1.
         11    1    3    3    0    0  0.51278965675E+01  0.74305190715E+01  0.29344581693E+01  0.94931018054E+01  0.51100000000E-03 0. -1.
        -11    1    3    3    0    0 -0.11019538053E+02  0.14169689030E+02  0.19194428184E+02  0.26279961562E+02  0.51100000000E-03 0.  1.
        -12    1    3    3    0    0 -0.43997671380E+01  0.13431432766E+02 -0.42392291039E+01  0.14755758212E+02  0.00000000000E+00 0.  1.
</event>
<event>
 7    1  0.2991278E-011  0.5052885E+02  0.7816164E-02  0.1300439E+00
        -11   -1    0    0    0    0  0.00000000000E+00  0.00000000000E+00  0.45593999997E+02  0.45594000000E+02  0.51100000000E-03 0.  1.
         11   -1    0    0    0    0 -0.00000000000E+00 -0.00000000000E+00 -0.45593999997E+02  0.45594000000E+02  0.51100000000E-03 0. -1.
    9900012    2    1    2    0    0  0.13790033988E+02  0.23859021293E+02  0.29895633669E+02  0.50528845472E+02  0.29999956297E+02 0.  0.
         12    1    1    2    0    0 -0.13790033988E+02 -0.23859021293E+02 -0.29895633669E+02  0.40659154528E+02  0.00000000000E+00 0. -1.
         11    1    3    3    0    0  0.15723106672E+02 -0.10496506864E+00  0.79774181682E+01  0.17631401021E+02  0.51100000000E-03 0. -1.
        -11    1    3    3    0    0  0.10053461908E+01  0.15937810229E+02  0.14832791510E+02  0.21795325648E+02  0.51100000000E-03 0.  1.
         12    1    3    3    0    0 -0.29384188747E+01  0.80261761321E+01  0.70854239915E+01  0.11102118803E+02  0.00000000000E+00 0. -1.
</event>
<event>
 7    1  0.2991278E-011  0.5052886E+02  0.7816164E-02  0.1300439E+00
        -11   -1    0    0    0    0  0.00000000000E+00  0.00000000000E+00  0.45593999997E+02  0.45594000000E+02  0.51100000000E-03 0.  1.
         11   -1    0    0    0    0 -0.00000000000E+00 -0.00000000000E+00 -0.45593999997E+02  0.45594000000E+02  0.51100000000E-03 0. -1.
    9900012    2    1    2    0    0 -0.10838193193E+01 -0.16781063363E+02  0.37018735934E+02  0.50528861272E+02  0.30000004324E+02 0.  0.
         12    1    1    2    0    0  0.10838193193E+01  0.16781063363E+02 -0.37018735934E+02  0.40659138728E+02  0.00000000000E+00 0. -1.
         11    1    3    3    0    0 -0.26560138954E+00 -0.73126083021E+01  0.27683659642E+02  0.28634416281E+02  0.51100000000E-03 0.  1.
        -11    1    3    3    0    0 -0.67714935073E+01 -0.10940393263E+01 -0.14366389631E+01  0.70081365667E+01  0.51100000000E-03 0. -1.
        -12    1    3    3    0    0  0.59532755775E+01 -0.83744157343E+01  0.10771715255E+02  0.14886308425E+02  0.00000000000E+00 0.  1.
</event>
<event>
 7    1  0.2991278E-011  0.5052886E+02  0.7816164E-02  0.1300439E+00
        -11   -1    0    0    0    0  0.00000000000E+00  0.00000000000E+00  0.45593999997E+02  0.45594000000E+02  0.51100000000E-03 0.  1.
         11   -1    0    0    0    0 -0.00000000000E+00 -0.00000000000E+00 -0.45593999997E+02  0.45594000000E+02  0.51100000000E-03 0. -1.
    9900012    2    1    2    0    0 -0.15949389250E+02  0.86720191274E+01  0.36381018223E+02  0.50528863018E+02  0.30000009629E+02 0.  0.
         12    1    1    2    0    0  0.15949389250E+02 -0.86720191274E+01 -0.36381018223E+02  0.40659136982E+02  0.00000000000E+00 0. -1.
         11    1    3    3    0    0  0.12900932555E+01 -0.39707843563E+01  0.88294584876E+01  0.97668217173E+01  0.51100000000E-03 0. -1.
        -11    1    3    3    0    0 -0.39877668777E+01  0.15017129096E+02  0.19999323583E+02  0.25325666723E+02  0.51100000000E-03 0.  1.
        -12    1    3    3    0    0 -0.13251715627E+02 -0.23743256119E+01  0.75522361528E+01  0.15436374577E+02  0.00000000000E+00 0.  1.
</event>
<event>
 7    1  0.2991278E-011  0.5052886E+02  0.7816164E-02  0.1300439E+00
        -11   -1    0    0    0    0  0.00000000000E+00  0.00000000000E+00  0.45593999997E+02  0.45594000000E+02  0.51100000000E-03 0.  1.
         11   -1    0    0    0    0 -0.00000000000E+00 -0.00000000000E+00 -0.45593999997E+02  0.45594000000E+02  0.51100000000E-03 0. -1.
    9900012    2    1    2    0    0  0.17786316281E+02 -0.18242679770E+02  0.31686233121E+02  0.50528858575E+02  0.29999996125E+02 0.  0.
         12    1    1    2    0    0 -0.17786316281E+02  0.18242679770E+02 -0.31686233121E+02  0.40659141425E+02  0.00000000000E+00 0. -1.
         11    1    3    3    0    0  0.20883407001E+02 -0.82531624148E+01  0.22589446319E+02  0.31851443658E+02  0.51100000000E-03 0.  1.
        -11    1    3    3    0    0 -0.44215567148E+01 -0.34919093957E+01 -0.18058821264E+01  0.59164859102E+01  0.51100000000E-03 0. -1.
         12    1    3    3    0    0  0.13244659944E+01 -0.64976079597E+01  0.10902668928E+02  0.12760929007E+02  0.00000000000E+00 0. -1.
</event>
<event>
 7    1  0.2991278E-011  0.5052887E+02  0.7816164E-02  0.1300439E+00
        -11   -1    0    0    0    0  0.00000000000E+00  0.00000000000E+00  0.45593999997E+02  0.45594000000E+02  0.51100000000E-03 0.  1.
         11   -1    0    0    0    0 -0.00000000000E+00 -0.00000000000E+00 -0.45593999997E+02  0.45594000000E+02  0.51100000000E-03 0. -1.
    9900012    2    1    2    0    0  0.41028763267E+01 -0.32871667564E+02  0.23575091538E+02  0.50528867402E+02  0.30000022956E+02 0.  0.
         12    1    1    2    0    0 -0.41028763267E+01  0.32871667564E+02 -0.23575091538E+02  0.40659132598E+02  0.00000000000E+00 0. -1.
         11    1    3    3    0    0 -0.58246375086E+01 -0.45717636741E+01  0.18740497702E+02  0.20150277407E+02  0.51100000000E-03 0.  1.
        -11    1    3    3    0    0  0.78874660114E+01 -0.22365931131E+02  0.39012330441E+01  0.24034696066E+02  0.51100000000E-03 0. -1.
        -12    1    3    3    0    0  0.20400478239E+01 -0.59339727583E+01  0.93336079159E+00  0.63438939294E+01  0.00000000000E+00 0.  1.
</event>
<event>
 7    1  0.2991278E-011  0.5052886E+02  0.7816164E-02  0.1300439E+00
        -11   -1    0    0    0    0  0.00000000000E+00  0.00000000000E+00  0.45593999997E+02  0.45594000000E+02  0.51100000000E-03 0.  1.
         11   -1    0    0    0    0 -0.00000000000E+00 -0.00000000000E+00 -0.45593999997E+02  0.45594000000E+02  0.51100000000E-03 0. -1.
    9900012    2    1    2    0    0 -0.26378493339E+02 -0.25668571598E+02  0.17276147830E+02  0.50528858807E+02  0.29999996829E+02 0.  0.
         12    1    1    2    0    0  0.26378493339E+02  0.25668571598E+02 -0.17276147830E+02  0.40659141193E+02  0.00000000000E+00 0. -1.
         11    1    3    3    0    0 -0.28183153250E+00  0.22822363884E+01 -0.19965194784E+01  0.30453443540E+01  0.51100000000E-03 0. -1.
        -11    1    3    3    0    0 -0.18459677448E+02 -0.17985740369E+02  0.22834173013E+02  0.34433210794E+02  0.51100000000E-03 0.  1.
        -12    1    3    3    0    0 -0.76369843591E+01 -0.99650676171E+01 -0.35615057044E+01  0.13050303659E+02  0.00000000000E+00 0.  1.
</event>
<event>
 7    1  0.2991278E-011  0.5052888E+02  0.7816164E-02  0.1300439E+00
        -11   -1    0    0    0    0  0.00000000000E+00  0.00000000000E+00  0.45593999997E+02  0.45594000000E+02  0.51100000000E-03 0. -1.
         11   -1    0    0    0    0 -0.00000000000E+00 -0.00000000000E+00 -0.45593999997E+02  0.45594000000E+02  0.51100000000E-03 0.  1.
    9900012    2    1    2    0    0  0.28575992838E+02 -0.11580633265E+02 -0.26504073442E+02  0.50528876270E+02  0.30000049909E+02 0.  0.
         12    1    1    2    0    0 -0.28575992838E+02  0.11580633265E+02  0.26504073442E+02  0.40659123730E+02  0.00000000000E+00 0. -1.
         11    1    3    3    0    0  0.17715267656E+02  0.35697029649E+01 -0.56752070718E+01  0.18941527471E+02  0.51100000000E-03 0. -1.
        -11    1    3    3    0    0  0.12277870470E+02 -0.13260454625E+02 -0.10308550511E+02  0.20805094905E+02  0.51100000000E-03 0.  1.
         12    1    3    3    0    0 -0.14171452874E+01 -0.18898816058E+01 -0.10520315859E+02  0.10782253893E+02  0.00000000000E+00 0. -1.
</event>
<event>
 7    1  0.2991278E-011  0.5052886E+02  0.7816164E-02  0.1300439E+00
        -11   -1    0    0    0    0  0.00000000000E+00  0.00000000000E+00  0.45593999997E+02  0.45594000000E+02  0.51100000000E-03 0. -1.
         11   -1    0    0    0    0 -0.00000000000E+00 -0.00000000000E+00 -0.45593999997E+02  0.45594000000E+02  0.51100000000E-03 0.  1.
    9900012    2    1    2    0    0  0.25728445876E+02  0.18013292464E+02 -0.25821193013E+02  0.50528860300E+02  0.30000001367E+02 0.  0.
         12    1    1    2    0    0 -0.25728445876E+02 -0.18013292464E+02  0.25821193013E+02  0.40659139700E+02  0.00000000000E+00 0. -1.
         11    1    3    3    0    0  0.47313702828E+01 -0.21182416573E+01  0.43474056090E+01  0.67655560202E+01  0.51100000000E-03 0. -1.
        -11    1    3    3    0    0  0.14053736464E+02  0.18001602667E+02 -0.16137460424E+02  0.27963956022E+02  0.51100000000E-03 0.  1.
         12    1    3    3    0    0  0.69433391288E+01  0.21299314545E+01 -0.14031138198E+02  0.15799348258E+02  0.00000000000E+00 0. -1.
</event>
<event>
 7    1  0.2991278E-011  0.5052886E+02  0.7816164E-02  0.1300439E+00
        -11   -1    0    0    0    0  0.00000000000E+00  0.00000000000E+00  0.45593999997E+02  0.45594000000E+02  0.51100000000E-03 0.  1.
         11   -1    0    0    0    0 -0.00000000000E+00 -0.00000000000E+00 -0.45593999997E+02  0.45594000000E+02  0.51100000000E-03 0. -1.
    9900012    2    1    2    0    0 -0.38768368477E+00 -0.39855663553E+01  0.40461468843E+02  0.50528862051E+02  0.30000006690E+02 0.  0.
         12    1    1    2    0    0  0.38768368477E+00  0.39855663553E+01 -0.40461468843E+02  0.40659137949E+02  0.00000000000E+00 0. -1.
         11    1    3    3    0    0 -0.27099334528E+01 -0.67998878132E+01 -0.11986452000E+01  0.74174769408E+01  0.51100000000E-03 0. -1.
        -11    1    3    3    0    0 -0.30742601859E+01  0.41384409491E+01  0.25691067869E+02  0.26203219987E+02  0.51100000000E-03 0.  1.
        -12    1    3    3    0    0  0.53965099539E+01 -0.13241194912E+01  0.15969046174E+02  0.16908165123E+02  0.00000000000E+00 0.  1.
</event>
<event>
 7    1  0.2991278E-011  0.5052886E+02  0.7816164E-02  0.1300439E+00
        -11   -1    0    0    0    0  0.00000000000E+00  0.00000000000E+00  0.45593999997E+02  0.45594000000E+02  0.51100000000E-03 0.  1.
         11   -1    0    0    0    0 -0.00000000000E+00 -0.00000000000E+00 -0.45593999997E+02  0.45594000000E+02  0.51100000000E-03 0. -1.
    9900012    2    1    2    0    0  0.30467447890E+01  0.31712210225E+02  0.25262997854E+02  0.50528855989E+02  0.29999988264E+02 0.  0.
         12    1    1    2    0    0 -0.30467447890E+01 -0.31712210225E+02 -0.25262997854E+02  0.40659144011E+02  0.00000000000E+00 0. -1.
         11    1    3    3    0    0  0.76283747823E+01  0.26328505918E+02  0.29889241269E+02  0.40555506033E+02  0.51100000000E-03 0.  1.
        -11    1    3    3    0    0 -0.31797926404E+01  0.61325854178E+01 -0.47433969588E+01  0.83797076388E+01  0.51100000000E-03 0. -1.
        -12    1    3    3    0    0 -0.14018373528E+01 -0.74888111089E+00  0.11715354309E+00  0.15936423171E+01  0.00000000000E+00 0.  1.
</event>
<event>
 7    1  0.2991278E-011  0.5052886E+02  0.7816164E-02  0.1300439E+00
        -11   -1    0    0    0    0  0.00000000000E+00  0.00000000000E+00  0.45593999997E+02  0.45594000000E+02  0.51100000000E-03 0. -1.
         11   -1    0    0    0    0 -0.00000000000E+00 -0.00000000000E+00 -0.45593999997E+02  0.45594000000E+02  0.51100000000E-03 0.  1.
    9900012    2    1    2    0    0 -0.11289254817E+02 -0.29148876916E+02 -0.26001182576E+02  0.50528858407E+02  0.29999995613E+02 0.  0.
         12    1    1    2    0    0  0.11289254817E+02  0.29148876916E+02  0.26001182576E+02  0.40659141593E+02  0.00000000000E+00 0. -1.
         11    1    3    3    0    0  0.63643876751E+01 -0.24097258260E+01 -0.26655747437E+01  0.73087275233E+01  0.51100000000E-03 0. -1.
        -11    1    3    3    0    0 -0.77637101186E+01 -0.13514695429E+02 -0.21570974671E+02  0.26612574770E+02  0.51100000000E-03 0.  1.
        -12    1    3    3    0    0 -0.98899323736E+01 -0.13224455660E+02 -0.17646331607E+01  0.16607556113E+02  0.00000000000E+00 0.  1.
</event>
<event>
 7    1  0.2991278E-011  0.5052886E+02  0.7816164E-02  0.1300439E+00
        -11   -1    0    0    0    0  0.00000000000E+00  0.00000000000E+00  0.45593999997E+02  0.45594000000E+02  0.51100000000E-03 0.  1.
         11   -1    0    0    0    0 -0.00000000000E+00 -0.00000000000E+00 -0.45593999997E+02  0.45594000000E+02  0.51100000000E-03 0. -1.
    9900012    2    1    2    0    0  0.30704687688E+01  0.28283173040E+01  0.40444264746E+02  0.50528859477E+02  0.29999998867E+02 0.  0.
         12    1    1    2    0    0 -0.30704687688E+01 -0.28283173040E+01 -0.40444264746E+02  0.40659140523E+02  0.00000000000E+00 0. -1.
         11    1    3    3    0    0 -0.85602784054E+01  0.86858712641E+01  0.12887037581E+02  0.17742560804E+02  0.51100000000E-03 0. -1.
        -11    1    3    3    0    0  0.76193993079E+01  0.29998784243E+00  0.51417373275E+01  0.91968854252E+01  0.51100000000E-03 0.  1.
         12    1    3    3    0    0  0.40113478663E+01 -0.61575418025E+01  0.22415489837E+02  0.23589413248E+02  0.00000000000E+00 0. -1.
</event>
<event>
 7    1  0.2991278E-011  0.5052885E+02  0.7816164E-02  0.1300439E+00
        -11   -1    0    0    0    0  0.00000000000E+00  0.00000000000E+00  0.45593999997E+02  0.45594000000E+02  0.51100000000E-03 0. -1.
         11   -1    0    0    0    0 -0.00000000000E+00 -0.00000000000E+00 -0.45593999997E+02  0.45594000000E+02  0.51100000000E-03 0.  1.
    9900012    2    1    2    0    0 -0.39979719773E+02  0.70647079269E+01 -0.22086240159E+01  0.50528854518E+02  0.29999983794E+02 0.  0.
         12    1    1    2    0    0  0.39979719773E+02 -0.70647079269E+01  0.22086240159E+01  0.40659145482E+02  0.00000000000E+00 0. -1.
         11    1    3    3    0    0 -0.29940828096E+02  0.16519917877E+02  0.48386879625E+01  0.34536557084E+02  0.51100000000E-03 0. -1.
        -11    1    3    3    0    0 -0.46856605877E+01 -0.24057513646E+01 -0.12573236189E+01  0.54151562965E+01  0.51100000000E-03 0.  1.
         12    1    3    3    0    0 -0.53532310895E+01 -0.70494585858E+01 -0.57899883595E+01  0.10577141138E+02  0.00000000000E+00 0. -1.
</event>
<event>
 7    1  0.2991278E-011  0.5052886E+02  0.7816164E-02  0.1300439E+00
        -11   -1    0    0    0    0  0.00000000000E+00  0.00000000000E+00  0.45593999997E+02  0.45594000000E+02  0.51100000000E-03 0. -1.
         11   -1    0    0    0    0 -0.00000000000E+00 -0.00000000000E+00 -0.45593999997E+02  0.45594000000E+02  0.51100000000E-03 0.  1.
    9900012    2    1    2    0    0  0.34226304668E+02  0.19550408788E+02 -0.99753358589E+01  0.50528859078E+02  0.29999997653E+02 0.  0.
         12    1    1    2    0    0 -0.34226304668E+02 -0.19550408788E+02  0.99753358589E+01  0.40659140922E+02  0.00000000000E+00 0. -1.
         11    1    3    3    0    0  0.89373442274E+01  0.45975606768E+00  0.72287753158E+01  0.11504029307E+02  0.51100000000E-03 0.  1.
        -11    1    3    3    0    0  0.12687987015E+02  0.18327054224E+02 -0.94606376603E+01  0.24215069610E+02  0.51100000000E-03 0. -1.
        -12    1    3    3    0    0  0.12600973425E+02  0.76359849675E+00 -0.77434735144E+01  0.14809760160E+02  0.00000000000E+00 0.  1.
</event>
<event>
 7    1  0.2991278E-011  0.5052885E+02  0.7816164E-02  0.1300439E+00
        -11   -1    0    0    0    0  0.00000000000E+00  0.00000000000E+00  0.45593999997E+02  0.45594000000E+02  0.51100000000E-03 0. -1.
         11   -1    0    0    0    0 -0.00000000000E+00 -0.00000000000E+00 -0.45593999997E+02  0.45594000000E+02  0.51100000000E-03 0.  1.
    9900012    2    1    2    0    0  0.11832471839E+02  0.38894885749E+02 -0.58868477042E+00  0.50528854940E+02  0.29999985076E+02 0.  0.
         12    1    1    2    0    0 -0.11832471839E+02 -0.38894885749E+02  0.58868477042E+00  0.40659145060E+02  0.00000000000E+00 0. -1.
         11    1    3    3    0    0  0.79924807976E+00  0.24065375479E+02 -0.19452947000E+01  0.24157095566E+02  0.51100000000E-03 0. -1.
        -11    1    3    3    0    0  0.13512826747E+02  0.27467666787E+01  0.23869928513E+01  0.13994246998E+02  0.51100000000E-03 0.  1.
        -12    1    3    3    0    0 -0.24796029882E+01  0.12082743591E+02 -0.10303829218E+01  0.12377512377E+02  0.00000000000E+00 0.  1.
</event>
<event>
 7    1  0.2991278E-011  0.5052881E+02  0.7816164E-02  0.1300439E+00
        -11   -1    0    0    0    0  0.00000000000E+00  0.00000000000E+00  0.45593999997E+02  0.45594000000E+02  0.51100000000E-03 0.  1.
         11   -1    0    0    0    0 -0.00000000000E+00 -0.00000000000E+00 -0.45593999997E+02  0.45594000000E+02  0.51100000000E-03 0. -1.
    9900012    2    1    2    0    0 -0.32502188586E+02 -0.45018532275E+00  0.24424885458E+02  0.50528807197E+02  0.29999839957E+02 0.  0.
         12    1    1    2    0    0  0.32502188586E+02  0.45018532275E+00 -0.24424885458E+02  0.40659192803E+02  0.00000000000E+00 0. -1.
         11    1    3    3    0    0 -0.21888200840E+01 -0.67512632239E+01 -0.12761870864E+01  0.72110430743E+01  0.51100000000E-03 0. -1.
        -11    1    3    3    0    0 -0.29634515585E+02  0.38971492301E+01  0.27192698536E+02  0.40408354830E+02  0.51100000000E-03 0.  1.
         12    1    3    3    0    0 -0.67885291685E+00  0.24039286710E+01 -0.14916259916E+01  0.29094092935E+01  0.00000000000E+00 0. -1.
</event>
<event>
 7    1  0.2991278E-011  0.5052888E+02  0.7816164E-02  0.1300439E+00
        -11   -1    0    0    0    0  0.00000000000E+00  0.00000000000E+00  0.45593999997E+02  0.45594000000E+02  0.51100000000E-03 0. -1.
         11   -1    0    0    0    0 -0.00000000000E+00 -0.00000000000E+00 -0.45593999997E+02  0.45594000000E+02  0.51100000000E-03 0.  1.
    9900012    2    1    2    0    0 -0.33960289159E+02 -0.10958447425E+02 -0.19487827380E+02  0.50528877706E+02  0.30000054275E+02 0.  0.
         12    1    1    2    0    0  0.33960289159E+02  0.10958447425E+02  0.19487827380E+02  0.40659122294E+02  0.00000000000E+00 0. -1.
         11    1    3    3    0    0 -0.10185925972E+02  0.57642452723E+01  0.15876530301E+01  0.11811022558E+02  0.51100000000E-03 0. -1.
        -11    1    3    3    0    0 -0.96414956157E+01 -0.10299661267E+02 -0.22001672461E+01  0.14278732300E+02  0.51100000000E-03 0.  1.
         12    1    3    3    0    0 -0.14132867571E+02 -0.64230314298E+01 -0.18875313164E+02  0.24439122848E+02  0.00000000000E+00 0. -1.
</event>
<event>
 7    1  0.2991278E-011  0.5052886E+02  0.7816164E-02  0.1300439E+00
        -11   -1    0    0    0    0  0.00000000000E+00  0.00000000000E+00  0.45593999997E+02  0.45594000000E+02  0.51100000000E-03 0.  1.
         11   -1    0    0    0    0 -0.00000000000E+00 -0.00000000000E+00 -0.45593999997E+02  0.45594000000E+02  0.51100000000E-03 0. -1.
    9900012    2    1    2    0    0  0.16272487675E+02  0.25649646246E+02  0.27027155702E+02  0.50528863843E+02  0.30000012138E+02 0.  0.
         12    1    1    2    0    0 -0.16272487675E+02 -0.25649646246E+02 -0.27027155702E+02  0.40659136157E+02  0.00000000000E+00 0. -1.
         11    1    3    3    0    0  0.10665654351E+02  0.76721717137E+01 -0.34628766935E+01  0.13587123198E+02  0.51100000000E-03 0. -1.
        -11    1    3    3    0    0  0.34774971680E+01  0.87443560626E+00  0.61182054643E+01  0.70915486706E+01  0.51100000000E-03 0.  1.
         12    1    3    3    0    0  0.21293361564E+01  0.17103038926E+02  0.24371826931E+02  0.29850191975E+02  0.00000000000E+00 0. -1.
</event>
<event>
 7    1  0.2991278E-011  0.5052886E+02  0.7816164E-02  0.1300439E+00
        -11   -1    0    0    0    0  0.00000000000E+00  0.00000000000E+00  0.45593999997E+02  0.45594000000E+02  0.51100000000E-03 0.  1.
         11   -1    0    0    0    0 -0.00000000000E+00 -0.00000000000E+00 -0.45593999997E+02  0.45594000000E+02  0.51100000000E-03 0. -1.
    9900012    2    1    2    0    0 -0.35154412263E+02 -0.25084547294E+01  0.20274134976E+02  0.50528860858E+02  0.30000003065E+02 0.  0.
         12    1    1    2    0    0  0.35154412263E+02  0.25084547294E+01 -0.20274134976E+02  0.40659139142E+02  0.00000000000E+00 0. -1.
         11    1    3    3    0    0 -0.21253840836E+00 -0.67727281389E+01  0.37324964189E+01  0.77360551186E+01  0.51100000000E-03 0. -1.
        -11    1    3    3    0    0 -0.33089699100E+02  0.86874029768E+01  0.12191823812E+02  0.36318586496E+02  0.51100000000E-03 0.  1.
        -12    1    3    3    0    0 -0.18521747555E+01 -0.44231295672E+01  0.43498147451E+01  0.64742192433E+01  0.00000000000E+00 0.  1.
</event>
<event>
 7    1  0.2991278E-011  0.5052885E+02  0.7816164E-02  0.1300439E+00
        -11   -1    0    0    0    0  0.00000000000E+00  0.00000000000E+00  0.45593999997E+02  0.45594000000E+02  0.51100000000E-03 0. -1.
         11   -1    0    0    0    0 -0.00000000000E+00 -0.00000000000E+00 -0.45593999997E+02  0.45594000000E+02  0.51100000000E-03 0.  1.
    9900012    2    1    2    0    0 -0.12436318673E+02 -0.37988825003E+02 -0.74400052467E+01  0.50528849427E+02  0.29999968319E+02 0.  0.
         12    1    1    2    0    0  0.12436318673E+02  0.37988825003E+02  0.74400052467E+01  0.40659150573E+02  0.00000000000E+00 0. -1.
         11    1    3    3    0    0  0.55865355881E+01 -0.19933851837E+02 -0.62102792903E+01  0.21613315295E+02  0.51100000000E-03 0. -1.
        -11    1    3    3    0    0 -0.18042260939E+02 -0.16091131377E+02 -0.49792560651E+01  0.24682801300E+02  0.51100000000E-03 0.  1.
        -12    1    3    3    0    0  0.19406677863E-01 -0.19638417888E+01  0.37495301087E+01  0.42327328319E+01  0.00000000000E+00 0.  1.
</event>
<event>
 7    1  0.2991278E-011  0.5052877E+02  0.7816164E-02  0.1300439E+00
        -11   -1    0    0    0    0  0.00000000000E+00  0.00000000000E+00  0.45593999997E+02  0.45594000000E+02  0.51100000000E-03 0.  1.
         11   -1    0    0    0    0 -0.00000000000E+00 -0.00000000000E+00 -0.45593999997E+02  0.45594000000E+02  0.51100000000E-03 0. -1.
    9900012    2    1    2    0    0 -0.25655463765E+02 -0.26612864825E+02  0.16932980000E+02  0.50528767261E+02  0.29999718567E+02 0.  0.
         12    1    1    2    0    0  0.25655463765E+02  0.26612864825E+02 -0.16932980000E+02  0.40659232739E+02  0.00000000000E+00 0. -1.
         11    1    3    3    0    0  0.49822365546E+01 -0.40700271952E+01  0.20364277265E+01  0.67479508447E+01  0.51100000000E-03 0. -1.
        -11    1    3    3    0    0 -0.23967368015E+02 -0.21305768737E+02  0.17478327128E+02  0.36522081410E+02  0.51100000000E-03 0.  1.
        -12    1    3    3    0    0 -0.66703323047E+01 -0.12370688932E+01 -0.25817748549E+01  0.72587350071E+01  0.00000000000E+00 0.  1.
</event>
<event>
 7    1  0.2991278E-011  0.5052884E+02  0.7816164E-02  0.1300439E+00
        -11   -1    0    0    0    0  0.00000000000E+00  0.00000000000E+00  0.45593999997E+02  0.45594000000E+02  0.51100000000E-03 0. -1.
         11   -1    0    0    0    0 -0.00000000000E+00 -0.00000000000E+00 -0.45593999997E+02  0.45594000000E+02  0.51100000000E-03 0.  1.
    9900012    2    1    2    0    0 -0.26623289880E+02  0.55244675661E+01  0.30229920605E+02  0.50528838600E+02  0.29999935410E+02 0.  0.
         12    1    1    2    0    0  0.26623289880E+02 -0.55244675661E+01 -0.30229920605E+02  0.40659161400E+02  0.00000000000E+00 0. -1.
         11    1    3    3    0    0 -0.31750370123E+01  0.94983730431E+01  0.22458314341E+02  0.24590157254E+02  0.51100000000E-03 0. -1.
        -11    1    3    3    0    0 -0.50703513249E+01  0.10717754179E+01 -0.41034817492E+00  0.51986104865E+01  0.51100000000E-03 0.  1.
         12    1    3    3    0    0 -0.18377901543E+02 -0.50456808949E+01  0.81819544389E+01  0.20740070860E+02  0.00000000000E+00 0. -1.
</event>
<event>
 7    1  0.2991278E-011  0.5052886E+02  0.7816164E-02  0.1300439E+00
        -11   -1    0    0    0    0  0.00000000000E+00  0.00000000000E+00  0.45593999997E+02  0.45594000000E+02  0.51100000000E-03 0.  1.
         11   -1    0    0    0    0 -0.00000000000E+00 -0.00000000000E+00 -0.45593999997E+02  0.45594000000E+02  0.51100000000E-03 0. -1.
    9900012    2    1    2    0    0  0.35721395474E+02  0.17046628777E+02  0.93037782411E+01  0.50528856663E+02  0.29999990314E+02 0.  0.
         12    1    1    2    0    0 -0.35721395474E+02 -0.17046628777E+02 -0.93037782411E+01  0.40659143337E+02  0.00000000000E+00 0. -1.
         11    1    3    3    0    0  0.26003394491E+02  0.45999404733E+01 -0.26013925578E+01  0.26534943394E+02  0.51100000000E-03 0. -1.
        -11    1    3    3    0    0  0.11036437237E+02  0.12411153635E+02  0.55619004539E+01  0.17514976973E+02  0.51100000000E-03 0.  1.
         12    1    3    3    0    0 -0.13184362533E+01  0.35534668311E-01  0.63432703450E+01  0.64789362967E+01  0.00000000000E+00 0. -1.
</event>
<event>
 7    1  0.2991278E-011  0.5052885E+02  0.7816164E-02  0.1300439E+00
        -11   -1    0    0    0    0  0.00000000000E+00  0.00000000000E+00  0.45593999997E+02  0.45594000000E+02  0.51100000000E-03 0.  1.
         11   -1    0    0    0    0 -0.00000000000E+00 -0.00000000000E+00 -0.45593999997E+02  0.45594000000E+02  0.51100000000E-03 0. -1.
    9900012    2    1    2    0    0 -0.22513039012E+02 -0.30147504243E+02  0.15409652996E+02  0.50528851668E+02  0.29999975131E+02 0.  0.
         12    1    1    2    0    0  0.22513039012E+02  0.30147504243E+02 -0.15409652996E+02  0.40659148332E+02  0.00000000000E+00 0. -1.
         11    1    3    3    0    0 -0.73061912162E+01 -0.13490763843E+02 -0.66811202377E+01  0.16733753525E+02  0.51100000000E-03 0. -1.
        -11    1    3    3    0    0 -0.21140522100E+01 -0.10792671572E+02  0.73626236414E+01  0.13234772516E+02  0.51100000000E-03 0.  1.
         12    1    3    3    0    0 -0.13092795586E+02 -0.58640688274E+01  0.14728149592E+02  0.20560325627E+02  0.00000000000E+00 0. -1.
</event>
<event>
 7    1  0.2991278E-011  0.5052886E+02  0.7816164E-02  0.1300439E+00
        -11   -1    0    0    0    0  0.00000000000E+00  0.00000000000E+00  0.45593999997E+02  0.45594000000E+02  0.51100000000E-03 0.  1.
         11   -1    0    0    0    0 -0.00000000000E+00 -0.00000000000E+00 -0.45593999997E+02  0.45594000000E+02  0.51100000000E-03 0. -1.
    9900012    2    1    2    0    0  0.26877648952E+02  0.11543936619E+02  0.28239952831E+02  0.50528862998E+02  0.30000009568E+02 0.  0.
         12    1    1    2    0    0 -0.26877648952E+02 -0.11543936619E+02 -0.28239952831E+02  0.40659137002E+02  0.00000000000E+00 0. -1.
         11    1    3    3    0    0  0.12454635958E+02  0.58611491150E+01  0.26555943933E+02  0.29911355439E+02  0.51100000000E-03 0. -1.
        -11    1    3    3    0    0  0.10495654848E+02  0.10139757390E+02  0.15484618841E+01  0.14675530147E+02  0.51100000000E-03 0.  1.
         12    1    3    3    0    0  0.39273581460E+01 -0.44569698861E+01  0.13554701445E+00  0.59419774120E+01  0.00000000000E+00 0. -1.
</event>
<event>
 7    1  0.2991278E-011  0.5052884E+02  0.7816164E-02  0.1300439E+00
        -11   -1    0    0    0    0  0.00000000000E+00  0.00000000000E+00  0.45593999997E+02  0.45594000000E+02  0.51100000000E-03 0.  1.
         11   -1    0    0    0    0 -0.00000000000E+00 -0.00000000000E+00 -0.45593999997E+02  0.45594000000E+02  0.51100000000E-03 0. -1.
    9900012    2    1    2    0    0 -0.33995493994E+02 -0.38926253821E+01  0.21961809820E+02  0.50528840702E+02  0.29999941798E+02 0.  0.
         12    1    1    2    0    0  0.33995493994E+02  0.38926253821E+01 -0.21961809820E+02  0.40659159298E+02  0.00000000000E+00 0. -1.
         11    1    3    3    0    0 -0.51860831834E+01 -0.47436939013E+01 -0.48228660116E+01  0.85239736884E+01  0.51100000000E-03 0. -1.
        -11    1    3    3    0    0 -0.22688019724E+02 -0.16244587048E+01  0.27116713199E+02  0.35393519747E+02  0.51100000000E-03 0.  1.
        -12    1    3    3    0    0 -0.61213910866E+01  0.24755272240E+01 -0.33203736788E+00  0.66113472671E+01  0.00000000000E+00 0.  1.
</event>
<event>
 7    1  0.2991278E-011  0.5052887E+02  0.7816164E-02  0.1300439E+00
        -11   -1    0    0    0    0  0.00000000000E+00  0.00000000000E+00  0.45593999997E+02  0.45594000000E+02  0.51100000000E-03 0.  1.
         11   -1    0    0    0    0 -0.00000000000E+00 -0.00000000000E+00 -0.45593999997E+02  0.45594000000E+02  0.51100000000E-03 0. -1.
    9900012    2    1    2    0    0 -0.78111398576E+01  0.27544260244E+02  0.28869790676E+02  0.50528868283E+02  0.30000025634E+02 0.  0.
         12    1    1    2    0    0  0.78111398576E+01 -0.27544260244E+02 -0.28869790676E+02  0.40659131717E+02  0.00000000000E+00 0. -1.
         11    1    3    3    0    0 -0.16730023600E+02  0.24836651008E+02  0.27204624570E+02  0.40457935206E+02  0.51100000000E-03 0. -1.
        -11    1    3    3    0    0  0.18299606180E+01 -0.55303384039E+00  0.11938341893E+01  0.22538506216E+01  0.51100000000E-03 0.  1.
         12    1    3    3    0    0  0.70889231241E+01  0.32606430770E+01  0.47133191722E+00  0.78170824552E+01  0.00000000000E+00 0. -1.
</event>
<event>
 7    1  0.2991278E-011  0.5052886E+02  0.7816164E-02  0.1300439E+00
        -11   -1    0    0    0    0  0.00000000000E+00  0.00000000000E+00  0.45593999997E+02  0.45594000000E+02  0.51100000000E-03 0.  1.
         11   -1    0    0    0    0 -0.00000000000E+00 -0.00000000000E+00 -0.45593999997E+02  0.45594000000E+02  0.51100000000E-03 0. -1.
    9900012    2    1    2    0    0 -0.17923998015E+02 -0.30144184211E+02  0.20572418528E+02  0.50528856493E+02  0.29999989797E+02 0.  0.
         12    1    1    2    0    0  0.17923998015E+02  0.30144184211E+02 -0.20572418528E+02  0.40659143507E+02  0.00000000000E+00 0. -1.
         11    1    3    3    0    0  0.66139465741E+01 -0.31853887334E+01  0.30075176447E+01  0.79332309504E+01  0.51100000000E-03 0. -1.
        -11    1    3    3    0    0 -0.11673888375E+02 -0.21040494484E+02  0.14546594414E+02  0.28117352066E+02  0.51100000000E-03 0.  1.
         12    1    3    3    0    0 -0.12864056214E+02 -0.59183009943E+01  0.30183064698E+01  0.14478273477E+02  0.00000000000E+00 0. -1.
</event>
<event>
 7    1  0.2991278E-011  0.5052886E+02  0.7816164E-02  0.1300439E+00
        -11   -1    0    0    0    0  0.00000000000E+00  0.00000000000E+00  0.45593999997E+02  0.45594000000E+02  0.51100000000E-03 0. -1.
         11   -1    0    0    0    0 -0.00000000000E+00 -0.00000000000E+00 -0.45593999997E+02  0.45594000000E+02  0.51100000000E-03 0.  1.
    9900012    2    1    2    0    0 -0.20615281315E+02  0.17970053277E+00 -0.35044879539E+02  0.50528859602E+02  0.29999999246E+02 0.  0.
         12    1    1    2    0    0  0.20615281315E+02 -0.17970053277E+00  0.35044879539E+02  0.40659140398E+02  0.00000000000E+00 0. -1.
         11    1    3    3    0    0 -0.52376653208E+01 -0.88177278330E+01 -0.56154356259E+01  0.11692672050E+02  0.51100000000E-03 0. -1.
        -11    1    3    3    0    0 -0.12917052429E+02  0.36343171893E+01 -0.30043247774E+02  0.32903726871E+02  0.51100000000E-03 0.  1.
        -12    1    3    3    0    0 -0.24605635657E+01  0.53631111764E+01  0.61380386124E+00  0.59324606810E+01  0.00000000000E+00 0.  1.
</event>
<event>
 7    1  0.2991278E-011  0.5052886E+02  0.7816164E-02  0.1300439E+00
        -11   -1    0    0    0    0  0.00000000000E+00  0.00000000000E+00  0.45593999997E+02  0.45594000000E+02  0.51100000000E-03 0.  1.
         11   -1    0    0    0    0 -0.00000000000E+00 -0.00000000000E+00 -0.45593999997E+02  0.45594000000E+02  0.51100000000E-03 0. -1.
    9900012    2    1    2    0    0  0.51159858269E+01 -0.35074033343E+02  0.19919958018E+02  0.50528857690E+02  0.29999993435E+02 0.  0.
         12    1    1    2    0    0 -0.51159858269E+01  0.35074033343E+02 -0.19919958018E+02  0.40659142310E+02  0.00000000000E+00 0. -1.
         11    1    3    3    0    0  0.13697324252E+02 -0.22767782410E+02  0.16376137802E+02  0.31211640411E+02  0.51100000000E-03 0.  1.
        -11    1    3    3    0    0 -0.90789380576E+01 -0.62791507156E+01  0.62571185658E+01  0.12688829062E+02  0.51100000000E-03 0. -1.
         12    1    3    3    0    0  0.49759963199E+00 -0.60271002172E+01 -0.27132983495E+01  0.66283882170E+01  0.00000000000E+00 0. -1.
</event>
<event>
 7    1  0.2991278E-011  0.5052888E+02  0.7816164E-02  0.1300439E+00
        -11   -1    0    0    0    0  0.00000000000E+00  0.00000000000E+00  0.45593999997E+02  0.45594000000E+02  0.51100000000E-03 0. -1.
         11   -1    0    0    0    0 -0.00000000000E+00 -0.00000000000E+00 -0.45593999997E+02  0.45594000000E+02  0.51100000000E-03 0.  1.
    9900012    2    1    2    0    0  0.17892554268E+02  0.32404442428E+02 -0.16821795628E+02  0.50528878078E+02  0.30000055406E+02 0.  0.
         12    1    1    2    0    0 -0.17892554268E+02 -0.32404442428E+02  0.16821795628E+02  0.40659121922E+02  0.00000000000E+00 0. -1.
         11    1    3    3    0    0 -0.49847406104E+01  0.62091888075E+01  0.23562631601E+01  0.83038329066E+01  0.51100000000E-03 0. -1.
        -11    1    3    3    0    0  0.22234035085E+02  0.19595508344E+02 -0.10806510736E+02  0.31545474128E+02  0.51100000000E-03 0.  1.
        -12    1    3    3    0    0  0.64325979375E+00  0.65997452771E+01 -0.83715480525E+01  0.10679571044E+02  0.00000000000E+00 0.  1.
</event>
<event>
 7    1  0.2991278E-011  0.5052886E+02  0.7816164E-02  0.1300439E+00
        -11   -1    0    0    0    0  0.00000000000E+00  0.00000000000E+00  0.45593999997E+02  0.45594000000E+02  0.51100000000E-03 0.  1.
         11   -1    0    0    0    0 -0.00000000000E+00 -0.00000000000E+00 -0.45593999997E+02  0.45594000000E+02  0.51100000000E-03 0. -1.
    9900012    2    1    2    0    0 -0.61455719240E-01 -0.24671078578E+02  0.32318722323E+02  0.50528859482E+02  0.29999998883E+02 0.  0.
         12    1    1    2    0    0  0.61455719240E-01  0.24671078578E+02 -0.32318722323E+02  0.40659140518E+02  0.00000000000E+00 0. -1.
         11    1    3    3    0    0 -0.63773681058E+01 -0.13134707605E+02  0.18314867522E+02  0.23422761161E+02  0.51100000000E-03 0.  1.
        -11    1    3    3    0    0  0.84577513031E+01  0.17561024499E+01  0.15710686739E+01  0.87798468073E+01  0.51100000000E-03 0. -1.
         12    1    3    3    0    0 -0.21418389166E+01 -0.13292473423E+02  0.12432786127E+02  0.18326251514E+02  0.00000000000E+00 0. -1.
</event>
<event>
 7    1  0.2991278E-011  0.5052885E+02  0.7816164E-02  0.1300439E+00
        -11   -1    0    0    0    0  0.00000000000E+00  0.00000000000E+00  0.45593999997E+02  0.45594000000E+02  0.51100000000E-03 0.  1.
         11   -1    0    0    0    0 -0.00000000000E+00 -0.00000000000E+00 -0.45593999997E+02  0.45594000000E+02  0.51100000000E-03 0. -1.
    9900012    2    1    2    0    0 -0.20915306778E+02 -0.17887742755E+02  0.29928996042E+02  0.50528853396E+02  0.29999980382E+02 0.  0.
         12    1    1    2    0    0  0.20915306778E+02  0.17887742755E+02 -0.29928996042E+02  0.40659146604E+02  0.00000000000E+00 0. -1.
         11    1    3    3    0    0  0.11373820706E+01  0.96584947230E+00  0.80724037556E+01  0.82091537830E+01  0.51100000000E-03 0. -1.
        -11    1    3    3    0    0 -0.22436006118E+02 -0.16074657184E+02  0.88058688157E+01  0.28970887111E+02  0.51100000000E-03 0.  1.
        -12    1    3    3    0    0  0.38331726959E+00 -0.27789350433E+01  0.13050723471E+02  0.13348812502E+02  0.00000000000E+00 0.  1.
</event>
<event>
 7    1  0.2991278E-011  0.5052885E+02  0.7816164E-02  0.1300439E+00
        -11   -1    0    0    0    0  0.00000000000E+00  0.00000000000E+00  0.45593999997E+02  0.45594000000E+02  0.51100000000E-03 0. -1.
         11   -1    0    0    0    0 -0.00000000000E+00 -0.00000000000E+00 -0.45593999997E+02  0.45594000000E+02  0.51100000000E-03 0.  1.
    9900012    2    1    2    0    0  0.25421957922E+02  0.35106792235E+01 -0.31536739953E+02  0.50528846294E+02  0.29999958796E+02 0.  0.
         12    1    1    2    0    0 -0.25421957922E+02 -0.35106792235E+01  0.31536739953E+02  0.40659153706E+02  0.00000000000E+00 0. -1.
         11    1    3    3    0    0 -0.29696425578E+01 -0.30001188676E+01 -0.69448562429E+01  0.81271470171E+01  0.51100000000E-03 0. -1.
        -11    1    3    3    0    0  0.29490123873E+02  0.64370008088E+01 -0.16824574480E+02  0.34556745971E+02  0.51100000000E-03 0.  1.
        -12    1    3    3    0    0 -0.10985233930E+01  0.73797282206E-01 -0.77673092308E+01  0.78449533058E+01  0.00000000000E+00 0.  1.
</event>
<event>
 7    1  0.2991278E-011  0.5052887E+02  0.7816164E-02  0.1300439E+00
        -11   -1    0    0    0    0  0.00000000000E+00  0.00000000000E+00  0.45593999997E+02  0.45594000000E+02  0.51100000000E-03 0.  1.
         11   -1    0    0    0    0 -0.00000000000E+00 -0.00000000000E+00 -0.45593999997E+02  0.45594000000E+02  0.51100000000E-03 0. -1.
    9900012    2    1    2    0    0 -0.40455194071E+02 -0.29713711670E+01  0.27773129919E+01  0.50528865215E+02  0.30000016309E+02 0.  0.
         12    1    1    2    0    0  0.40455194071E+02  0.29713711670E+01 -0.27773129919E+01  0.40659134785E+02  0.00000000000E+00 0. -1.
         11    1    3    3    0    0  0.42042095926E+01 -0.24640158788E+01  0.15762577229E+01  0.51216541488E+01  0.51100000000E-03 0. -1.
        -11    1    3    3    0    0 -0.32096144449E+02 -0.18800592043E+01  0.41830540110E+01  0.32422138304E+02  0.51100000000E-03 0.  1.
         12    1    3    3    0    0 -0.12563259215E+02  0.13727039161E+01 -0.29819987419E+01  0.12985072763E+02  0.00000000000E+00 0. -1.
</event>
<event>
 7    1  0.2991278E-011  0.5052886E+02  0.7816164E-02  0.1300439E+00
        -11   -1    0    0    0    0  0.00000000000E+00  0.00000000000E+00  0.45593999997E+02  0.45594000000E+02  0.51100000000E-03 0.  1.
         11   -1    0    0    0    0 -0.00000000000E+00 -0.00000000000E+00 -0.45593999997E+02  0.45594000000E+02  0.51100000000E-03 0. -1.
    9900012    2    1    2    0    0  0.38830839008E+02 -0.27168282098E+01 -0.11745246005E+02  0.50528855674E+02  0.29999987308E+02 0.  0.
         12    1    1    2    0    0 -0.38830839008E+02  0.27168282098E+01  0.11745246005E+02  0.40659144326E+02  0.00000000000E+00 0. -1.
         11    1    3    3    0    0  0.28781971028E+02 -0.83735250260E+01  0.29432855708E+01  0.30119440696E+02  0.51100000000E-03 0. -1.
        -11    1    3    3    0    0  0.41287483842E+01  0.14151165028E+01 -0.41364794652E+00  0.43840874559E+01  0.51100000000E-03 0.  1.
         12    1    3    3    0    0  0.59201195957E+01  0.42415803134E+01 -0.14274883629E+02  0.16025327523E+02  0.00000000000E+00 0. -1.
</event>
<event>
 7    1  0.2991278E-011  0.5052885E+02  0.7816164E-02  0.1300439E+00
        -11   -1    0    0    0    0  0.00000000000E+00  0.00000000000E+00  0.45593999997E+02  0.45594000000E+02  0.51100000000E-03 0.  1.
         11   -1    0    0    0    0 -0.00000000000E+00 -0.00000000000E+00 -0.45593999997E+02  0.45594000000E+02  0.51100000000E-03 0. -1.
    9900012    2    1    2    0    0  0.39024225137E+02  0.10845422059E+02  0.35570893544E+01  0.50528853282E+02  0.29999980036E+02 0.  0.
         12    1    1    2    0    0 -0.39024225137E+02 -0.10845422059E+02 -0.35570893544E+01  0.40659146718E+02  0.00000000000E+00 0. -1.
         11    1    3    3    0    0  0.83615876801E+01  0.12424122348E+02  0.33999319436E+01  0.15356904055E+02  0.51100000000E-03 0. -1.
        -11    1    3    3    0    0  0.17218775763E+02 -0.80023456895E+01 -0.45898534448E+01  0.19534342329E+02  0.51100000000E-03 0.  1.
         12    1    3    3    0    0  0.13443861693E+02  0.64236454003E+01  0.47470108556E+01  0.15637606899E+02  0.00000000000E+00 0. -1.
</event>
<event>
 7    1  0.2991278E-011  0.5052886E+02  0.7816164E-02  0.1300439E+00
        -11   -1    0    0    0    0  0.00000000000E+00  0.00000000000E+00  0.45593999997E+02  0.45594000000E+02  0.51100000000E-03 0. -1.
         11   -1    0    0    0    0 -0.00000000000E+00 -0.00000000000E+00 -0.45593999997E+02  0.45594000000E+02  0.51100000000E-03 0.  1.
    9900012    2    1    2    0    0 -0.23972612266E+02  0.31275553050E+02 -0.10015934696E+02  0.50528864430E+02  0.30000013922E+02 0.  0.
         12    1    1    2    0    0  0.23972612266E+02 -0.31275553050E+02  0.10015934696E+02  0.40659135570E+02  0.00000000000E+00 0. -1.
         11    1    3    3    0    0 -0.98221534731E+00 -0.17416368216E+01  0.60052050185E-01  0.20004130365E+01  0.51100000000E-03 0. -1.
        -11    1    3    3    0    0 -0.10205751479E+02  0.21269642103E+02  0.65558258006E+01  0.24485381161E+02  0.51100000000E-03 0.  1.
        -12    1    3    3    0    0 -0.12784645440E+02  0.11747547768E+02 -0.16631812547E+02  0.24043070232E+02  0.00000000000E+00 0.  1.
</event>
<event>
 7    1  0.2991278E-011  0.5052887E+02  0.7816164E-02  0.1300439E+00
        -11   -1    0    0    0    0  0.00000000000E+00  0.00000000000E+00  0.45593999997E+02  0.45594000000E+02  0.51100000000E-03 0.  1.
         11   -1    0    0    0    0 -0.00000000000E+00 -0.00000000000E+00 -0.45593999997E+02  0.45594000000E+02  0.51100000000E-03 0. -1.
    9900012    2    1    2    0    0 -0.39306387337E+02  0.68041393747E+01  0.78661573423E+01  0.50528870282E+02  0.30000031708E+02 0.  0.
         12    1    1    2    0    0  0.39306387337E+02 -0.68041393747E+01 -0.78661573423E+01  0.40659129718E+02  0.00000000000E+00 0. -1.
         11    1    3    3    0    0  0.29648166122E+01  0.41313185009E-01  0.21697626798E+00  0.29730326748E+01  0.51100000000E-03 0. -1.
        -11    1    3    3    0    0 -0.32200673546E+02  0.10548492829E+01 -0.22891019889E+01  0.32299165190E+02  0.51100000000E-03 0.  1.
        -12    1    3    3    0    0 -0.10070530404E+02  0.57079769068E+01  0.99382830633E+01  0.15256672417E+02  0.00000000000E+00 0.  1.
</event>
<event>
 7    1  0.2991278E-011  0.5052880E+02  0.7816164E-02  0.1300439E+00
        -11   -1    0    0    0    0  0.00000000000E+00  0.00000000000E+00  0.45593999997E+02  0.45594000000E+02  0.51100000000E-03 0.  1.
         11   -1    0    0    0    0 -0.00000000000E+00 -0.00000000000E+00 -0.45593999997E+02  0.45594000000E+02  0.51100000000E-03 0. -1.
    9900012    2    1    2    0    0  0.27356623663E+01  0.35440796872E+02  0.19739211663E+02  0.50528801673E+02  0.29999823165E+02 0.  0.
         12    1    1    2    0    0 -0.27356623663E+01 -0.35440796872E+02 -0.19739211663E+02  0.40659198327E+02  0.00000000000E+00 0. -1.
         11    1    3    3    0    0 -0.20002608750E+01 -0.34456171405E+01  0.32887836095E+01  0.51661803044E+01  0.51100000000E-03 0. -1.
        -11    1    3    3    0    0  0.10100644308E+02  0.22069614372E+02  0.66186497317E+01  0.25157452544E+02  0.51100000000E-03 0.  1.
         12    1    3    3    0    0 -0.53647210664E+01  0.16816799640E+02  0.98317783219E+01  0.20205168825E+02  0.00000000000E+00 0. -1.
</event>
<event>
 7    1  0.2991278E-011  0.5052886E+02  0.7816164E-02  0.1300439E+00
        -11   -1    0    0    0    0  0.00000000000E+00  0.00000000000E+00  0.45593999997E+02  0.45594000000E+02  0.51100000000E-03 0. -1.
         11   -1    0    0    0    0 -0.00000000000E+00 -0.00000000000E+00 -0.45593999997E+02  0.45594000000E+02  0.51100000000E-03 0.  1.
    9900012    2    1    2    0    0  0.32937245887E+02 -0.10768257469E+02 -0.21268485391E+02  0.50528855808E+02  0.29999987715E+02 0.  0.
         12    1    1    2    0    0 -0.32937245887E+02  0.10768257469E+02  0.21268485391E+02  0.40659144192E+02  0.00000000000E+00 0. -1.
         11    1    3    3    0    0  0.25836255810E+01 -0.80648666133E+00 -0.13013039037E+02  0.13291528397E+02  0.51100000000E-03 0. -1.
        -11    1    3    3    0    0  0.28527351071E+02 -0.13916624908E+02 -0.58980225614E+01  0.32284189294E+02  0.51100000000E-03 0.  1.
        -12    1    3    3    0    0  0.18262692351E+01  0.39548541003E+01 -0.23574237928E+01  0.49531381176E+01  0.00000000000E+00 0.  1.
</event>
<event>
 7    1  0.2991278E-011  0.5052888E+02  0.7816164E-02  0.1300439E+00
        -11   -1    0    0    0    0  0.00000000000E+00  0.00000000000E+00  0.45593999997E+02  0.45594000000E+02  0.51100000000E-03 0. -1.
         11   -1    0    0    0    0 -0.00000000000E+00 -0.00000000000E+00 -0.45593999997E+02  0.45594000000E+02  0.51100000000E-03 0.  1.
    9900012    2    1    2    0    0 -0.33919027617E+02 -0.15802575752E+02  0.15904168544E+02  0.50528875416E+02  0.30000047314E+02 0.  0.
         12    1    1    2    0    0  0.33919027617E+02  0.15802575752E+02 -0.15904168544E+02  0.40659124584E+02  0.00000000000E+00 0. -1.
         11    1    3    3    0    0 -0.18239271423E+02  0.20570043823E+01  0.19444366838E+01  0.18457603402E+02  0.51100000000E-03 0. -1.
        -11    1    3    3    0    0 -0.15387604784E+02 -0.18950677577E+02  0.75344973208E+01  0.25547508915E+02  0.51100000000E-03 0.  1.
        -12    1    3    3    0    0 -0.29215140969E+00  0.10910974432E+01  0.64252345394E+01  0.65237630983E+01  0.00000000000E+00 0.  1.
</event>
<event>
 7    1  0.2991278E-011  0.5052887E+02  0.7816164E-02  0.1300439E+00
        -11   -1    0    0    0    0  0.00000000000E+00  0.00000000000E+00  0.45593999997E+02  0.45594000000E+02  0.51100000000E-03 0. -1.
         11   -1    0    0    0    0 -0.00000000000E+00 -0.00000000000E+00 -0.45593999997E+02  0.45594000000E+02  0.51100000000E-03 0.  1.
    9900012    2    1    2    0    0  0.21114924180E+02  0.78219015228E+01 -0.33854725729E+02  0.50528872848E+02  0.30000039510E+02 0.  0.
         12    1    1    2    0    0 -0.21114924180E+02 -0.78219015228E+01  0.33854725729E+02  0.40659127152E+02  0.00000000000E+00 0. -1.
         11    1    3    3    0    0 -0.13073098272E+01 -0.46392466370E+01  0.22251629973E+01  0.53087681216E+01  0.51100000000E-03 0. -1.
        -11    1    3    3    0    0  0.17072189799E+02  0.45381262542E+01 -0.22309380865E+02  0.28456330215E+02  0.51100000000E-03 0.  1.
         12    1    3    3    0    0  0.53500442086E+01  0.79230219055E+01 -0.13770507860E+02  0.16763774512E+02  0.00000000000E+00 0. -1.
</event>
<event>
 7    1  0.2991278E-011  0.5052886E+02  0.7816164E-02  0.1300439E+00
        -11   -1    0    0    0    0  0.00000000000E+00  0.00000000000E+00  0.45593999997E+02  0.45594000000E+02  0.51100000000E-03 0.  1.
         11   -1    0    0    0    0 -0.00000000000E+00 -0.00000000000E+00 -0.45593999997E+02  0.45594000000E+02  0.51100000000E-03 0. -1.
    9900012    2    1    2    0    0 -0.28209157885E+02  0.19390700620E+02  0.21941056096E+02  0.50528858325E+02  0.29999995365E+02 0.  0.
         12    1    1    2    0    0  0.28209157885E+02 -0.19390700620E+02 -0.21941056096E+02  0.40659141675E+02  0.00000000000E+00 0. -1.
         11    1    3    3    0    0 -0.98147469296E+01  0.15682930375E+02  0.23794917351E+02  0.30141029419E+02  0.51100000000E-03 0. -1.
        -11    1    3    3    0    0 -0.10042853358E+02  0.31464780615E+01  0.26914778172E+01  0.10862931504E+02  0.51100000000E-03 0.  1.
         12    1    3    3    0    0 -0.83515575981E+01  0.56129218339E+00 -0.45453390727E+01  0.95248974018E+01  0.00000000000E+00 0. -1.
</event>
<event>
 7    1  0.2991278E-011  0.5052886E+02  0.7816164E-02  0.1300439E+00
        -11   -1    0    0    0    0  0.00000000000E+00  0.00000000000E+00  0.45593999997E+02  0.45594000000E+02  0.51100000000E-03 0. -1.
         11   -1    0    0    0    0 -0.00000000000E+00 -0.00000000000E+00 -0.45593999997E+02  0.45594000000E+02  0.51100000000E-03 0.  1.
    9900012    2    1    2    0    0  0.19188325098E+01 -0.36596317012E+02 -0.17612314660E+02  0.50528856321E+02  0.29999989273E+02 0.  0.
         12    1    1    2    0    0 -0.19188325098E+01  0.36596317012E+02  0.17612314660E+02  0.40659143679E+02  0.00000000000E+00 0. -1.
         11    1    3    3    0    0  0.42137850410E+01 -0.33261284844E+01 -0.14178562496E+02  0.15160829456E+02  0.51100000000E-03 0. -1.
        -11    1    3    3    0    0  0.91946458735E+00 -0.23025132326E+02  0.23654402471E+01  0.23164572985E+02  0.51100000000E-03 0.  1.
         12    1    3    3    0    0 -0.32144171186E+01 -0.10245056202E+02 -0.57991924103E+01  0.12203453880E+02  0.00000000000E+00 0. -1.
</event>
<event>
 7    1  0.2991278E-011  0.5052885E+02  0.7816164E-02  0.1300439E+00
        -11   -1    0    0    0    0  0.00000000000E+00  0.00000000000E+00  0.45593999997E+02  0.45594000000E+02  0.51100000000E-03 0. -1.
         11   -1    0    0    0    0 -0.00000000000E+00 -0.00000000000E+00 -0.45593999997E+02  0.45594000000E+02  0.51100000000E-03 0.  1.
    9900012    2    1    2    0    0 -0.22644235688E+02  0.70226536588E+01 -0.33031612795E+02  0.50528849515E+02  0.29999968585E+02 0.  0.
         12    1    1    2    0    0  0.22644235688E+02 -0.70226536588E+01  0.33031612795E+02  0.40659150485E+02  0.00000000000E+00 0. -1.
         11    1    3    3    0    0 -0.15678734632E+02 -0.88161423800E+01 -0.23414650745E+02  0.29526140213E+02  0.51100000000E-03 0. -1.
        -11    1    3    3    0    0 -0.34780001057E+00  0.32381727771E+01 -0.51355298650E+01  0.60811507988E+01  0.51100000000E-03 0.  1.
         12    1    3    3    0    0 -0.66177010460E+01  0.12600623262E+02 -0.44814321852E+01  0.14921558503E+02  0.00000000000E+00 0. -1.
</event>
<event>
 7    1  0.2991278E-011  0.5052886E+02  0.7816164E-02  0.1300439E+00
        -11   -1    0    0    0    0  0.00000000000E+00  0.00000000000E+00  0.45593999997E+02  0.45594000000E+02  0.51100000000E-03 0.  1.
         11   -1    0    0    0    0 -0.00000000000E+00 -0.00000000000E+00 -0.45593999997E+02  0.45594000000E+02  0.51100000000E-03 0. -1.
    9900012    2    1    2    0    0 -0.27613850510E+00 -0.35942483639E+02  0.19005973583E+02  0.50528863087E+02  0.30000009840E+02 0.  0.
         12    1    1    2    0    0  0.27613850510E+00  0.35942483639E+02 -0.19005973583E+02  0.40659136913E+02  0.00000000000E+00 0. -1.
         11    1    3    3    0    0 -0.22109177397E+01 -0.18768678525E+02 -0.38921648001E+01  0.19295087404E+02  0.51100000000E-03 0. -1.
        -11    1    3    3    0    0  0.65938175637E+01 -0.86514709230E+01  0.15890134546E+02  0.19256758693E+02  0.51100000000E-03 0.  1.
         12    1    3    3    0    0 -0.46590383291E+01 -0.85223341915E+01  0.70080038366E+01  0.11977016991E+02  0.00000000000E+00 0. -1.
</event>
<event>
 7    1  0.2991278E-011  0.5052885E+02  0.7816164E-02  0.1300439E+00
        -11   -1    0    0    0    0  0.00000000000E+00  0.00000000000E+00  0.45593999997E+02  0.45594000000E+02  0.51100000000E-03 0.  1.
         11   -1    0    0    0    0 -0.00000000000E+00 -0.00000000000E+00 -0.45593999997E+02  0.45594000000E+02  0.51100000000E-03 0. -1.
    9900012    2    1    2    0    0 -0.19089357165E+02  0.22540838305E+02  0.27940536496E+02  0.50528849393E+02  0.29999968214E+02 0.  0.
         12    1    1    2    0    0  0.19089357165E+02 -0.22540838305E+02 -0.27940536496E+02  0.40659150607E+02  0.00000000000E+00 0. -1.
         11    1    3    3    0    0 -0.23840796728E+01  0.15242960385E+02  0.76814179362E+01  0.17234728282E+02  0.51100000000E-03 0. -1.
        -11    1    3    3    0    0 -0.11691156921E+02  0.16607012916E+01  0.22511466795E+02  0.25420606139E+02  0.51100000000E-03 0.  1.
         12    1    3    3    0    0 -0.50141205711E+01  0.56371766278E+01 -0.22523482354E+01  0.78735149716E+01  0.00000000000E+00 0. -1.
</event>
<event>
 7    1  0.2991278E-011  0.5052888E+02  0.7816164E-02  0.1300439E+00
        -11   -1    0    0    0    0  0.00000000000E+00  0.00000000000E+00  0.45593999997E+02  0.45594000000E+02  0.51100000000E-03 0. -1.
         11   -1    0    0    0    0 -0.00000000000E+00 -0.00000000000E+00 -0.45593999997E+02  0.45594000000E+02  0.51100000000E-03 0.  1.
    9900012    2    1    2    0    0 -0.18040300841E+01 -0.38975134241E+02 -0.11438916782E+02  0.50528875184E+02  0.30000046609E+02 0.  0.
         12    1    1    2    0    0  0.18040300841E+01  0.38975134241E+02  0.11438916782E+02  0.40659124816E+02  0.00000000000E+00 0. -1.
         11    1    3    3    0    0 -0.83476848407E+01 -0.87498233477E+01 -0.85561164038E+01  0.14813857667E+02  0.51100000000E-03 0.  1.
        -11    1    3    3    0    0  0.12046069246E+02 -0.26010897723E+02 -0.21477562956E+01  0.28745215984E+02  0.51100000000E-03 0. -1.
         12    1    3    3    0    0 -0.55024144897E+01 -0.42144131709E+01 -0.73504408262E+00  0.69698015320E+01  0.00000000000E+00 0. -1.
</event>
<event>
 7    1  0.2991278E-011  0.5052885E+02  0.7816164E-02  0.1300439E+00
        -11   -1    0    0    0    0  0.00000000000E+00  0.00000000000E+00  0.45593999997E+02  0.45594000000E+02  0.51100000000E-03 0. -1.
         11   -1    0    0    0    0 -0.00000000000E+00 -0.00000000000E+00 -0.45593999997E+02  0.45594000000E+02  0.51100000000E-03 0.  1.
    9900012    2    1    2    0    0  0.35168075959E+02 -0.13039166639E+02 -0.15695641551E+02  0.50528848546E+02  0.29999965639E+02 0.  0.
         12    1    1    2    0    0 -0.35168075959E+02  0.13039166639E+02  0.15695641551E+02  0.40659151454E+02  0.00000000000E+00 0. -1.
         11    1    3    3    0    0  0.15471478697E+02  0.50793360035E+01  0.52110640741E+00  0.16292263791E+02  0.51100000000E-03 0. -1.
        -11    1    3    3    0    0  0.14222606427E+02 -0.50583558843E+01 -0.12492309503E+02  0.19594062744E+02  0.51100000000E-03 0.  1.
         12    1    3    3    0    0  0.54739908354E+01 -0.13060146759E+02 -0.37244384556E+01  0.14642522011E+02  0.00000000000E+00 0. -1.
</event>
<event>
 7    1  0.2991278E-011  0.5052885E+02  0.7816164E-02  0.1300439E+00
        -11   -1    0    0    0    0  0.00000000000E+00  0.00000000000E+00  0.45593999997E+02  0.45594000000E+02  0.51100000000E-03 0.  1.
         11   -1    0    0    0    0 -0.00000000000E+00 -0.00000000000E+00 -0.45593999997E+02  0.45594000000E+02  0.51100000000E-03 0. -1.
    9900012    2    1    2    0    0  0.28270798585E+02 -0.15076032565E+02 -0.25032804571E+02  0.50528854470E+02  0.29999983646E+02 0.  0.
         12    1    1    2    0    0 -0.28270798585E+02  0.15076032565E+02  0.25032804571E+02  0.40659145530E+02  0.00000000000E+00 0. -1.
         11    1    3    3    0    0  0.62910246354E+01 -0.16416009256E+02 -0.23438236917E+01  0.17735722726E+02  0.51100000000E-03 0.  1.
        -11    1    3    3    0    0  0.24004650003E+00  0.16585671284E+01 -0.55128054826E+00  0.17641932279E+01  0.51100000000E-03 0. -1.
         12    1    3    3    0    0  0.21739727450E+02 -0.31859043737E+00 -0.22137700331E+02  0.31028938516E+02  0.00000000000E+00 0. -1.
</event>
<event>
 7    1  0.2991278E-011  0.5052884E+02  0.7816164E-02  0.1300439E+00
        -11   -1    0    0    0    0  0.00000000000E+00  0.00000000000E+00  0.45593999997E+02  0.45594000000E+02  0.51100000000E-03 0.  1.
         11   -1    0    0    0    0 -0.00000000000E+00 -0.00000000000E+00 -0.45593999997E+02  0.45594000000E+02  0.51100000000E-03 0. -1.
    9900012    2    1    2    0    0 -0.12388909505E+02  0.37933409383E+02  0.77934998009E+01  0.50528840328E+02  0.29999940660E+02 0.  0.
         12    1    1    2    0    0  0.12388909505E+02 -0.37933409383E+02 -0.77934998009E+01  0.40659159672E+02  0.00000000000E+00 0. -1.
         11    1    3    3    0    0 -0.22887646393E+01 -0.21415675993E+01  0.50848287676E+01  0.59732938329E+01  0.51100000000E-03 0. -1.
        -11    1    3    3    0    0 -0.19825533420E+01  0.20781465620E+02 -0.62440774678E+01  0.21789638243E+02  0.51100000000E-03 0.  1.
         12    1    3    3    0    0 -0.81175915233E+01  0.19293511362E+02  0.89527485010E+01  0.22765908252E+02  0.00000000000E+00 0. -1.
</event>
<event>
 7    1  0.2991278E-011  0.5052880E+02  0.7816164E-02  0.1300439E+00
        -11   -1    0    0    0    0  0.00000000000E+00  0.00000000000E+00  0.45593999997E+02  0.45594000000E+02  0.51100000000E-03 0.  1.
         11   -1    0    0    0    0 -0.00000000000E+00 -0.00000000000E+00 -0.45593999997E+02  0.45594000000E+02  0.51100000000E-03 0. -1.
    9900012    2    1    2    0    0  0.10519031209E+02  0.19224519499E+02  0.34248184862E+02  0.50528802592E+02  0.29999825957E+02 0.  0.
         12    1    1    2    0    0 -0.10519031209E+02 -0.19224519499E+02 -0.34248184862E+02  0.40659197408E+02  0.00000000000E+00 0. -1.
         11    1    3    3    0    0 -0.36116365984E+01  0.15443051516E+01 -0.14466126109E+01  0.41858673686E+01  0.51100000000E-03 0. -1.
        -11    1    3    3    0    0  0.81467542077E+01  0.18782471975E+01  0.24963245286E+02  0.26326052346E+02  0.51100000000E-03 0.  1.
         12    1    3    3    0    0  0.59839135992E+01  0.15801967150E+02  0.10731552187E+02  0.20016882877E+02  0.00000000000E+00 0. -1.
</event>
<event>
 7    1  0.2991278E-011  0.5052886E+02  0.7816164E-02  0.1300439E+00
        -11   -1    0    0    0    0  0.00000000000E+00  0.00000000000E+00  0.45593999997E+02  0.45594000000E+02  0.51100000000E-03 0.  1.
         11   -1    0    0    0    0 -0.00000000000E+00 -0.00000000000E+00 -0.45593999997E+02  0.45594000000E+02  0.51100000000E-03 0. -1.
    9900012    2    1    2    0    0 -0.60823942016E+01  0.15595160069E+02  0.37053489570E+02  0.50528860485E+02  0.30000001929E+02 0.  0.
         12    1    1    2    0    0  0.60823942016E+01 -0.15595160069E+02 -0.37053489570E+02  0.40659139515E+02  0.00000000000E+00 0. -1.
         11    1    3    3    0    0  0.19990684367E+01 -0.27206345803E+01  0.25985990757E+02  0.26204385950E+02  0.51100000000E-03 0. -1.
        -11    1    3    3    0    0 -0.48155414084E+01  0.24675356453E+01  0.36301057456E+01  0.65158145464E+01  0.51100000000E-03 0.  1.
         12    1    3    3    0    0 -0.32659212298E+01  0.15848259004E+02  0.74373930678E+01  0.17808659989E+02  0.00000000000E+00 0. -1.
</event>
<event>
 7    1  0.2991278E-011  0.5052886E+02  0.7816164E-02  0.1300439E+00
        -11   -1    0    0    0    0  0.00000000000E+00  0.00000000000E+00  0.45593999997E+02  0.45594000000E+02  0.51100000000E-03 0.  1.
         11   -1    0    0    0    0 -0.00000000000E+00 -0.00000000000E+00 -0.45593999997E+02  0.45594000000E+02  0.51100000000E-03 0. -1.
    9900012    2    1    2    0    0 -0.18156564209E+02  0.30868595177E+02  0.19251884148E+02  0.50528855453E+02  0.29999986634E+02 0.  0.
         12    1    1    2    0    0  0.18156564209E+02 -0.30868595177E+02 -0.19251884148E+02  0.40659144547E+02  0.00000000000E+00 0. -1.
         11    1    3    3    0    0 -0.83599851473E+01  0.20144607938E+02 -0.11724522683E+01  0.21841914413E+02  0.51100000000E-03 0. -1.
        -11    1    3    3    0    0 -0.14348918963E+01  0.69632837246E+00  0.14081107520E+02  0.14171145938E+02  0.51100000000E-03 0.  1.
        -12    1    3    3    0    0 -0.83616871657E+01  0.10027658867E+02  0.63432288960E+01  0.14515795102E+02  0.00000000000E+00 0.  1.
</event>
<event>
 7    1  0.2991278E-011  0.5052886E+02  0.7816164E-02  0.1300439E+00
        -11   -1    0    0    0    0  0.00000000000E+00  0.00000000000E+00  0.45593999997E+02  0.45594000000E+02  0.51100000000E-03 0.  1.
         11   -1    0    0    0    0 -0.00000000000E+00 -0.00000000000E+00 -0.45593999997E+02  0.45594000000E+02  0.51100000000E-03 0. -1.
    9900012    2    1    2    0    0 -0.43316226090E+01 -0.38332911901E+02 -0.12844853153E+02  0.50528863981E+02  0.30000012558E+02 0.  0.
         12    1    1    2    0    0  0.43316226090E+01  0.38332911901E+02  0.12844853153E+02  0.40659136019E+02  0.00000000000E+00 0. -1.
         11    1    3    3    0    0 -0.13532535981E+02 -0.19336957765E+02  0.15122330310E+01  0.23650249780E+02  0.51100000000E-03 0. -1.
        -11    1    3    3    0    0 -0.32492750027E+00 -0.67864757323E+01 -0.20467066776E+01  0.70958325256E+01  0.51100000000E-03 0.  1.
         12    1    3    3    0    0  0.95258408723E+01 -0.12209478404E+02 -0.12310379506E+02  0.19782781676E+02  0.00000000000E+00 0. -1.
</event>
<event>
 7    1  0.2991278E-011  0.5052886E+02  0.7816164E-02  0.1300439E+00
        -11   -1    0    0    0    0  0.00000000000E+00  0.00000000000E+00  0.45593999997E+02  0.45594000000E+02  0.51100000000E-03 0. -1.
         11   -1    0    0    0    0 -0.00000000000E+00 -0.00000000000E+00 -0.45593999997E+02  0.45594000000E+02  0.51100000000E-03 0.  1.
    9900012    2    1    2    0    0 -0.31129224029E+02 -0.12035391483E+02 -0.23222547519E+02  0.50528856501E+02  0.29999989820E+02 0.  0.
         12    1    1    2    0    0  0.31129224029E+02  0.12035391483E+02  0.23222547519E+02  0.40659143499E+02  0.00000000000E+00 0. -1.
         11    1    3    3    0    0 -0.13727459594E+02 -0.18859917916E+01 -0.16637659036E+01  0.13955938850E+02  0.51100000000E-03 0. -1.
        -11    1    3    3    0    0 -0.80098971060E+01 -0.49286581367E+01 -0.23804820099E+02  0.25595303922E+02  0.51100000000E-03 0.  1.
        -12    1    3    3    0    0 -0.93918673285E+01 -0.52207415551E+01  0.22460384830E+01  0.10977613728E+02  0.00000000000E+00 0.  1.
</event>
<event>
 7    1  0.2991278E-011  0.5052889E+02  0.7816164E-02  0.1300439E+00
        -11   -1    0    0    0    0  0.00000000000E+00  0.00000000000E+00  0.45593999997E+02  0.45594000000E+02  0.51100000000E-03 0. -1.
         11   -1    0    0    0    0 -0.00000000000E+00 -0.00000000000E+00 -0.45593999997E+02  0.45594000000E+02  0.51100000000E-03 0.  1.
    9900012    2    1    2    0    0 -0.22715723386E+02  0.23459368589E+02 -0.24224310916E+02  0.50528889054E+02  0.30000088769E+02 0.  0.
         12    1    1    2    0    0  0.22715723386E+02 -0.23459368589E+02  0.24224310916E+02  0.40659110946E+02  0.00000000000E+00 0. -1.
         11    1    3    3    0    0  0.20264623812E+01  0.70042442792E+01 -0.56484617761E+01  0.92234000457E+01  0.51100000000E-03 0. -1.
        -11    1    3    3    0    0 -0.26030877947E+02  0.83047234669E+01 -0.18600501736E+02  0.33053800140E+02  0.51100000000E-03 0.  1.
        -12    1    3    3    0    0  0.12886921803E+01  0.81504008432E+01  0.24652596611E-01  0.82516888691E+01  0.00000000000E+00 0.  1.
</event>
<event>
 7    1  0.2991278E-011  0.5052886E+02  0.7816164E-02  0.1300439E+00
        -11   -1    0    0    0    0  0.00000000000E+00  0.00000000000E+00  0.45593999997E+02  0.45594000000E+02  0.51100000000E-03 0.  1.
         11   -1    0    0    0    0 -0.00000000000E+00 -0.00000000000E+00 -0.45593999997E+02  0.45594000000E+02  0.51100000000E-03 0. -1.
    9900012    2    1    2    0    0 -0.29313024040E+01 -0.27430305444E+01  0.40460461069E+02  0.50528860065E+02  0.30000000653E+02 0.  0.
         12    1    1    2    0    0  0.29313024040E+01  0.27430305444E+01 -0.40460461069E+02  0.40659139935E+02  0.00000000000E+00 0. -1.
         11    1    3    3    0    0 -0.72628729729E+01 -0.32825778405E+01  0.34558937119E+02  0.35466107429E+02  0.51100000000E-03 0. -1.
        -11    1    3    3    0    0 -0.61147001908E+00  0.62204423739E+01  0.18865602787E+01  0.65289286148E+01  0.51100000000E-03 0.  1.
         12    1    3    3    0    0  0.49430405879E+01 -0.56808950778E+01  0.40149636711E+01  0.85338240209E+01  0.00000000000E+00 0. -1.
</event>
<event>
 7    1  0.2991278E-011  0.5052888E+02  0.7816164E-02  0.1300439E+00
        -11   -1    0    0    0    0  0.00000000000E+00  0.00000000000E+00  0.45593999997E+02  0.45594000000E+02  0.51100000000E-03 0. -1.
         11   -1    0    0    0    0 -0.00000000000E+00 -0.00000000000E+00 -0.45593999997E+02  0.45594000000E+02  0.51100000000E-03 0.  1.
    9900012    2    1    2    0    0  0.21271855740E+02  0.40118873087E+01 -0.34417679466E+02  0.50528883602E+02  0.30000072197E+02 0.  0.
         12    1    1    2    0    0 -0.21271855740E+02 -0.40118873087E+01  0.34417679466E+02  0.40659116398E+02  0.00000000000E+00 0. -1.
         11    1    3    3    0    0  0.32165283178E+01  0.49473021490E+01  0.34101753271E+01  0.68155079778E+01  0.51100000000E-03 0. -1.
        -11    1    3    3    0    0  0.18939897050E+02  0.72670671688E+00 -0.28703527097E+02  0.34396806116E+02  0.51100000000E-03 0.  1.
        -12    1    3    3    0    0 -0.88456962721E+00 -0.16621215571E+01 -0.91243276962E+01  0.93165695083E+01  0.00000000000E+00 0.  1.
</event>
<event>
 7    1  0.2991278E-011  0.5052886E+02  0.7816164E-02  0.1300439E+00
        -11   -1    0    0    0    0  0.00000000000E+00  0.00000000000E+00  0.45593999997E+02  0.45594000000E+02  0.51100000000E-03 0.  1.
         11   -1    0    0    0    0 -0.00000000000E+00 -0.00000000000E+00 -0.45593999997E+02  0.45594000000E+02  0.51100000000E-03 0. -1.
    9900012    2    1    2    0    0  0.49091981607E+01 -0.25482450165E+02  0.31300321738E+02  0.50528860389E+02  0.30000001639E+02 0.  0.
         12    1    1    2    0    0 -0.49091981607E+01  0.25482450165E+02 -0.31300321738E+02  0.40659139611E+02  0.00000000000E+00 0. -1.
         11    1    3    3    0    0  0.89408904849E+01 -0.17157726560E+02  0.25880027252E+02  0.32312581360E+02  0.51100000000E-03 0. -1.
        -11    1    3    3    0    0 -0.52587609114E+01 -0.10300122606E+02 -0.78303564495E+00  0.11591386332E+02  0.51100000000E-03 0.  1.
        -12    1    3    3    0    0  0.12270685872E+01  0.19753990005E+01  0.62033301310E+01  0.66248926967E+01  0.00000000000E+00 0.  1.
</event>
<event>
 7    1  0.2991278E-011  0.5052886E+02  0.7816164E-02  0.1300439E+00
        -11   -1    0    0    0    0  0.00000000000E+00  0.00000000000E+00  0.45593999997E+02  0.45594000000E+02  0.51100000000E-03 0. -1.
         11   -1    0    0    0    0 -0.00000000000E+00 -0.00000000000E+00 -0.45593999997E+02  0.45594000000E+02  0.51100000000E-03 0.  1.
    9900012    2    1    2    0    0  0.34850389354E+02 -0.20712905071E+02 -0.30969873085E+01  0.50528863204E+02  0.30000010196E+02 0.  0.
         12    1    1    2    0    0 -0.34850389354E+02  0.20712905071E+02  0.30969873085E+01  0.40659136796E+02  0.00000000000E+00 0. -1.
         11    1    3    3    0    0  0.70297823195E+01 -0.14923261311E+02  0.82509168164E+01  0.18444489589E+02  0.51100000000E-03 0. -1.
        -11    1    3    3    0    0  0.15127881857E+02  0.23898198641E+00 -0.96144726584E+01  0.17926182154E+02  0.51100000000E-03 0.  1.
         12    1    3    3    0    0  0.12692725177E+02 -0.60286257463E+01 -0.17334314664E+01  0.14158191462E+02  0.00000000000E+00 0. -1.
</event>
<event>
 7    1  0.2991278E-011  0.5052887E+02  0.7816164E-02  0.1300439E+00
        -11   -1    0    0    0    0  0.00000000000E+00  0.00000000000E+00  0.45593999997E+02  0.45594000000E+02  0.51100000000E-03 0.  1.
         11   -1    0    0    0    0 -0.00000000000E+00 -0.00000000000E+00 -0.45593999997E+02  0.45594000000E+02  0.51100000000E-03 0. -1.
    9900012    2    1    2    0    0  0.25925194930E+02 -0.21990580483E+02  0.22303889887E+02  0.50528869830E+02  0.30000030335E+02 0.  0.
         12    1    1    2    0    0 -0.25925194930E+02  0.21990580483E+02 -0.22303889887E+02  0.40659130170E+02  0.00000000000E+00 0. -1.
         11    1    3    3    0    0  0.12645158930E+02 -0.19446610750E+02  0.62002977745E+01  0.24010714417E+02  0.51100000000E-03 0. -1.
        -11    1    3    3    0    0  0.84062116841E+01 -0.40300582103E+01  0.18628959054E+02  0.20831319684E+02  0.51100000000E-03 0.  1.
         12    1    3    3    0    0  0.48738243155E+01  0.14860884778E+01 -0.25253669420E+01  0.56868357295E+01  0.00000000000E+00 0. -1.
</event>
<event>
 7    1  0.2991278E-011  0.5052886E+02  0.7816164E-02  0.1300439E+00
        -11   -1    0    0    0    0  0.00000000000E+00  0.00000000000E+00  0.45593999997E+02  0.45594000000E+02  0.51100000000E-03 0.  1.
         11   -1    0    0    0    0 -0.00000000000E+00 -0.00000000000E+00 -0.45593999997E+02  0.45594000000E+02  0.51100000000E-03 0. -1.
    9900012    2    1    2    0    0  0.19814217921E+01 -0.92589325621E+01  0.39541262297E+02  0.50528864636E+02  0.30000014549E+02 0.  0.
         12    1    1    2    0    0 -0.19814217921E+01  0.92589325621E+01 -0.39541262297E+02  0.40659135364E+02  0.00000000000E+00 0. -1.
         11    1    3    3    0    0  0.21032113425E+01 -0.13237062435E+01 -0.33848675468E+01  0.41991695299E+01  0.51100000000E-03 0. -1.
        -11    1    3    3    0    0 -0.51858028143E+01 -0.93511470056E+01  0.18716394424E+02  0.21555507919E+02  0.51100000000E-03 0.  1.
         12    1    3    3    0    0  0.50640132639E+01  0.14159206871E+01  0.24209735419E+02  0.24774187187E+02  0.00000000000E+00 0. -1.
</event>
<event>
 7    1  0.2991278E-011  0.5052886E+02  0.7816164E-02  0.1300439E+00
        -11   -1    0    0    0    0  0.00000000000E+00  0.00000000000E+00  0.45593999997E+02  0.45594000000E+02  0.51100000000E-03 0.  1.
         11   -1    0    0    0    0 -0.00000000000E+00 -0.00000000000E+00 -0.45593999997E+02  0.45594000000E+02  0.51100000000E-03 0. -1.
    9900012    2    1    2    0    0 -0.31416429846E+02 -0.20622800204E+02  0.15520117688E+02  0.50528855818E+02  0.29999987744E+02 0.  0.
         12    1    1    2    0    0  0.31416429846E+02  0.20622800204E+02 -0.15520117688E+02  0.40659144182E+02  0.00000000000E+00 0. -1.
         11    1    3    3    0    0  0.15049564291E+01 -0.74396858222E+01  0.68770456398E+01  0.10242439943E+02  0.51100000000E-03 0. -1.
        -11    1    3    3    0    0 -0.23348229608E+02 -0.89050365057E+01  0.13859549040E+02  0.28574929586E+02  0.51100000000E-03 0.  1.
         12    1    3    3    0    0 -0.95731566675E+01 -0.42780778765E+01 -0.52164769918E+01  0.11711486289E+02  0.00000000000E+00 0. -1.
</event>
<event>
 7    1  0.2991278E-011  0.5052886E+02  0.7816164E-02  0.1300439E+00
        -11   -1    0    0    0    0  0.00000000000E+00  0.00000000000E+00  0.45593999997E+02  0.45594000000E+02  0.51100000000E-03 0.  1.
         11   -1    0    0    0    0 -0.00000000000E+00 -0.00000000000E+00 -0.45593999997E+02  0.45594000000E+02  0.51100000000E-03 0. -1.
    9900012    2    1    2    0    0 -0.14605711073E+02 -0.22970733356E+02  0.30202386461E+02  0.50528861608E+02  0.30000005343E+02 0.  0.
         12    1    1    2    0    0  0.14605711073E+02  0.22970733356E+02 -0.30202386461E+02  0.40659138392E+02  0.00000000000E+00 0. -1.
         11    1    3    3    0    0  0.23429123500E+01 -0.10569584126E+01 -0.49439777464E+01  0.55721912731E+01  0.51100000000E-03 0. -1.
        -11    1    3    3    0    0 -0.10565554827E+02 -0.11560781427E+02  0.17033994629E+02  0.23139567612E+02  0.51100000000E-03 0.  1.
         12    1    3    3    0    0 -0.63830685961E+01 -0.10352993516E+02  0.18112369578E+02  0.21817102722E+02  0.00000000000E+00 0. -1.
</event>
<event>
 7    1  0.2991278E-011  0.5052885E+02  0.7816164E-02  0.1300439E+00
        -11   -1    0    0    0    0  0.00000000000E+00  0.00000000000E+00  0.45593999997E+02  0.45594000000E+02  0.51100000000E-03 0.  1.
         11   -1    0    0    0    0 -0.00000000000E+00 -0.00000000000E+00 -0.45593999997E+02  0.45594000000E+02  0.51100000000E-03 0. -1.
    9900012    2    1    2    0    0  0.33436565008E+02  0.11369800901E+02  0.20146720267E+02  0.50528848636E+02  0.29999965915E+02 0.  0.
         12    1    1    2    0    0 -0.33436565008E+02 -0.11369800901E+02 -0.20146720267E+02  0.40659151364E+02  0.00000000000E+00 0. -1.
         11    1    3    3    0    0  0.31652909832E+01  0.10523611051E+02 -0.23874074115E+01  0.11245673433E+02  0.51100000000E-03 0. -1.
        -11    1    3    3    0    0  0.33430332342E+01 -0.21336234439E+01 -0.11924218841E+00  0.39676742767E+01  0.51100000000E-03 0.  1.
         12    1    3    3    0    0  0.26928240791E+02  0.29798132944E+01  0.22653369867E+02  0.35315500926E+02  0.00000000000E+00 0. -1.
</event>
<event>
 7    1  0.2991278E-011  0.5052878E+02  0.7816164E-02  0.1300439E+00
        -11   -1    0    0    0    0  0.00000000000E+00  0.00000000000E+00  0.45593999997E+02  0.45594000000E+02  0.51100000000E-03 0.  1.
         11   -1    0    0    0    0 -0.00000000000E+00 -0.00000000000E+00 -0.45593999997E+02  0.45594000000E+02  0.51100000000E-03 0. -1.
    9900012    2    1    2    0    0  0.39263627029E+02 -0.90980298323E+01  0.53633883899E+01  0.50528776086E+02  0.29999745389E+02 0.  0.
         12    1    1    2    0    0 -0.39263627029E+02  0.90980298323E+01 -0.53633883899E+01  0.40659223914E+02  0.00000000000E+00 0. -1.
         11    1    3    3    0    0  0.50047106948E-01  0.26123380127E+01  0.59663481912E+01  0.65133805052E+01  0.51100000000E-03 0. -1.
        -11    1    3    3    0    0  0.18981507617E+02 -0.12553692069E+02 -0.49854575938E+01  0.23296944084E+02  0.51100000000E-03 0.  1.
        -12    1    3    3    0    0  0.20232072305E+02  0.84332422374E+00  0.43824977925E+01  0.20718451496E+02  0.00000000000E+00 0.  1.
</event>
<event>
 7    1  0.2991278E-011  0.5052886E+02  0.7816164E-02  0.1300439E+00
        -11   -1    0    0    0    0  0.00000000000E+00  0.00000000000E+00  0.45593999997E+02  0.45594000000E+02  0.51100000000E-03 0.  1.
         11   -1    0    0    0    0 -0.00000000000E+00 -0.00000000000E+00 -0.45593999997E+02  0.45594000000E+02  0.51100000000E-03 0. -1.
    9900012    2    1    2    0    0 -0.26453136667E+02  0.22195304358E+02  0.21465450400E+02  0.50528861594E+02  0.30000005302E+02 0.  0.
         12    1    1    2    0    0  0.26453136667E+02 -0.22195304358E+02 -0.21465450400E+02  0.40659138406E+02  0.00000000000E+00 0. -1.
         11    1    3    3    0    0 -0.99999876891E+00 -0.49484936974E+01  0.61858677729E+01  0.79845192577E+01  0.51100000000E-03 0. -1.
        -11    1    3    3    0    0 -0.24677576519E+02  0.20195784977E+02  0.15694051610E+02  0.35540902773E+02  0.51100000000E-03 0.  1.
        -12    1    3    3    0    0 -0.77556137893E+00  0.69480130780E+01 -0.41446898375E+00  0.70034395637E+01  0.00000000000E+00 0.  1.
</event>
<event>
 7    1  0.2991278E-011  0.5052886E+02  0.7816164E-02  0.1300439E+00
        -11   -1    0    0    0    0  0.00000000000E+00  0.00000000000E+00  0.45593999997E+02  0.45594000000E+02  0.51100000000E-03 0.  1.
         11   -1    0    0    0    0 -0.00000000000E+00 -0.00000000000E+00 -0.45593999997E+02  0.45594000000E+02  0.51100000000E-03 0. -1.
    9900012    2    1    2    0    0  0.20051907986E+02  0.12667786168E+02  0.33024443998E+02  0.50528859310E+02  0.29999998357E+02 0.  0.
         12    1    1    2    0    0 -0.20051907986E+02 -0.12667786168E+02 -0.33024443998E+02  0.40659140690E+02  0.00000000000E+00 0. -1.
         11    1    3    3    0    0 -0.21230599585E+01  0.31099724284E+01  0.38847664712E+01  0.54102424058E+01  0.51100000000E-03 0. -1.
        -11    1    3    3    0    0  0.11807382220E+02 -0.27469421965E+01  0.33819943575E+00  0.12127421220E+02  0.51100000000E-03 0.  1.
        -12    1    3    3    0    0  0.10367585725E+02  0.12304755936E+02  0.28801478091E+02  0.32991195684E+02  0.00000000000E+00 0.  1.
</event>
<event>
 7    1  0.2991278E-011  0.5052885E+02  0.7816164E-02  0.1300439E+00
        -11   -1    0    0    0    0  0.00000000000E+00  0.00000000000E+00  0.45593999997E+02  0.45594000000E+02  0.51100000000E-03 0.  1.
         11   -1    0    0    0    0 -0.00000000000E+00 -0.00000000000E+00 -0.45593999997E+02  0.45594000000E+02  0.51100000000E-03 0. -1.
    9900012    2    1    2    0    0  0.35695925984E+01 -0.27607890457E+02  0.29634926277E+02  0.50528850203E+02  0.29999970676E+02 0.  0.
         12    1    1    2    0    0 -0.35695925984E+01  0.27607890457E+02 -0.29634926277E+02  0.40659149797E+02  0.00000000000E+00 0. -1.
         11    1    3    3    0    0  0.24232340738E+01  0.49178103946E+01  0.27807634204E+01  0.61473220117E+01  0.51100000000E-03 0. -1.
        -11    1    3    3    0    0  0.59817389820E+01 -0.17958023645E+02  0.93847615047E+01  0.21126891945E+02  0.51100000000E-03 0.  1.
         12    1    3    3    0    0 -0.48353804574E+01 -0.14567677206E+02  0.17469401352E+02  0.23254636246E+02  0.00000000000E+00 0. -1.
</event>
<event>
 7    1  0.2991278E-011  0.5052886E+02  0.7816164E-02  0.1300439E+00
        -11   -1    0    0    0    0  0.00000000000E+00  0.00000000000E+00  0.45593999997E+02  0.45594000000E+02  0.51100000000E-03 0. -1.
         11   -1    0    0    0    0 -0.00000000000E+00 -0.00000000000E+00 -0.45593999997E+02  0.45594000000E+02  0.51100000000E-03 0.  1.
    9900012    2    1    2    0    0  0.11936605281E+01 -0.38505889969E+01 -0.40458793551E+02  0.50528857895E+02  0.29999994058E+02 0.  0.
         12    1    1    2    0    0 -0.11936605281E+01  0.38505889969E+01  0.40458793551E+02  0.40659142105E+02  0.00000000000E+00 0. -1.
         11    1    3    3    0    0 -0.51693208588E+01 -0.15608848519E+02 -0.23237654977E+02  0.28466588122E+02  0.51100000000E-03 0. -1.
        -11    1    3    3    0    0  0.58797691713E+01  0.78997836388E+01 -0.11436752067E+02  0.15092301519E+02  0.51100000000E-03 0.  1.
         12    1    3    3    0    0  0.48321221553E+00  0.38584758834E+01 -0.57843865072E+01  0.69699682533E+01  0.00000000000E+00 0. -1.
</event>
<event>
 7    1  0.2991278E-011  0.5052887E+02  0.7816164E-02  0.1300439E+00
        -11   -1    0    0    0    0  0.00000000000E+00  0.00000000000E+00  0.45593999997E+02  0.45594000000E+02  0.51100000000E-03 0. -1.
         11   -1    0    0    0    0 -0.00000000000E+00 -0.00000000000E+00 -0.45593999997E+02  0.45594000000E+02  0.51100000000E-03 0.  1.
    9900012    2    1    2    0    0 -0.30668037536E+02 -0.33214254768E+01 -0.26487813253E+02  0.50528872557E+02  0.30000038623E+02 0.  0.
         12    1    1    2    0    0  0.30668037536E+02  0.33214254768E+01  0.26487813253E+02  0.40659127443E+02  0.00000000000E+00 0. -1.
         11    1    3    3    0    0 -0.19604613819E+02  0.10000295860E+02 -0.48412039522E+01  0.22534064353E+02  0.51100000000E-03 0. -1.
        -11    1    3    3    0    0 -0.85834684438E+01 -0.11171283077E+02 -0.19559772457E+02  0.24105148723E+02  0.51100000000E-03 0.  1.
        -12    1    3    3    0    0 -0.24799552733E+01 -0.21504382601E+01 -0.20868368435E+01  0.38896594812E+01  0.00000000000E+00 0.  1.
</event>
<event>
 7    1  0.2991278E-011  0.5052886E+02  0.7816164E-02  0.1300439E+00
        -11   -1    0    0    0    0  0.00000000000E+00  0.00000000000E+00  0.45593999997E+02  0.45594000000E+02  0.51100000000E-03 0.  1.
         11   -1    0    0    0    0 -0.00000000000E+00 -0.00000000000E+00 -0.45593999997E+02  0.45594000000E+02  0.51100000000E-03 0. -1.
    9900012    2    1    2    0    0 -0.36171513642E+02 -0.14423099791E+02  0.11694509716E+02  0.50528858786E+02  0.29999996767E+02 0.  0.
         12    1    1    2    0    0  0.36171513642E+02  0.14423099791E+02 -0.11694509716E+02  0.40659141214E+02  0.00000000000E+00 0. -1.
         11    1    3    3    0    0 -0.11962187899E+02 -0.72489264404E+01 -0.95337805355E+01  0.16927310638E+02  0.51100000000E-03 0. -1.
        -11    1    3    3    0    0 -0.12841478778E+02 -0.57883904505E+01  0.83788788083E+01  0.16389467702E+02  0.51100000000E-03 0.  1.
         12    1    3    3    0    0 -0.11367846965E+02 -0.13857829004E+01  0.12849411443E+02  0.17212080447E+02  0.00000000000E+00 0. -1.
</event>
<event>
 7    1  0.2991278E-011  0.5052886E+02  0.7816164E-02  0.1300439E+00
        -11   -1    0    0    0    0  0.00000000000E+00  0.00000000000E+00  0.45593999997E+02  0.45594000000E+02  0.51100000000E-03 0.  1.
         11   -1    0    0    0    0 -0.00000000000E+00 -0.00000000000E+00 -0.45593999997E+02  0.45594000000E+02  0.51100000000E-03 0. -1.
    9900012    2    1    2    0    0 -0.35345710717E+02 -0.15146633047E+02 -0.13207051806E+02  0.50528856180E+02  0.29999988844E+02 0.  0.
         12    1    1    2    0    0  0.35345710717E+02  0.15146633047E+02  0.13207051806E+02  0.40659143820E+02  0.00000000000E+00 0. -1.
         11    1    3    3    0    0 -0.13504820098E+02 -0.16780653881E+02  0.30071851144E+01  0.21748877514E+02  0.51100000000E-03 0. -1.
        -11    1    3    3    0    0 -0.19076745395E+02 -0.20085418710E+01 -0.12583796714E+02  0.22941412234E+02  0.51100000000E-03 0.  1.
         12    1    3    3    0    0 -0.27641452252E+01  0.36425627048E+01 -0.36304402064E+01  0.58385664317E+01  0.00000000000E+00 0. -1.
</event>
<event>
 7    1  0.2991278E-011  0.5052884E+02  0.7816164E-02  0.1300439E+00
        -11   -1    0    0    0    0  0.00000000000E+00  0.00000000000E+00  0.45593999997E+02  0.45594000000E+02  0.51100000000E-03 0.  1.
         11   -1    0    0    0    0 -0.00000000000E+00 -0.00000000000E+00 -0.45593999997E+02  0.45594000000E+02  0.51100000000E-03 0. -1.
    9900012    2    1    2    0    0 -0.33183522130E+02  0.45920291902E+01  0.23042022816E+02  0.50528835123E+02  0.29999924839E+02 0.  0.
         12    1    1    2    0    0  0.33183522130E+02 -0.45920291902E+01 -0.23042022816E+02  0.40659164877E+02  0.00000000000E+00 0. -1.
         11    1    3    3    0    0 -0.17180292448E+02 -0.20068784781E+00 -0.32064225463E+01  0.17478096865E+02  0.51100000000E-03 0. -1.
        -11    1    3    3    0    0 -0.63056496626E+01  0.76561314322E+01  0.11786991955E+02  0.15404893566E+02  0.51100000000E-03 0.  1.
         12    1    3    3    0    0 -0.96975800190E+01 -0.28634143942E+01  0.14461453407E+02  0.17645844691E+02  0.00000000000E+00 0. -1.
</event>
<event>
 7    1  0.2991278E-011  0.5052886E+02  0.7816164E-02  0.1300439E+00
        -11   -1    0    0    0    0  0.00000000000E+00  0.00000000000E+00  0.45593999997E+02  0.45594000000E+02  0.51100000000E-03 0. -1.
         11   -1    0    0    0    0 -0.00000000000E+00 -0.00000000000E+00 -0.45593999997E+02  0.45594000000E+02  0.51100000000E-03 0.  1.
    9900012    2    1    2    0    0 -0.19052723669E+02  0.35577869803E+02  0.49370388926E+01  0.50528862627E+02  0.30000008440E+02 0.  0.
         12    1    1    2    0    0  0.19052723669E+02 -0.35577869803E+02 -0.49370388926E+01  0.40659137373E+02  0.00000000000E+00 0. -1.
         11    1    3    3    0    0 -0.32964887532E+01  0.69166990868E+01 -0.89258875039E+01  0.11763461750E+02  0.51100000000E-03 0. -1.
        -11    1    3    3    0    0 -0.10369249609E+02  0.16888537257E+02  0.16216007014E+02  0.25606696622E+02  0.51100000000E-03 0.  1.
         12    1    3    3    0    0 -0.53869853072E+01  0.11772633459E+02 -0.23530806179E+01  0.13158704254E+02  0.00000000000E+00 0. -1.
</event>
<event>
 7    1  0.2991278E-011  0.5052885E+02  0.7816164E-02  0.1300439E+00
        -11   -1    0    0    0    0  0.00000000000E+00  0.00000000000E+00  0.45593999997E+02  0.45594000000E+02  0.51100000000E-03 0.  1.
         11   -1    0    0    0    0 -0.00000000000E+00 -0.00000000000E+00 -0.45593999997E+02  0.45594000000E+02  0.51100000000E-03 0. -1.
    9900012    2    1    2    0    0 -0.19858767473E+02  0.70285331949E+01  0.34776359234E+02  0.50528854829E+02  0.29999984738E+02 0.  0.
         12    1    1    2    0    0  0.19858767473E+02 -0.70285331949E+01 -0.34776359234E+02  0.40659145171E+02  0.00000000000E+00 0. -1.
         11    1    3    3    0    0  0.91318729980E+00 -0.27778172900E+00 -0.40402723931E+00  0.10364902338E+01  0.51100000000E-03 0. -1.
        -11    1    3    3    0    0 -0.21212408758E+02  0.24560471284E+01  0.95307841303E+01  0.23384488432E+02  0.51100000000E-03 0.  1.
        -12    1    3    3    0    0  0.44045398464E+00  0.48502677955E+01  0.25649602343E+02  0.26107876164E+02  0.00000000000E+00 0.  1.
</event>
<event>
 7    1  0.2991278E-011  0.5052886E+02  0.7816164E-02  0.1300439E+00
        -11   -1    0    0    0    0  0.00000000000E+00  0.00000000000E+00  0.45593999997E+02  0.45594000000E+02  0.51100000000E-03 0.  1.
         11   -1    0    0    0    0 -0.00000000000E+00 -0.00000000000E+00 -0.45593999997E+02  0.45594000000E+02  0.51100000000E-03 0. -1.
    9900012    2    1    2    0    0  0.16946325586E+02 -0.17216888647E+02  0.32704223322E+02  0.50528862913E+02  0.30000009311E+02 0.  0.
         12    1    1    2    0    0 -0.16946325586E+02  0.17216888647E+02 -0.32704223322E+02  0.40659137087E+02  0.00000000000E+00 0. -1.
         11    1    3    3    0    0 -0.36426634965E+00 -0.92284611632E+01  0.14278036814E+02  0.17004691145E+02  0.51100000000E-03 0. -1.
        -11    1    3    3    0    0  0.15724936248E+02 -0.14436183549E+02  0.14582817465E+02  0.25852187160E+02  0.51100000000E-03 0.  1.
        -12    1    3    3    0    0  0.15856556880E+01  0.64477560652E+01  0.38433690431E+01  0.76719846088E+01  0.00000000000E+00 0.  1.
</event>
<event>
 7    1  0.2991278E-011  0.5052885E+02  0.7816164E-02  0.1300439E+00
        -11   -1    0    0    0    0  0.00000000000E+00  0.00000000000E+00  0.45593999997E+02  0.45594000000E+02  0.51100000000E-03 0.  1.
         11   -1    0    0    0    0 -0.00000000000E+00 -0.00000000000E+00 -0.45593999997E+02  0.45594000000E+02  0.51100000000E-03 0. -1.
    9900012    2    1    2    0    0  0.83718186603E+01  0.15380266356E+02  0.36695043289E+02  0.50528854131E+02  0.29999982616E+02 0.  0.
         12    1    1    2    0    0 -0.83718186603E+01 -0.15380266356E+02 -0.36695043289E+02  0.40659145869E+02  0.00000000000E+00 0. -1.
         11    1    3    3    0    0 -0.16776238157E-01  0.54011762321E+00  0.20119685208E+02  0.20126940692E+02  0.51100000000E-03 0.  1.
        -11    1    3    3    0    0  0.57245738491E+01  0.94233623006E+01 -0.16993091700E+01  0.11156081513E+02  0.51100000000E-03 0. -1.
         12    1    3    3    0    0  0.26640210494E+01  0.54167864320E+01  0.18274667251E+02  0.19245831926E+02  0.00000000000E+00 0. -1.
</event>
<event>
 7    1  0.2991278E-011  0.5052886E+02  0.7816164E-02  0.1300439E+00
        -11   -1    0    0    0    0  0.00000000000E+00  0.00000000000E+00  0.45593999997E+02  0.45594000000E+02  0.51100000000E-03 0. -1.
         11   -1    0    0    0    0 -0.00000000000E+00 -0.00000000000E+00 -0.45593999997E+02  0.45594000000E+02  0.51100000000E-03 0.  1.
    9900012    2    1    2    0    0  0.19966070494E+01  0.10044661677E+02 -0.39348243406E+02  0.50528856784E+02  0.29999990681E+02 0.  0.
         12    1    1    2    0    0 -0.19966070494E+01 -0.10044661677E+02  0.39348243406E+02  0.40659143216E+02  0.00000000000E+00 0. -1.
         11    1    3    3    0    0 -0.63518969780E+01  0.28827726443E+01 -0.18417556059E+01  0.72145018754E+01  0.51100000000E-03 0. -1.
        -11    1    3    3    0    0  0.87846161716E+01  0.12680847929E+02 -0.31904987158E+02  0.35438701885E+02  0.51100000000E-03 0.  1.
        -12    1    3    3    0    0 -0.43611214418E+00 -0.55189588964E+01 -0.56015006419E+01  0.78756530234E+01  0.00000000000E+00 0.  1.
</event>
<event>
 7    1  0.2991278E-011  0.5052885E+02  0.7816164E-02  0.1300439E+00
        -11   -1    0    0    0    0  0.00000000000E+00  0.00000000000E+00  0.45593999997E+02  0.45594000000E+02  0.51100000000E-03 0.  1.
         11   -1    0    0    0    0 -0.00000000000E+00 -0.00000000000E+00 -0.45593999997E+02  0.45594000000E+02  0.51100000000E-03 0. -1.
    9900012    2    1    2    0    0  0.18658728806E+02  0.25680727386E+02  0.25407058436E+02  0.50528849269E+02  0.29999967839E+02 0.  0.
         12    1    1    2    0    0 -0.18658728806E+02 -0.25680727386E+02 -0.25407058436E+02  0.40659150731E+02  0.00000000000E+00 0. -1.
         11    1    3    3    0    0  0.91169439589E+01  0.12070542675E+02 -0.47836463124E+01  0.15865054047E+02  0.51100000000E-03 0. -1.
        -11    1    3    3    0    0  0.79841949907E+01  0.92866416496E+01  0.19496077337E+02  0.23023599080E+02  0.51100000000E-03 0.  1.
         12    1    3    3    0    0  0.15575898569E+01  0.43235430616E+01  0.10694627412E+02  0.11640196143E+02  0.00000000000E+00 0. -1.
</event>
<event>
 7    1  0.2991278E-011  0.5052885E+02  0.7816164E-02  0.1300439E+00
        -11   -1    0    0    0    0  0.00000000000E+00  0.00000000000E+00  0.45593999997E+02  0.45594000000E+02  0.51100000000E-03 0. -1.
         11   -1    0    0    0    0 -0.00000000000E+00 -0.00000000000E+00 -0.45593999997E+02  0.45594000000E+02  0.51100000000E-03 0.  1.
    9900012    2    1    2    0    0  0.19059180083E+02 -0.34214220924E+02 -0.10922522000E+02  0.50528846717E+02  0.29999960080E+02 0.  0.
         12    1    1    2    0    0 -0.19059180083E+02  0.34214220924E+02  0.10922522000E+02  0.40659153283E+02  0.00000000000E+00 0. -1.
         11    1    3    3    0    0  0.43317790268E+01 -0.13470843222E+02 -0.13256690689E+01  0.14212154143E+02  0.51100000000E-03 0. -1.
        -11    1    3    3    0    0 -0.41279826543E+01  0.23059340652E+01 -0.35923818454E+01  0.59382472407E+01  0.51100000000E-03 0.  1.
        -12    1    3    3    0    0  0.18855383710E+02 -0.23049311768E+02 -0.60044710857E+01  0.30378445333E+02  0.00000000000E+00 0.  1.
</event>
<event>
 7    1  0.2991278E-011  0.5052887E+02  0.7816164E-02  0.1300439E+00
        -11   -1    0    0    0    0  0.00000000000E+00  0.00000000000E+00  0.45593999997E+02  0.45594000000E+02  0.51100000000E-03 0.  1.
         11   -1    0    0    0    0 -0.00000000000E+00 -0.00000000000E+00 -0.45593999997E+02  0.45594000000E+02  0.51100000000E-03 0. -1.
    9900012    2    1    2    0    0  0.36526783752E+01  0.35577912000E+02  0.19339980202E+02  0.50528871679E+02  0.30000035956E+02 0.  0.
         12    1    1    2    0    0 -0.36526783752E+01 -0.35577912000E+02 -0.19339980202E+02  0.40659128321E+02  0.00000000000E+00 0. -1.
         11    1    3    3    0    0  0.23729797546E+01  0.11209095250E+01  0.18667450928E+01  0.32205913404E+01  0.51100000000E-03 0. -1.
        -11    1    3    3    0    0  0.12184208007E+02  0.23398550343E+02  0.38711601652E+01  0.26663326202E+02  0.51100000000E-03 0.  1.
        -12    1    3    3    0    0 -0.10904509386E+02  0.11058452132E+02  0.13602074944E+02  0.20644954137E+02  0.00000000000E+00 0.  1.
</event>
<event>
 7    1  0.2991278E-011  0.5052885E+02  0.7816164E-02  0.1300439E+00
        -11   -1    0    0    0    0  0.00000000000E+00  0.00000000000E+00  0.45593999997E+02  0.45594000000E+02  0.51100000000E-03 0. -1.
         11   -1    0    0    0    0 -0.00000000000E+00 -0.00000000000E+00 -0.45593999997E+02  0.45594000000E+02  0.51100000000E-03 0.  1.
    9900012    2    1    2    0    0  0.33704290702E+02  0.69544533164E+01 -0.21652313143E+02  0.50528852233E+02  0.29999976849E+02 0.  0.
         12    1    1    2    0    0 -0.33704290702E+02 -0.69544533164E+01  0.21652313143E+02  0.40659147767E+02  0.00000000000E+00 0. -1.
         11    1    3    3    0    0  0.31102855280E+02  0.61112992986E+01 -0.12580242397E+02  0.34102757729E+02  0.51100000000E-03 0. -1.
        -11    1    3    3    0    0  0.91175892926E+00  0.59994201637E+01 -0.25559464008E+00  0.60736871443E+01  0.51100000000E-03 0.  1.
         12    1    3    3    0    0  0.16896764927E+01 -0.51562661459E+01 -0.88164761065E+01  0.10352407360E+02  0.00000000000E+00 0. -1.
</event>
<event>
 7    1  0.2991278E-011  0.5052886E+02  0.7816164E-02  0.1300439E+00
        -11   -1    0    0    0    0  0.00000000000E+00  0.00000000000E+00  0.45593999997E+02  0.45594000000E+02  0.51100000000E-03 0.  1.
         11   -1    0    0    0    0 -0.00000000000E+00 -0.00000000000E+00 -0.45593999997E+02  0.45594000000E+02  0.51100000000E-03 0. -1.
    9900012    2    1    2    0    0 -0.19208816923E+02  0.42661910868E+01  0.35580700773E+02  0.50528864477E+02  0.30000014065E+02 0.  0.
         12    1    1    2    0    0  0.19208816923E+02 -0.42661910868E+01 -0.35580700773E+02  0.40659135523E+02  0.00000000000E+00 0. -1.
         11    1    3    3    0    0 -0.12537672034E+02 -0.58647024753E+01  0.22996170211E+02  0.26840488069E+02  0.51100000000E-03 0.  1.
        -11    1    3    3    0    0  0.37878896502E+01  0.87282305481E+01  0.58130423620E+01  0.11149958667E+02  0.51100000000E-03 0. -1.
        -12    1    3    3    0    0 -0.10459034539E+02  0.14026630140E+01  0.67714881998E+01  0.12538417742E+02  0.00000000000E+00 0.  1.
</event>
<event>
 7    1  0.2991278E-011  0.5052885E+02  0.7816164E-02  0.1300439E+00
        -11   -1    0    0    0    0  0.00000000000E+00  0.00000000000E+00  0.45593999997E+02  0.45594000000E+02  0.51100000000E-03 0. -1.
         11   -1    0    0    0    0 -0.00000000000E+00 -0.00000000000E+00 -0.45593999997E+02  0.45594000000E+02  0.51100000000E-03 0.  1.
    9900012    2    1    2    0    0 -0.16070480830E+02  0.33506360799E+02 -0.16499385800E+02  0.50528852199E+02  0.29999976746E+02 0.  0.
         12    1    1    2    0    0  0.16070480830E+02 -0.33506360799E+02  0.16499385800E+02  0.40659147801E+02  0.00000000000E+00 0. -1.
         11    1    3    3    0    0 -0.46922742700E+01  0.21139882901E+02  0.43014856771E+00  0.21658649888E+02  0.51100000000E-03 0. -1.
        -11    1    3    3    0    0 -0.14064273146E+02  0.44166036667E+01 -0.12774957265E+02  0.19506657850E+02  0.51100000000E-03 0.  1.
        -12    1    3    3    0    0  0.26860665861E+01  0.79498742308E+01 -0.41545771021E+01  0.93635444617E+01  0.00000000000E+00 0.  1.
</event>
<event>
 7    1  0.2991278E-011  0.5052887E+02  0.7816164E-02  0.1300439E+00
        -11   -1    0    0    0    0  0.00000000000E+00  0.00000000000E+00  0.45593999997E+02  0.45594000000E+02  0.51100000000E-03 0. -1.
         11   -1    0    0    0    0 -0.00000000000E+00 -0.00000000000E+00 -0.45593999997E+02  0.45594000000E+02  0.51100000000E-03 0.  1.
    9900012    2    1    2    0    0 -0.32158554258E+02  0.94577571460E+01 -0.23011809440E+02  0.50528866267E+02  0.30000019506E+02 0.  0.
         12    1    1    2    0    0  0.32158554258E+02 -0.94577571460E+01  0.23011809440E+02  0.40659133733E+02  0.00000000000E+00 0. -1.
         11    1    3    3    0    0 -0.52500016111E+01 -0.79013939079E+01  0.54823926707E+00  0.95023738697E+01  0.51100000000E-03 0. -1.
        -11    1    3    3    0    0 -0.25200475134E+02  0.16375767843E+02 -0.17779221498E+02  0.34918912308E+02  0.51100000000E-03 0.  1.
         12    1    3    3    0    0 -0.17080775126E+01  0.98338321127E+00 -0.57808272088E+01  0.61075800893E+01  0.00000000000E+00 0. -1.
</event>
<event>
 7    1  0.2991278E-011  0.5052893E+02  0.7816164E-02  0.1300439E+00
        -11   -1    0    0    0    0  0.00000000000E+00  0.00000000000E+00  0.45593999997E+02  0.45594000000E+02  0.51100000000E-03 0.  1.
         11   -1    0    0    0    0 -0.00000000000E+00 -0.00000000000E+00 -0.45593999997E+02  0.45594000000E+02  0.51100000000E-03 0. -1.
    9900012    2    1    2    0    0 -0.18654158358E+02 -0.29298071937E+02  0.21137769249E+02  0.50528930506E+02  0.30000214766E+02 0.  0.
         12    1    1    2    0    0  0.18654158358E+02  0.29298071937E+02 -0.21137769249E+02  0.40659069494E+02  0.00000000000E+00 0. -1.
         11    1    3    3    0    0 -0.13791960164E+02 -0.12298992910E+01  0.42992116598E+01  0.14498759898E+02  0.51100000000E-03 0. -1.
        -11    1    3    3    0    0  0.38860934385E+01 -0.82316683619E+01  0.94616750335E+01  0.13129561338E+02  0.51100000000E-03 0.  1.
         12    1    3    3    0    0 -0.87482916330E+01 -0.19836504284E+02  0.73768825557E+01  0.22900609270E+02  0.00000000000E+00 0. -1.
</event>
<event>
 7    1  0.2991278E-011  0.5052889E+02  0.7816164E-02  0.1300439E+00
        -11   -1    0    0    0    0  0.00000000000E+00  0.00000000000E+00  0.45593999997E+02  0.45594000000E+02  0.51100000000E-03 0. -1.
         11   -1    0    0    0    0 -0.00000000000E+00 -0.00000000000E+00 -0.45593999997E+02  0.45594000000E+02  0.51100000000E-03 0.  1.
    9900012    2    1    2    0    0  0.37235457712E+02  0.12450354156E+02  0.10567537178E+02  0.50528886979E+02  0.30000082462E+02 0.  0.
         12    1    1    2    0    0 -0.37235457712E+02 -0.12450354156E+02 -0.10567537178E+02  0.40659113021E+02  0.00000000000E+00 0. -1.
         11    1    3    3    0    0  0.33896986231E+02  0.11143414891E+02  0.10150961480E+02  0.37097484958E+02  0.51100000000E-03 0.  1.
        -11    1    3    3    0    0 -0.45250500983E+01  0.11961334075E+01  0.24855342995E+01  0.52994994609E+01  0.51100000000E-03 0. -1.
         12    1    3    3    0    0  0.78635215786E+01  0.11080585774E+00 -0.20689586009E+01  0.81319025601E+01  0.00000000000E+00 0. -1.
</event>
<event>
 7    1  0.2991278E-011  0.5052886E+02  0.7816164E-02  0.1300439E+00
        -11   -1    0    0    0    0  0.00000000000E+00  0.00000000000E+00  0.45593999997E+02  0.45594000000E+02  0.51100000000E-03 0. -1.
         11   -1    0    0    0    0 -0.00000000000E+00 -0.00000000000E+00 -0.45593999997E+02  0.45594000000E+02  0.51100000000E-03 0.  1.
    9900012    2    1    2    0    0 -0.23180286247E+02 -0.32976536510E+02 -0.53280657985E+01  0.50528856922E+02  0.29999991099E+02 0.  0.
         12    1    1    2    0    0  0.23180286247E+02  0.32976536510E+02  0.53280657985E+01  0.40659143078E+02  0.00000000000E+00 0. -1.
         11    1    3    3    0    0 -0.18813613480E+02 -0.77423914912E+01  0.44436541555E+01  0.20824090393E+02  0.51100000000E-03 0. -1.
        -11    1    3    3    0    0 -0.39336326957E+01 -0.44454707092E+01 -0.62424999858E+01  0.86142023627E+01  0.51100000000E-03 0.  1.
         12    1    3    3    0    0 -0.43304007154E+00 -0.20788674310E+02 -0.35292199681E+01  0.21090564166E+02  0.00000000000E+00 0. -1.
</event>
<event>
 7    1  0.2991278E-011  0.5052880E+02  0.7816164E-02  0.1300439E+00
        -11   -1    0    0    0    0  0.00000000000E+00  0.00000000000E+00  0.45593999997E+02  0.45594000000E+02  0.51100000000E-03 0. -1.
         11   -1    0    0    0    0 -0.00000000000E+00 -0.00000000000E+00 -0.45593999997E+02  0.45594000000E+02  0.51100000000E-03 0.  1.
    9900012    2    1    2    0    0  0.38324918435E+02  0.31434104498E+01 -0.13209460817E+02  0.50528803533E+02  0.29999828818E+02 0.  0.
         12    1    1    2    0    0 -0.38324918435E+02 -0.31434104498E+01  0.13209460817E+02  0.40659196467E+02  0.00000000000E+00 0. -1.
         11    1    3    3    0    0  0.25806176905E+00 -0.29963246011E+01 -0.29294055374E+01  0.41983299127E+01  0.51100000000E-03 0. -1.
        -11    1    3    3    0    0  0.40019224527E+02  0.20538563815E+01 -0.11407257180E+02  0.41663919335E+02  0.51100000000E-03 0.  1.
        -12    1    3    3    0    0 -0.19523678612E+01  0.40858786695E+01  0.11272018998E+01  0.46665542845E+01  0.00000000000E+00 0.  1.
</event>
<event>
 7    1  0.2991278E-011  0.5052887E+02  0.7816164E-02  0.1300439E+00
        -11   -1    0    0    0    0  0.00000000000E+00  0.00000000000E+00  0.45593999997E+02  0.45594000000E+02  0.51100000000E-03 0.  1.
         11   -1    0    0    0    0 -0.00000000000E+00 -0.00000000000E+00 -0.45593999997E+02  0.45594000000E+02  0.51100000000E-03 0. -1.
    9900012    2    1    2    0    0  0.25254049372E+02 -0.26271363294E+02  0.18033673462E+02  0.50528869199E+02  0.30000028416E+02 0.  0.
         12    1    1    2    0    0 -0.25254049372E+02  0.26271363294E+02 -0.18033673462E+02  0.40659130801E+02  0.00000000000E+00 0. -1.
         11    1    3    3    0    0  0.19676646511E+02 -0.17233774959E+02  0.18358155724E+02  0.31956146500E+02  0.51100000000E-03 0. -1.
        -11    1    3    3    0    0  0.10728713606E+02 -0.74221402835E+01 -0.12103637897E+01  0.13101848831E+02  0.51100000000E-03 0.  1.
         12    1    3    3    0    0 -0.51513107453E+01 -0.16154480514E+01  0.88588152779E+00  0.54708738683E+01  0.00000000000E+00 0. -1.
</event>
<event>
 7    1  0.2991278E-011  0.5052885E+02  0.7816164E-02  0.1300439E+00
        -11   -1    0    0    0    0  0.00000000000E+00  0.00000000000E+00  0.45593999997E+02  0.45594000000E+02  0.51100000000E-03 0.  1.
         11   -1    0    0    0    0 -0.00000000000E+00 -0.00000000000E+00 -0.45593999997E+02  0.45594000000E+02  0.51100000000E-03 0. -1.
    9900012    2    1    2    0    0 -0.26211788539E+02 -0.18236735062E+02  0.25170017619E+02  0.50528854029E+02  0.29999982306E+02 0.  0.
         12    1    1    2    0    0  0.26211788539E+02  0.18236735062E+02 -0.25170017619E+02  0.40659145971E+02  0.00000000000E+00 0. -1.
         11    1    3    3    0    0  0.23581309947E+01 -0.41351016166E+01  0.18078137818E+01  0.50919581792E+01  0.51100000000E-03 0. -1.
        -11    1    3    3    0    0 -0.15423407219E+02 -0.14417997214E+01  0.22303369670E+02  0.27155120615E+02  0.51100000000E-03 0.  1.
        -12    1    3    3    0    0 -0.13146512315E+02 -0.12659833724E+02  0.10588341675E+01  0.18281775235E+02  0.00000000000E+00 0.  1.
</event>
<event>
 7    1  0.2991278E-011  0.5052887E+02  0.7816164E-02  0.1300439E+00
        -11   -1    0    0    0    0  0.00000000000E+00  0.00000000000E+00  0.45593999997E+02  0.45594000000E+02  0.51100000000E-03 0. -1.
         11   -1    0    0    0    0 -0.00000000000E+00 -0.00000000000E+00 -0.45593999997E+02  0.45594000000E+02  0.51100000000E-03 0.  1.
    9900012    2    1    2    0    0  0.15852556354E+02 -0.11490063506E+02 -0.35634810748E+02  0.50528870160E+02  0.30000031337E+02 0.  0.
         12    1    1    2    0    0 -0.15852556354E+02  0.11490063506E+02  0.35634810748E+02  0.40659129840E+02  0.00000000000E+00 0. -1.
         11    1    3    3    0    0  0.56135255145E+01 -0.55294910433E-01  0.42634100687E+01  0.70492121477E+01  0.51100000000E-03 0. -1.
        -11    1    3    3    0    0  0.10307060092E+02 -0.11841153827E+02 -0.32735700715E+02  0.36305295940E+02  0.51100000000E-03 0.  1.
         12    1    3    3    0    0 -0.68029253065E-01  0.40638523125E+00 -0.71625201019E+01  0.71743620723E+01  0.00000000000E+00 0. -1.
</event>
<event>
 7    1  0.2991278E-011  0.5052886E+02  0.7816164E-02  0.1300439E+00
        -11   -1    0    0    0    0  0.00000000000E+00  0.00000000000E+00  0.45593999997E+02  0.45594000000E+02  0.51100000000E-03 0.  1.
         11   -1    0    0    0    0 -0.00000000000E+00 -0.00000000000E+00 -0.45593999997E+02  0.45594000000E+02  0.51100000000E-03 0. -1.
    9900012    2    1    2    0    0  0.39804571961E+02 -0.28849941502E+01  0.77742199361E+01  0.50528860365E+02  0.30000001564E+02 0.  0.
         12    1    1    2    0    0 -0.39804571961E+02  0.28849941502E+01 -0.77742199361E+01  0.40659139635E+02  0.00000000000E+00 0. -1.
         11    1    3    3    0    0 -0.32348616781E+01 -0.24107420341E+01  0.15325167539E+01  0.43156245311E+01  0.51100000000E-03 0. -1.
        -11    1    3    3    0    0  0.43609677278E+02 -0.13031776821E+01  0.78367426151E+01  0.44327381599E+02  0.51100000000E-03 0.  1.
        -12    1    3    3    0    0 -0.57024363821E+00  0.82892556599E+00 -0.15950394329E+01  0.18858542344E+01  0.00000000000E+00 0.  1.
</event>
<event>
 7    1  0.2991278E-011  0.5052886E+02  0.7816164E-02  0.1300439E+00
        -11   -1    0    0    0    0  0.00000000000E+00  0.00000000000E+00  0.45593999997E+02  0.45594000000E+02  0.51100000000E-03 0.  1.
         11   -1    0    0    0    0 -0.00000000000E+00 -0.00000000000E+00 -0.45593999997E+02  0.45594000000E+02  0.51100000000E-03 0. -1.
    9900012    2    1    2    0    0  0.28824882542E+01  0.39446284421E+02  0.94258999068E+01  0.50528859795E+02  0.29999999833E+02 0.  0.
         12    1    1    2    0    0 -0.28824882542E+01 -0.39446284421E+02 -0.94258999068E+01  0.40659140205E+02  0.00000000000E+00 0. -1.
         11    1    3    3    0    0  0.15133474673E+01  0.11911660986E+02  0.14168431808E+02  0.18572085187E+02  0.51100000000E-03 0. -1.
        -11    1    3    3    0    0 -0.10494013880E+01  0.27774052406E+02 -0.69760579744E+01  0.28655969979E+02  0.51100000000E-03 0.  1.
        -12    1    3    3    0    0  0.24185421749E+01 -0.23942897092E+00  0.22335260728E+01  0.33008046294E+01  0.00000000000E+00 0.  1.
</event>
<event>
 7    1  0.2991278E-011  0.5052886E+02  0.7816164E-02  0.1300439E+00
        -11   -1    0    0    0    0  0.00000000000E+00  0.00000000000E+00  0.45593999997E+02  0.45594000000E+02  0.51100000000E-03 0.  1.
         11   -1    0    0    0    0 -0.00000000000E+00 -0.00000000000E+00 -0.45593999997E+02  0.45594000000E+02  0.51100000000E-03 0. -1.
    9900012    2    1    2    0    0  0.74672448659E+01 -0.83620248915E+01  0.39083017138E+02  0.50528862838E+02  0.30000009081E+02 0.  0.
         12    1    1    2    0    0 -0.74672448659E+01  0.83620248915E+01 -0.39083017138E+02  0.40659137162E+02  0.00000000000E+00 0. -1.
         11    1    3    3    0    0 -0.10502987218E+00  0.74149469142E+00 -0.20191471480E+01  0.21535554597E+01  0.51100000000E-03 0. -1.
        -11    1    3    3    0    0  0.11095925501E+02  0.22533597574E+01  0.30162560344E+02  0.32217654161E+02  0.51100000000E-03 0.  1.
        -12    1    3    3    0    0 -0.35236507629E+01 -0.11356879340E+02  0.10939603943E+02  0.16157653217E+02  0.00000000000E+00 0.  1.
</event>
<event>
 7    1  0.2991278E-011  0.5052882E+02  0.7816164E-02  0.1300439E+00
        -11   -1    0    0    0    0  0.00000000000E+00  0.00000000000E+00  0.45593999997E+02  0.45594000000E+02  0.51100000000E-03 0.  1.
         11   -1    0    0    0    0 -0.00000000000E+00 -0.00000000000E+00 -0.45593999997E+02  0.45594000000E+02  0.51100000000E-03 0. -1.
    9900012    2    1    2    0    0 -0.29038627462E+02  0.16406404282E+02  0.23254173768E+02  0.50528824111E+02  0.29999891368E+02 0.  0.
         12    1    1    2    0    0  0.29038627462E+02 -0.16406404282E+02 -0.23254173768E+02  0.40659175889E+02  0.00000000000E+00 0. -1.
         11    1    3    3    0    0  0.29211583364E+01 -0.16980608598E+00 -0.31061707007E+01  0.42673524363E+01  0.51100000000E-03 0. -1.
        -11    1    3    3    0    0 -0.31868739538E+02  0.17034618783E+02  0.27248483815E+02  0.45257868568E+02  0.51100000000E-03 0.  1.
        -12    1    3    3    0    0 -0.91046259985E-01 -0.45840841506E+00 -0.88813934661E+00  0.10036031065E+01  0.00000000000E+00 0.  1.
</event>
<event>
 7    1  0.2991278E-011  0.5052887E+02  0.7816164E-02  0.1300439E+00
        -11   -1    0    0    0    0  0.00000000000E+00  0.00000000000E+00  0.45593999997E+02  0.45594000000E+02  0.51100000000E-03 0.  1.
         11   -1    0    0    0    0 -0.00000000000E+00 -0.00000000000E+00 -0.45593999997E+02  0.45594000000E+02  0.51100000000E-03 0. -1.
    9900012    2    1    2    0    0 -0.97748625849E+01  0.33432049261E+02  0.20974147332E+02  0.50528871718E+02  0.30000036074E+02 0.  0.
         12    1    1    2    0    0  0.97748625849E+01 -0.33432049261E+02 -0.20974147332E+02  0.40659128282E+02  0.00000000000E+00 0. -1.
         11    1    3    3    0    0 -0.43183205915E+01 -0.29397126650E+01  0.11774228629E+01  0.53550096305E+01  0.51100000000E-03 0. -1.
        -11    1    3    3    0    0  0.31240312773E+01  0.19131741283E+02  0.16865150396E+02  0.25694676377E+02  0.51100000000E-03 0.  1.
         12    1    3    3    0    0 -0.85805732707E+01  0.17240020643E+02  0.29315740728E+01  0.19479185711E+02  0.00000000000E+00 0. -1.
</event>
<event>
 7    1  0.2991278E-011  0.5052886E+02  0.7816164E-02  0.1300439E+00
        -11   -1    0    0    0    0  0.00000000000E+00  0.00000000000E+00  0.45593999997E+02  0.45594000000E+02  0.51100000000E-03 0.  1.
         11   -1    0    0    0    0 -0.00000000000E+00 -0.00000000000E+00 -0.45593999997E+02  0.45594000000E+02  0.51100000000E-03 0. -1.
    9900012    2    1    2    0    0 -0.29230336426E+02  0.27342251768E+02  0.71522158543E+01  0.50528862147E+02  0.30000006983E+02 0.  0.
         12    1    1    2    0    0  0.29230336426E+02 -0.27342251768E+02 -0.71522158543E+01  0.40659137853E+02  0.00000000000E+00 0. -1.
         11    1    3    3    0    0 -0.16944412418E+01  0.24718789045E+01 -0.30618529125E+01  0.42844206095E+01  0.51100000000E-03 0. -1.
        -11    1    3    3    0    0 -0.15539718866E+02  0.27361982074E+02  0.12357176378E+02  0.33806223299E+02  0.51100000000E-03 0.  1.
        -12    1    3    3    0    0 -0.11996176318E+02 -0.24916092108E+01 -0.21431076114E+01  0.12438218239E+02  0.00000000000E+00 0.  1.
</event>
<event>
 7    1  0.2991278E-011  0.5052886E+02  0.7816164E-02  0.1300439E+00
        -11   -1    0    0    0    0  0.00000000000E+00  0.00000000000E+00  0.45593999997E+02  0.45594000000E+02  0.51100000000E-03 0. -1.
         11   -1    0    0    0    0 -0.00000000000E+00 -0.00000000000E+00 -0.45593999997E+02  0.45594000000E+02  0.51100000000E-03 0.  1.
    9900012    2    1    2    0    0 -0.12417492807E+02 -0.38697682836E+02 -0.12085337563E+01  0.50528864024E+02  0.30000012687E+02 0.  0.
         12    1    1    2    0    0  0.12417492807E+02  0.38697682836E+02  0.12085337563E+01  0.40659135976E+02  0.00000000000E+00 0. -1.
         11    1    3    3    0    0  0.48774423748E+01 -0.18432059082E+02  0.25044422049E+01  0.19230249014E+02  0.51100000000E-03 0. -1.
        -11    1    3    3    0    0 -0.14321739047E+02 -0.11400875534E+02  0.45035036915E+01  0.18851358519E+02  0.51100000000E-03 0.  1.
        -12    1    3    3    0    0 -0.29731961351E+01 -0.88647482198E+01 -0.82164796528E+01  0.12447256491E+02  0.00000000000E+00 0.  1.
</event>
<event>
 7    1  0.2991278E-011  0.5052886E+02  0.7816164E-02  0.1300439E+00
        -11   -1    0    0    0    0  0.00000000000E+00  0.00000000000E+00  0.45593999997E+02  0.45594000000E+02  0.51100000000E-03 0. -1.
         11   -1    0    0    0    0 -0.00000000000E+00 -0.00000000000E+00 -0.45593999997E+02  0.45594000000E+02  0.51100000000E-03 0.  1.
    9900012    2    1    2    0    0 -0.34121510070E+02  0.17166705416E+02 -0.13935296537E+02  0.50528859406E+02  0.29999998649E+02 0.  0.
         12    1    1    2    0    0  0.34121510070E+02 -0.17166705416E+02  0.13935296537E+02  0.40659140594E+02  0.00000000000E+00 0. -1.
         11    1    3    3    0    0  0.43374837668E+00  0.33983144509E+01  0.50820884181E+01  0.61289723210E+01  0.51100000000E-03 0. -1.
        -11    1    3    3    0    0 -0.23094923272E+02  0.15416147185E+02 -0.17245231123E+02  0.32686863901E+02  0.51100000000E-03 0.  1.
        -12    1    3    3    0    0 -0.11460335175E+02 -0.16477562198E+01 -0.17721538315E+01  0.11713023183E+02  0.00000000000E+00 0.  1.
</event>
<event>
 7    1  0.2991278E-011  0.5052887E+02  0.7816164E-02  0.1300439E+00
        -11   -1    0    0    0    0  0.00000000000E+00  0.00000000000E+00  0.45593999997E+02  0.45594000000E+02  0.51100000000E-03 0.  1.
         11   -1    0    0    0    0 -0.00000000000E+00 -0.00000000000E+00 -0.45593999997E+02  0.45594000000E+02  0.51100000000E-03 0. -1.
    9900012    2    1    2    0    0  0.27858566646E+02  0.29222305562E+02  0.48085574660E+01  0.50528866920E+02  0.30000021489E+02 0.  0.
         12    1    1    2    0    0 -0.27858566646E+02 -0.29222305562E+02 -0.48085574660E+01  0.40659133080E+02  0.00000000000E+00 0. -1.
         11    1    3    3    0    0  0.57036821684E+01  0.11864406420E+02 -0.97769361282E+01  0.16397701372E+02  0.51100000000E-03 0. -1.
        -11    1    3    3    0    0  0.23166772502E+02  0.18000572687E+02  0.14881417497E+02  0.32896451970E+02  0.51100000000E-03 0.  1.
        -12    1    3    3    0    0 -0.10118880251E+01 -0.64267354488E+00 -0.29592390322E+00  0.12347135769E+01  0.00000000000E+00 0.  1.
</event>
<event>
 7    1  0.2991278E-011  0.5052887E+02  0.7816164E-02  0.1300439E+00
        -11   -1    0    0    0    0  0.00000000000E+00  0.00000000000E+00  0.45593999997E+02  0.45594000000E+02  0.51100000000E-03 0.  1.
         11   -1    0    0    0    0 -0.00000000000E+00 -0.00000000000E+00 -0.45593999997E+02  0.45594000000E+02  0.51100000000E-03 0. -1.
    9900012    2    1    2    0    0 -0.18963053369E+02 -0.29171831944E+02  0.21037393853E+02  0.50528866804E+02  0.30000021139E+02 0.  0.
         12    1    1    2    0    0  0.18963053369E+02  0.29171831944E+02 -0.21037393853E+02  0.40659133196E+02  0.00000000000E+00 0. -1.
         11    1    3    3    0    0 -0.85972867175E+01  0.25724665142E+01 -0.10410211141E-01  0.89739083739E+01  0.51100000000E-03 0. -1.
        -11    1    3    3    0    0 -0.65600948227E+01 -0.21787337933E+02  0.20898418090E+02  0.30894446381E+02  0.51100000000E-03 0.  1.
        -12    1    3    3    0    0 -0.38056718293E+01 -0.99569605260E+01  0.14938597447E+00  0.10660512050E+02  0.00000000000E+00 0.  1.
</event>
<event>
 7    1  0.2991278E-011  0.5052884E+02  0.7816164E-02  0.1300439E+00
        -11   -1    0    0    0    0  0.00000000000E+00  0.00000000000E+00  0.45593999997E+02  0.45594000000E+02  0.51100000000E-03 0. -1.
         11   -1    0    0    0    0 -0.00000000000E+00 -0.00000000000E+00 -0.45593999997E+02  0.45594000000E+02  0.51100000000E-03 0.  1.
    9900012    2    1    2    0    0  0.69000359852E+01  0.44953815320E+01 -0.39816430606E+02  0.50528842385E+02  0.29999946914E+02 0.  0.
         12    1    1    2    0    0 -0.69000359852E+01 -0.44953815320E+01  0.39816430606E+02  0.40659157615E+02  0.00000000000E+00 0. -1.
         11    1    3    3    0    0 -0.80801696878E+01  0.68076814882E+01 -0.91715450640E+01  0.13991101049E+02  0.51100000000E-03 0. -1.
        -11    1    3    3    0    0  0.10158140539E+02 -0.13463586515E+01 -0.29845193348E+02  0.31555285882E+02  0.51100000000E-03 0.  1.
        -12    1    3    3    0    0  0.48220651335E+01 -0.96594130480E+00 -0.79969219454E+00  0.49824554551E+01  0.00000000000E+00 0.  1.
</event>
<event>
 7    1  0.2991278E-011  0.5052886E+02  0.7816164E-02  0.1300439E+00
        -11   -1    0    0    0    0  0.00000000000E+00  0.00000000000E+00  0.45593999997E+02  0.45594000000E+02  0.51100000000E-03 0.  1.
         11   -1    0    0    0    0 -0.00000000000E+00 -0.00000000000E+00 -0.45593999997E+02  0.45594000000E+02  0.51100000000E-03 0. -1.
    9900012    2    1    2    0    0  0.30879150657E+02 -0.14198701412E+02  0.22316815247E+02  0.50528864374E+02  0.30000013750E+02 0.  0.
         12    1    1    2    0    0 -0.30879150657E+02  0.14198701412E+02 -0.22316815247E+02  0.40659135626E+02  0.00000000000E+00 0. -1.
         11    1    3    3    0    0  0.15614469891E+02 -0.68401412395E+01 -0.29132974570E+01  0.17294117627E+02  0.51100000000E-03 0. -1.
        -11    1    3    3    0    0  0.15882855187E+02 -0.41429448477E+01  0.25058284712E+02  0.29955745925E+02  0.51100000000E-03 0.  1.
         12    1    3    3    0    0 -0.61817442147E+00 -0.32156153251E+01  0.17182799225E+00  0.32790008224E+01  0.00000000000E+00 0. -1.
</event>
<event>
 7    1  0.2991278E-011  0.5052886E+02  0.7816164E-02  0.1300439E+00
        -11   -1    0    0    0    0  0.00000000000E+00  0.00000000000E+00  0.45593999997E+02  0.45594000000E+02  0.51100000000E-03 0.  1.
         11   -1    0    0    0    0 -0.00000000000E+00 -0.00000000000E+00 -0.45593999997E+02  0.45594000000E+02  0.51100000000E-03 0. -1.
    9900012    2    1    2    0    0  0.27942642950E+02 -0.29398825383E+02 -0.28431560418E+01  0.50528858775E+02  0.29999996732E+02 0.  0.
         12    1    1    2    0    0 -0.27942642950E+02  0.29398825383E+02  0.28431560418E+01  0.40659141225E+02  0.00000000000E+00 0. -1.
         11    1    3    3    0    0  0.10789677756E+02 -0.96648289550E+01 -0.80621143455E+01  0.16577809046E+02  0.51100000000E-03 0. -1.
        -11    1    3    3    0    0  0.16095474120E+02 -0.38412166255E+01  0.69126716133E+01  0.17933328230E+02  0.51100000000E-03 0.  1.
        -12    1    3    3    0    0  0.10574910738E+01 -0.15892779802E+02 -0.16937133096E+01  0.16017721498E+02  0.00000000000E+00 0.  1.
</event>
<event>
 7    1  0.2991278E-011  0.5052886E+02  0.7816164E-02  0.1300439E+00
        -11   -1    0    0    0    0  0.00000000000E+00  0.00000000000E+00  0.45593999997E+02  0.45594000000E+02  0.51100000000E-03 0.  1.
         11   -1    0    0    0    0 -0.00000000000E+00 -0.00000000000E+00 -0.45593999997E+02  0.45594000000E+02  0.51100000000E-03 0. -1.
    9900012    2    1    2    0    0 -0.11481322437E+02  0.34831275564E+02  0.17553549228E+02  0.50528860648E+02  0.30000002426E+02 0.  0.
         12    1    1    2    0    0  0.11481322437E+02 -0.34831275564E+02 -0.17553549228E+02  0.40659139352E+02  0.00000000000E+00 0. -1.
         11    1    3    3    0    0 -0.61150170098E+01  0.23185282137E+01  0.20469806990E+01  0.68526736645E+01  0.51100000000E-03 0. -1.
        -11    1    3    3    0    0  0.29663494189E+01  0.31352238945E+02  0.15850230909E+02  0.35256090763E+02  0.51100000000E-03 0.  1.
        -12    1    3    3    0    0 -0.83326548460E+01  0.11605084058E+01 -0.34366238016E+00  0.84200962212E+01  0.00000000000E+00 0.  1.
</event>
<event>
 7    1  0.2991278E-011  0.5052883E+02  0.7816164E-02  0.1300439E+00
        -11   -1    0    0    0    0  0.00000000000E+00  0.00000000000E+00  0.45593999997E+02  0.45594000000E+02  0.51100000000E-03 0.  1.
         11   -1    0    0    0    0 -0.00000000000E+00 -0.00000000000E+00 -0.45593999997E+02  0.45594000000E+02  0.51100000000E-03 0. -1.
    9900012    2    1    2    0    0  0.10444182331E+02 -0.27473438447E+02  0.28094430930E+02  0.50528833580E+02  0.29999920150E+02 0.  0.
         12    1    1    2    0    0 -0.10444182331E+02  0.27473438447E+02 -0.28094430930E+02  0.40659166420E+02  0.00000000000E+00 0. -1.
         11    1    3    3    0    0  0.92115415843E+01 -0.14165759351E+01 -0.17209542343E+01  0.94773872706E+01  0.51100000000E-03 0. -1.
        -11    1    3    3    0    0  0.29943120164E+01 -0.41782339330E+01  0.10997999601E+02  0.12139997477E+02  0.51100000000E-03 0.  1.
         12    1    3    3    0    0 -0.17616712701E+01 -0.21878628579E+02  0.18817385563E+02  0.28911448833E+02  0.00000000000E+00 0. -1.
</event>
<event>
 7    1  0.2991278E-011  0.5052886E+02  0.7816164E-02  0.1300439E+00
        -11   -1    0    0    0    0  0.00000000000E+00  0.00000000000E+00  0.45593999997E+02  0.45594000000E+02  0.51100000000E-03 0. -1.
         11   -1    0    0    0    0 -0.00000000000E+00 -0.00000000000E+00 -0.45593999997E+02  0.45594000000E+02  0.51100000000E-03 0.  1.
    9900012    2    1    2    0    0 -0.38923779515E+02  0.72271056680E+01 -0.92668061100E+01  0.50528863714E+02  0.30000011745E+02 0.  0.
         12    1    1    2    0    0  0.38923779515E+02 -0.72271056680E+01  0.92668061100E+01  0.40659136286E+02  0.00000000000E+00 0. -1.
         11    1    3    3    0    0 -0.24452554983E+02 -0.45462281414E+01 -0.36464957135E+00  0.24874255870E+02  0.51100000000E-03 0. -1.
        -11    1    3    3    0    0 -0.11336404318E+01  0.84724211889E+01  0.11571602336E+01  0.86258959823E+01  0.51100000000E-03 0.  1.
        -12    1    3    3    0    0 -0.13337584100E+02  0.33009126205E+01 -0.10059316772E+02  0.17028711862E+02  0.00000000000E+00 0.  1.
</event>
<event>
 7    1  0.2991278E-011  0.5052886E+02  0.7816164E-02  0.1300439E+00
        -11   -1    0    0    0    0  0.00000000000E+00  0.00000000000E+00  0.45593999997E+02  0.45594000000E+02  0.51100000000E-03 0. -1.
         11   -1    0    0    0    0 -0.00000000000E+00 -0.00000000000E+00 -0.45593999997E+02  0.45594000000E+02  0.51100000000E-03 0.  1.
    9900012    2    1    2    0    0  0.29056783216E+02 -0.19902649862E+02 -0.20316340248E+02  0.50528858304E+02  0.29999995299E+02 0.  0.
         12    1    1    2    0    0 -0.29056783216E+02  0.19902649862E+02  0.20316340248E+02  0.40659141696E+02  0.00000000000E+00 0. -1.
         11    1    3    3    0    0 -0.92476540092E+00 -0.92929838248E+01 -0.11216364573E+02  0.14595258611E+02  0.51100000000E-03 0. -1.
        -11    1    3    3    0    0  0.17293005244E+02 -0.13234011440E+02 -0.49896839143E+01  0.22340188786E+02  0.51100000000E-03 0.  1.
         12    1    3    3    0    0  0.12688543373E+02  0.26243454029E+01 -0.41102917612E+01  0.13593410907E+02  0.00000000000E+00 0. -1.
</event>
<event>
 7    1  0.2991278E-011  0.5052886E+02  0.7816164E-02  0.1300439E+00
        -11   -1    0    0    0    0  0.00000000000E+00  0.00000000000E+00  0.45593999997E+02  0.45594000000E+02  0.51100000000E-03 0.  1.
         11   -1    0    0    0    0 -0.00000000000E+00 -0.00000000000E+00 -0.45593999997E+02  0.45594000000E+02  0.51100000000E-03 0. -1.
    9900012    2    1    2    0    0  0.44926132302E+01 -0.21836334802E+02  0.34002307994E+02  0.50528855393E+02  0.29999986454E+02 0.  0.
         12    1    1    2    0    0 -0.44926132302E+01  0.21836334802E+02 -0.34002307994E+02  0.40659144607E+02  0.00000000000E+00 0. -1.
         11    1    3    3    0    0  0.12681717713E+02 -0.52074915285E+01  0.18916596492E+02  0.23361968138E+02  0.51100000000E-03 0. -1.
        -11    1    3    3    0    0 -0.77318626719E+01 -0.18371318900E+02  0.11150698166E+02  0.22839114001E+02  0.51100000000E-03 0.  1.
        -12    1    3    3    0    0 -0.45724181112E+00  0.17424756268E+01  0.39350133360E+01  0.43277732540E+01  0.00000000000E+00 0.  1.
</event>
<event>
 7    1  0.3125581E-011  0.5052886E+02  0.7816164E-02  0.1300439E+00
        -11   -1    0    0    0    0  0.00000000000E+00  0.00000000000E+00  0.45593999997E+02  0.45594000000E+02  0.51100000000E-03 0.  1.
         11   -1    0    0    0    0 -0.00000000000E+00 -0.00000000000E+00 -0.45593999997E+02  0.45594000000E+02  0.51100000000E-03 0. -1.
    9900012    2    1    2    0    0 -0.40478679666E+02 -0.32783626548E+01 -0.19735395227E+01  0.50528855550E+02  0.29999986929E+02 0.  0.
         12    1    1    2    0    0  0.40478679666E+02  0.32783626548E+01  0.19735395227E+01  0.40659144450E+02  0.00000000000E+00 0. -1.
         11    1    3    3    0    0  0.31866866391E+01  0.19310501585E-01  0.23971357115E+01  0.39876815961E+01  0.51100000000E-03 0. -1.
        -11    1    3    3    0    0 -0.32818313422E+02 -0.62496568906E+00  0.33000252710E+01  0.32989732419E+02  0.51100000000E-03 0.  1.
        -12    1    3    3    0    0 -0.10847052882E+02 -0.26727074674E+01 -0.76707005052E+01  0.13551441535E+02  0.00000000000E+00 0.  1.
</event>
<event>
 7    1  0.2991278E-011  0.5052887E+02  0.7816164E-02  0.1300439E+00
        -11   -1    0    0    0    0  0.00000000000E+00  0.00000000000E+00  0.45593999997E+02  0.45594000000E+02  0.51100000000E-03 0.  1.
         11   -1    0    0    0    0 -0.00000000000E+00 -0.00000000000E+00 -0.45593999997E+02  0.45594000000E+02  0.51100000000E-03 0. -1.
    9900012    2    1    2    0    0  0.21587453369E+02  0.34393245172E+02 -0.20619576451E+01  0.50528866638E+02  0.30000020632E+02 0.  0.
         12    1    1    2    0    0 -0.21587453369E+02 -0.34393245172E+02  0.20619576451E+01  0.40659133362E+02  0.00000000000E+00 0. -1.
         11    1    3    3    0    0  0.21685223854E-01 -0.22112173739E+01  0.41394949265E+01  0.46931195415E+01  0.51100000000E-03 0. -1.
        -11    1    3    3    0    0  0.13150564146E+02  0.30108324962E+02  0.12085996543E+01  0.32877184836E+02  0.51100000000E-03 0.  1.
         12    1    3    3    0    0  0.84152039990E+01  0.64961375842E+01 -0.74100522258E+01  0.12958562260E+02  0.00000000000E+00 0. -1.
</event>
<event>
 7    1  0.2991278E-011  0.5052885E+02  0.7816164E-02  0.1300439E+00
        -11   -1    0    0    0    0  0.00000000000E+00  0.00000000000E+00  0.45593999997E+02  0.45594000000E+02  0.51100000000E-03 0. -1.
         11   -1    0    0    0    0 -0.00000000000E+00 -0.00000000000E+00 -0.45593999997E+02  0.45594000000E+02  0.51100000000E-03 0.  1.
    9900012    2    1    2    0    0 -0.10650235352E+02 -0.23799409406E+02 -0.31198187773E+02  0.50528851934E+02  0.29999975939E+02 0.  0.
         12    1    1    2    0    0  0.10650235352E+02  0.23799409406E+02  0.31198187773E+02  0.40659148066E+02  0.00000000000E+00 0. -1.
         11    1    3    3    0    0 -0.13816661663E+01 -0.10407850589E+02  0.38246066045E+00  0.10506123534E+02  0.51100000000E-03 0. -1.
        -11    1    3    3    0    0  0.28232221415E+01 -0.97538428951E+01 -0.21806249404E+02  0.24054532792E+02  0.51100000000E-03 0.  1.
        -12    1    3    3    0    0 -0.12091791327E+02 -0.36377159218E+01 -0.97743990287E+01  0.15968195609E+02  0.00000000000E+00 0.  1.
</event>
<event>
 7    1  0.2991278E-011  0.5052886E+02  0.7816164E-02  0.1300439E+00
        -11   -1    0    0    0    0  0.00000000000E+00  0.00000000000E+00  0.45593999997E+02  0.45594000000E+02  0.51100000000E-03 0.  1.
         11   -1    0    0    0    0 -0.00000000000E+00 -0.00000000000E+00 -0.45593999997E+02  0.45594000000E+02  0.51100000000E-03 0. -1.
    9900012    2    1    2    0    0 -0.10485760999E+02  0.30985757307E+02  0.24147409174E+02  0.50528859460E+02  0.29999998815E+02 0.  0.
         12    1    1    2    0    0  0.10485760999E+02 -0.30985757307E+02 -0.24147409174E+02  0.40659140540E+02  0.00000000000E+00 0. -1.
         11    1    3    3    0    0 -0.58734189126E+01  0.19263379092E+02  0.39017365474E+01  0.20513370569E+02  0.51100000000E-03 0. -1.
        -11    1    3    3    0    0 -0.20878397043E+01  0.14936905625E+02  0.21004365244E+02  0.25858336834E+02  0.51100000000E-03 0.  1.
         12    1    3    3    0    0 -0.25245023818E+01 -0.32145274092E+01 -0.75869261699E+00  0.41571520573E+01  0.00000000000E+00 0. -1.
</event>
<event>
 7    1  0.2991278E-011  0.5052886E+02  0.7816164E-02  0.1300439E+00
        -11   -1    0    0    0    0  0.00000000000E+00  0.00000000000E+00  0.45593999997E+02  0.45594000000E+02  0.51100000000E-03 0. -1.
         11   -1    0    0    0    0 -0.00000000000E+00 -0.00000000000E+00 -0.45593999997E+02  0.45594000000E+02  0.51100000000E-03 0.  1.
    9900012    2    1    2    0    0 -0.17041042850E+02  0.29008514948E+02 -0.22831431638E+02  0.50528863861E+02  0.30000012192E+02 0.  0.
         12    1    1    2    0    0  0.17041042850E+02 -0.29008514948E+02  0.22831431638E+02  0.40659136139E+02  0.00000000000E+00 0. -1.
         11    1    3    3    0    0  0.30497452870E+01  0.17139345863E+02 -0.45885913847E+01  0.18003146783E+02  0.51100000000E-03 0. -1.
        -11    1    3    3    0    0 -0.21293379181E+02  0.13251407857E+02 -0.16709748871E+02  0.30136746917E+02  0.51100000000E-03 0.  1.
         12    1    3    3    0    0  0.12025910442E+01 -0.13822387722E+01 -0.15330913825E+01  0.23889701610E+01  0.00000000000E+00 0. -1.
</event>
<event>
 7    1  0.2991278E-011  0.5052885E+02  0.7816164E-02  0.1300439E+00
        -11   -1    0    0    0    0  0.00000000000E+00  0.00000000000E+00  0.45593999997E+02  0.45594000000E+02  0.51100000000E-03 0. -1.
         11   -1    0    0    0    0 -0.00000000000E+00 -0.00000000000E+00 -0.45593999997E+02  0.45594000000E+02  0.51100000000E-03 0.  1.
    9900012    2    1    2    0    0 -0.43956355718E+01 -0.10038894016E+02 -0.39154377363E+02  0.50528852544E+02  0.29999977793E+02 0.  0.
         12    1    1    2    0    0  0.43956355718E+01  0.10038894016E+02  0.39154377363E+02  0.40659147456E+02  0.00000000000E+00 0. -1.
         11    1    3    3    0    0  0.15928090354E+01 -0.14837799274E+02 -0.84282231303E+01  0.17138619353E+02  0.51100000000E-03 0. -1.
        -11    1    3    3    0    0  0.22231930941E+01  0.28872178138E+01 -0.42205899614E+01  0.55760195589E+01  0.51100000000E-03 0.  1.
         12    1    3    3    0    0 -0.82116377014E+01  0.19116874444E+01 -0.26505564271E+02  0.27814213632E+02  0.00000000000E+00 0. -1.
</event>
<event>
 7    1  0.2991278E-011  0.5052887E+02  0.7816164E-02  0.1300439E+00
        -11   -1    0    0    0    0  0.00000000000E+00  0.00000000000E+00  0.45593999997E+02  0.45594000000E+02  0.51100000000E-03 0.  1.
         11   -1    0    0    0    0 -0.00000000000E+00 -0.00000000000E+00 -0.45593999997E+02  0.45594000000E+02  0.51100000000E-03 0. -1.
    9900012    2    1    2    0    0  0.38553653294E+02  0.12832682757E+02 -0.14501697604E+01  0.50528869151E+02  0.30000028272E+02 0.  0.
         12    1    1    2    0    0 -0.38553653294E+02 -0.12832682757E+02  0.14501697604E+01  0.40659130849E+02  0.00000000000E+00 0. -1.
         11    1    3    3    0    0  0.44035868136E+01  0.11616969592E+02  0.55085218029E+00  0.12435795017E+02  0.51100000000E-03 0. -1.
        -11    1    3    3    0    0  0.34631299574E+02  0.77933416242E+00  0.13630289907E+01  0.34666873528E+02  0.51100000000E-03 0.  1.
        -12    1    3    3    0    0 -0.48123309412E+00  0.43637900331E+00 -0.33640509314E+01  0.34262006063E+01  0.00000000000E+00 0.  1.
</event>
<event>
 7    1  0.2991278E-011  0.5052883E+02  0.7816164E-02  0.1300439E+00
        -11   -1    0    0    0    0  0.00000000000E+00  0.00000000000E+00  0.45593999997E+02  0.45594000000E+02  0.51100000000E-03 0.  1.
         11   -1    0    0    0    0 -0.00000000000E+00 -0.00000000000E+00 -0.45593999997E+02  0.45594000000E+02  0.51100000000E-03 0. -1.
    9900012    2    1    2    0    0 -0.92885445322E+01  0.13133074084E+02  0.37341843165E+02  0.50528831964E+02  0.29999915238E+02 0.  0.
         12    1    1    2    0    0  0.92885445322E+01 -0.13133074084E+02 -0.37341843165E+02  0.40659168036E+02  0.00000000000E+00 0. -1.
         11    1    3    3    0    0  0.58356492171E+01  0.79225525068E+01  0.18882714444E+01  0.10019341761E+02  0.51100000000E-03 0. -1.
        -11    1    3    3    0    0 -0.62717356360E+01  0.80932769565E+01  0.19988644677E+02  0.22458444204E+02  0.51100000000E-03 0.  1.
         12    1    3    3    0    0 -0.88524581133E+01 -0.28827553790E+01  0.15464927043E+02  0.18051045999E+02  0.00000000000E+00 0. -1.
</event>
<event>
 7    1  0.2991278E-011  0.5052883E+02  0.7816164E-02  0.1300439E+00
        -11   -1    0    0    0    0  0.00000000000E+00  0.00000000000E+00  0.45593999997E+02  0.45594000000E+02  0.51100000000E-03 0.  1.
         11   -1    0    0    0    0 -0.00000000000E+00 -0.00000000000E+00 -0.45593999997E+02  0.45594000000E+02  0.51100000000E-03 0. -1.
    9900012    2    1    2    0    0  0.19563875621E+02  0.13761883946E+02  0.32879067787E+02  0.50528834027E+02  0.29999921509E+02 0.  0.
         12    1    1    2    0    0 -0.19563875621E+02 -0.13761883946E+02 -0.32879067787E+02  0.40659165973E+02  0.00000000000E+00 0. -1.
         11    1    3    3    0    0 -0.80601119498E+00  0.41831453027E+01  0.25821759477E+00  0.42679075971E+01  0.51100000000E-03 0. -1.
        -11    1    3    3    0    0  0.22670327740E+02  0.18020066573E+01  0.16122129122E+02  0.27876765155E+02  0.51100000000E-03 0.  1.
        -12    1    3    3    0    0 -0.23004409238E+01  0.77767319862E+01  0.16498721070E+02  0.18384161275E+02  0.00000000000E+00 0.  1.
</event>
<event>
 7    1  0.2991278E-011  0.5052886E+02  0.7816164E-02  0.1300439E+00
        -11   -1    0    0    0    0  0.00000000000E+00  0.00000000000E+00  0.45593999997E+02  0.45594000000E+02  0.51100000000E-03 0.  1.
         11   -1    0    0    0    0 -0.00000000000E+00 -0.00000000000E+00 -0.45593999997E+02  0.45594000000E+02  0.51100000000E-03 0. -1.
    9900012    2    1    2    0    0 -0.23103052304E+02 -0.30884019201E+02 -0.12868252798E+02  0.50528860832E+02  0.30000002986E+02 0.  0.
         12    1    1    2    0    0  0.23103052304E+02  0.30884019201E+02  0.12868252798E+02  0.40659139168E+02  0.00000000000E+00 0. -1.
         11    1    3    3    0    0 -0.28213353341E+01  0.41771015816E+01 -0.29985297876E+01  0.58650909489E+01  0.51100000000E-03 0. -1.
        -11    1    3    3    0    0 -0.21940961227E+02 -0.24887752530E+02 -0.86246830575E+01  0.34281061297E+02  0.51100000000E-03 0.  1.
        -12    1    3    3    0    0  0.16592442562E+01 -0.10173368253E+02 -0.12450399525E+01  0.10382708586E+02  0.00000000000E+00 0.  1.
</event>
<event>
 7    1  0.2991278E-011  0.5052884E+02  0.7816164E-02  0.1300439E+00
        -11   -1    0    0    0    0  0.00000000000E+00  0.00000000000E+00  0.45593999997E+02  0.45594000000E+02  0.51100000000E-03 0.  1.
         11   -1    0    0    0    0 -0.00000000000E+00 -0.00000000000E+00 -0.45593999997E+02  0.45594000000E+02  0.51100000000E-03 0. -1.
    9900012    2    1    2    0    0  0.33051598485E+02  0.23561218229E+02  0.23722824950E+01  0.50528844929E+02  0.29999954646E+02 0.  0.
         12    1    1    2    0    0 -0.33051598485E+02 -0.23561218229E+02 -0.23722824950E+01  0.40659155071E+02  0.00000000000E+00 0. -1.
         11    1    3    3    0    0  0.42646178950E+01 -0.21967305311E+01 -0.52889860430E+01  0.71404456752E+01  0.51100000000E-03 0. -1.
        -11    1    3    3    0    0  0.19141821666E+02  0.26551449735E+02  0.37348102513E+01  0.32944462777E+02  0.51100000000E-03 0.  1.
        -12    1    3    3    0    0  0.96451589237E+01 -0.79350097488E+00  0.39264582867E+01  0.10443936477E+02  0.00000000000E+00 0.  1.
</event>
<event>
 7    1  0.2991278E-011  0.5052886E+02  0.7816164E-02  0.1300439E+00
        -11   -1    0    0    0    0  0.00000000000E+00  0.00000000000E+00  0.45593999997E+02  0.45594000000E+02  0.51100000000E-03 0.  1.
         11   -1    0    0    0    0 -0.00000000000E+00 -0.00000000000E+00 -0.45593999997E+02  0.45594000000E+02  0.51100000000E-03 0. -1.
    9900012    2    1    2    0    0 -0.40062684577E+01  0.22674371211E+01  0.40397702344E+02  0.50528858190E+02  0.29999994954E+02 0.  0.
         12    1    1    2    0    0  0.40062684577E+01 -0.22674371211E+01 -0.40397702344E+02  0.40659141810E+02  0.00000000000E+00 0. -1.
         11    1    3    3    0    0 -0.41918715518E+01 -0.51745072266E+01  0.99661723115E+01  0.11986321494E+02  0.51100000000E-03 0. -1.
        -11    1    3    3    0    0  0.90370334204E+01  0.77347442732E+01  0.26101969920E+02  0.28684613924E+02  0.51100000000E-03 0.  1.
        -12    1    3    3    0    0 -0.88514303262E+01 -0.29279992557E+00  0.43295601129E+01  0.98579227724E+01  0.00000000000E+00 0.  1.
</event>
<event>
 7    1  0.2991278E-011  0.5052886E+02  0.7816164E-02  0.1300439E+00
        -11   -1    0    0    0    0  0.00000000000E+00  0.00000000000E+00  0.45593999997E+02  0.45594000000E+02  0.51100000000E-03 0.  1.
         11   -1    0    0    0    0 -0.00000000000E+00 -0.00000000000E+00 -0.45593999997E+02  0.45594000000E+02  0.51100000000E-03 0. -1.
    9900012    2    1    2    0    0 -0.14385857972E+02 -0.31365748684E+02  0.21503554351E+02  0.50528856504E+02  0.29999989830E+02 0.  0.
         12    1    1    2    0    0  0.14385857972E+02  0.31365748684E+02 -0.21503554351E+02  0.40659143496E+02  0.00000000000E+00 0. -1.
         11    1    3    3    0    0 -0.11224065270E+01 -0.56939522450E+01  0.19621355725E+02  0.20461634571E+02  0.51100000000E-03 0. -1.
        -11    1    3    3    0    0 -0.41003405124E+01 -0.37463852632E+01 -0.21664127847E+01  0.59616725399E+01  0.51100000000E-03 0.  1.
         12    1    3    3    0    0 -0.91631109321E+01 -0.21925411176E+02  0.40486114112E+01  0.24105549393E+02  0.00000000000E+00 0. -1.
</event>
<event>
 7    1  0.2991278E-011  0.5052884E+02  0.7816164E-02  0.1300439E+00
        -11   -1    0    0    0    0  0.00000000000E+00  0.00000000000E+00  0.45593999997E+02  0.45594000000E+02  0.51100000000E-03 0. -1.
         11   -1    0    0    0    0 -0.00000000000E+00 -0.00000000000E+00 -0.45593999997E+02  0.45594000000E+02  0.51100000000E-03 0.  1.
    9900012    2    1    2    0    0 -0.29629670126E+02 -0.14607874973E+02 -0.23703587568E+02  0.50528838344E+02  0.29999934630E+02 0.  0.
         12    1    1    2    0    0  0.29629670126E+02  0.14607874973E+02  0.23703587568E+02  0.40659161656E+02  0.00000000000E+00 0. -1.
         11    1    3    3    0    0 -0.22591646546E+02  0.28583088252E+01 -0.40182057542E+01  0.23123546457E+02  0.51100000000E-03 0. -1.
        -11    1    3    3    0    0 -0.30824121629E+00 -0.25169185601E+01 -0.38646304096E+01  0.46222570406E+01  0.51100000000E-03 0.  1.
         12    1    3    3    0    0 -0.67297823634E+01 -0.14949265238E+02 -0.15820751404E+02  0.22783034846E+02  0.00000000000E+00 0. -1.
</event>
<event>
 7    1  0.2991278E-011  0.5052886E+02  0.7816164E-02  0.1300439E+00
        -11   -1    0    0    0    0  0.00000000000E+00  0.00000000000E+00  0.45593999997E+02  0.45594000000E+02  0.51100000000E-03 0.  1.
         11   -1    0    0    0    0 -0.00000000000E+00 -0.00000000000E+00 -0.45593999997E+02  0.45594000000E+02  0.51100000000E-03 0. -1.
    9900012    2    1    2    0    0  0.10185111476E+00  0.52485479908E+01  0.40318831536E+02  0.50528858272E+02  0.29999995203E+02 0.  0.
         12    1    1    2    0    0 -0.10185111476E+00 -0.52485479908E+01 -0.40318831536E+02  0.40659141728E+02  0.00000000000E+00 0. -1.
         11    1    3    3    0    0 -0.13889918381E+02 -0.11284149784E+01  0.14221731804E+02  0.19911323632E+02  0.51100000000E-03 0. -1.
        -11    1    3    3    0    0  0.10817636504E+02  0.54465284095E+01  0.23404147071E+02  0.26352230107E+02  0.51100000000E-03 0.  1.
         12    1    3    3    0    0  0.31741329918E+01  0.93043455972E+00  0.26929526612E+01  0.42653045325E+01  0.00000000000E+00 0. -1.
</event>
<event>
 7    1  0.2991278E-011  0.5052883E+02  0.7816164E-02  0.1300439E+00
        -11   -1    0    0    0    0  0.00000000000E+00  0.00000000000E+00  0.45593999997E+02  0.45594000000E+02  0.51100000000E-03 0.  1.
         11   -1    0    0    0    0 -0.00000000000E+00 -0.00000000000E+00 -0.45593999997E+02  0.45594000000E+02  0.51100000000E-03 0. -1.
    9900012    2    1    2    0    0  0.21563079118E+02 -0.14323150970E+02  0.31353617934E+02  0.50528826468E+02  0.29999898531E+02 0.  0.
         12    1    1    2    0    0 -0.21563079118E+02  0.14323150970E+02 -0.31353617934E+02  0.40659173532E+02  0.00000000000E+00 0. -1.
         11    1    3    3    0    0  0.60662046166E+01 -0.41364187328E+01 -0.45718472118E+01  0.86493112773E+01  0.51100000000E-03 0. -1.
        -11    1    3    3    0    0  0.11543555336E+02 -0.16801830284E+01  0.15464184372E+02  0.19370536476E+02  0.51100000000E-03 0.  1.
         12    1    3    3    0    0  0.39533191652E+01 -0.85065492085E+01  0.20461280774E+02  0.22508978715E+02  0.00000000000E+00 0. -1.
</event>
<event>
 7    1  0.2991278E-011  0.5052886E+02  0.7816164E-02  0.1300439E+00
        -11   -1    0    0    0    0  0.00000000000E+00  0.00000000000E+00  0.45593999997E+02  0.45594000000E+02  0.51100000000E-03 0.  1.
         11   -1    0    0    0    0 -0.00000000000E+00 -0.00000000000E+00 -0.45593999997E+02  0.45594000000E+02  0.51100000000E-03 0. -1.
    9900012    2    1    2    0    0 -0.33749929688E+02  0.13055972378E+02 -0.18537786316E+02  0.50528859697E+02  0.29999999536E+02 0.  0.
         12    1    1    2    0    0  0.33749929688E+02 -0.13055972378E+02  0.18537786316E+02  0.40659140303E+02  0.00000000000E+00 0. -1.
         11    1    3    3    0    0 -0.16294292019E+02 -0.33116229641E+01  0.33988624866E+00  0.16630884582E+02  0.51100000000E-03 0. -1.
        -11    1    3    3    0    0 -0.17872980402E+02  0.16582522060E+02 -0.12307646576E+02  0.27311199732E+02  0.51100000000E-03 0.  1.
         12    1    3    3    0    0  0.41734273330E+00 -0.21492671800E+00 -0.65700259885E+01  0.65867753826E+01  0.00000000000E+00 0. -1.
</event>
<event>
 7    1  0.2991278E-011  0.5052885E+02  0.7816164E-02  0.1300439E+00
        -11   -1    0    0    0    0  0.00000000000E+00  0.00000000000E+00  0.45593999997E+02  0.45594000000E+02  0.51100000000E-03 0.  1.
         11   -1    0    0    0    0 -0.00000000000E+00 -0.00000000000E+00 -0.45593999997E+02  0.45594000000E+02  0.51100000000E-03 0. -1.
    9900012    2    1    2    0    0  0.19477761552E+02  0.20394159844E+02  0.29289268013E+02  0.50528853777E+02  0.29999981541E+02 0.  0.
         12    1    1    2    0    0 -0.19477761552E+02 -0.20394159844E+02 -0.29289268013E+02  0.40659146223E+02  0.00000000000E+00 0. -1.
         11    1    3    3    0    0  0.92852730595E+01 -0.39694036568E+01  0.38017996043E+01  0.10790094609E+02  0.51100000000E-03 0. -1.
        -11    1    3    3    0    0 -0.24545396807E+01  0.48269628598E+01  0.11172806053E+02  0.12415954690E+02  0.51100000000E-03 0.  1.
         12    1    3    3    0    0  0.12647028173E+02  0.19536600641E+02  0.14314662356E+02  0.27322804479E+02  0.00000000000E+00 0. -1.
</event>
<event>
 7    1  0.2991278E-011  0.5052886E+02  0.7816164E-02  0.1300439E+00
        -11   -1    0    0    0    0  0.00000000000E+00  0.00000000000E+00  0.45593999997E+02  0.45594000000E+02  0.51100000000E-03 0.  1.
         11   -1    0    0    0    0 -0.00000000000E+00 -0.00000000000E+00 -0.45593999997E+02  0.45594000000E+02  0.51100000000E-03 0. -1.
    9900012    2    1    2    0    0 -0.15207982600E+02 -0.85205215643E+01  0.36732598748E+02  0.50528857937E+02  0.29999994187E+02 0.  0.
         12    1    1    2    0    0  0.15207982600E+02  0.85205215643E+01 -0.36732598748E+02  0.40659142063E+02  0.00000000000E+00 0. -1.
         11    1    3    3    0    0 -0.61842268017E+01  0.28128641531E+01 -0.28195901901E+01  0.73557429930E+01  0.51100000000E-03 0. -1.
        -11    1    3    3    0    0 -0.10208391875E+02 -0.11399383028E+02  0.31346479033E+02  0.34882071988E+02  0.51100000000E-03 0.  1.
         12    1    3    3    0    0  0.11846360765E+01  0.65997310385E-01  0.82057099044E+01  0.82910429570E+01  0.00000000000E+00 0. -1.
</event>
<event>
 7    1  0.2991278E-011  0.5052884E+02  0.7816164E-02  0.1300439E+00
        -11   -1    0    0    0    0  0.00000000000E+00  0.00000000000E+00  0.45593999997E+02  0.45594000000E+02  0.51100000000E-03 0.  1.
         11   -1    0    0    0    0 -0.00000000000E+00 -0.00000000000E+00 -0.45593999997E+02  0.45594000000E+02  0.51100000000E-03 0. -1.
    9900012    2    1    2    0    0  0.25318483568E+02 -0.27945951675E+02  0.15204138323E+02  0.50528835629E+02  0.29999926379E+02 0.  0.
         12    1    1    2    0    0 -0.25318483568E+02  0.27945951675E+02 -0.15204138323E+02  0.40659164371E+02  0.00000000000E+00 0. -1.
         11    1    3    3    0    0  0.10226905637E+02 -0.25002577605E+02  0.19063858723E+02  0.33062806830E+02  0.51100000000E-03 0. -1.
        -11    1    3    3    0    0  0.64030967658E+01 -0.47515318932E+00  0.19696102464E+01  0.67160094945E+01  0.51100000000E-03 0.  1.
         12    1    3    3    0    0  0.86884811645E+01 -0.24682208802E+01 -0.58293306469E+01  0.10750019305E+02  0.00000000000E+00 0. -1.
</event>
<event>
 7    1  0.2991278E-011  0.5052898E+02  0.7816164E-02  0.1300438E+00
        -11   -1    0    0    0    0  0.00000000000E+00  0.00000000000E+00  0.45593999997E+02  0.45594000000E+02  0.51100000000E-03 0.  1.
         11   -1    0    0    0    0 -0.00000000000E+00 -0.00000000000E+00 -0.45593999997E+02  0.45594000000E+02  0.51100000000E-03 0. -1.
    9900012    2    1    2    0    0 -0.31960083483E+02  0.15377559325E+02  0.19880634660E+02  0.50528980072E+02  0.30000365424E+02 0.  0.
         12    1    1    2    0    0  0.31960083483E+02 -0.15377559325E+02 -0.19880634660E+02  0.40659019928E+02  0.00000000000E+00 0. -1.
         11    1    3    3    0    0 -0.41722738146E+00  0.80328993804E+01 -0.51864257305E+01  0.95708183172E+01  0.51100000000E-03 0. -1.
        -11    1    3    3    0    0 -0.18356024179E+02  0.39993771101E+01  0.14634766857E+02  0.23814177335E+02  0.51100000000E-03 0.  1.
         12    1    3    3    0    0 -0.13186831923E+02  0.33452828350E+01  0.10432293534E+02  0.17143984420E+02  0.00000000000E+00 0. -1.
</event>
<event>
 7    1  0.2991278E-011  0.5052886E+02  0.7816164E-02  0.1300439E+00
        -11   -1    0    0    0    0  0.00000000000E+00  0.00000000000E+00  0.45593999997E+02  0.45594000000E+02  0.51100000000E-03 0.  1.
         11   -1    0    0    0    0 -0.00000000000E+00 -0.00000000000E+00 -0.45593999997E+02  0.45594000000E+02  0.51100000000E-03 0. -1.
    9900012    2    1    2    0    0 -0.42343137208E+00 -0.59065154140E+01  0.40225603499E+02  0.50528863323E+02  0.30000010555E+02 0.  0.
         12    1    1    2    0    0  0.42343137208E+00  0.59065154140E+01 -0.40225603499E+02  0.40659136677E+02  0.00000000000E+00 0. -1.
         11    1    3    3    0    0 -0.10925819479E+02 -0.11341530253E+02  0.21266049936E+02  0.26462213058E+02  0.51100000000E-03 0. -1.
        -11    1    3    3    0    0  0.11171507978E+02  0.20345271063E+01  0.14716656761E+02  0.18588218783E+02  0.51100000000E-03 0.  1.
         12    1    3    3    0    0 -0.66911987044E+00  0.34004877329E+01  0.42428968022E+01  0.54784314815E+01  0.00000000000E+00 0. -1.
</event>
<event>
 7    1  0.2991278E-011  0.5052886E+02  0.7816164E-02  0.1300439E+00
        -11   -1    0    0    0    0  0.00000000000E+00  0.00000000000E+00  0.45593999997E+02  0.45594000000E+02  0.51100000000E-03 0.  1.
         11   -1    0    0    0    0 -0.00000000000E+00 -0.00000000000E+00 -0.45593999997E+02  0.45594000000E+02  0.51100000000E-03 0. -1.
    9900012    2    1    2    0    0 -0.14913548617E+02  0.36626095727E+02 -0.94488686295E+01  0.50528856638E+02  0.29999990237E+02 0.  0.
         12    1    1    2    0    0  0.14913548617E+02 -0.36626095727E+02  0.94488686295E+01  0.40659143362E+02  0.00000000000E+00 0. -1.
         11    1    3    3    0    0  0.81067035490E+00  0.24622890957E+02 -0.15910773722E+02  0.29327404696E+02  0.51100000000E-03 0. -1.
        -11    1    3    3    0    0 -0.10832174898E+02  0.83876965141E+01  0.63924474447E+01  0.15117964493E+02  0.51100000000E-03 0.  1.
         12    1    3    3    0    0 -0.48920440741E+01  0.36155082555E+01  0.69457648293E-01  0.60834874483E+01  0.00000000000E+00 0. -1.
</event>
<event>
 7    1  0.2991278E-011  0.5052887E+02  0.7816164E-02  0.1300439E+00
        -11   -1    0    0    0    0  0.00000000000E+00  0.00000000000E+00  0.45593999997E+02  0.45594000000E+02  0.51100000000E-03 0.  1.
         11   -1    0    0    0    0 -0.00000000000E+00 -0.00000000000E+00 -0.45593999997E+02  0.45594000000E+02  0.51100000000E-03 0. -1.
    9900012    2    1    2    0    0 -0.35821456496E+02  0.17560785656E+02 -0.78490315508E+01  0.50528865298E+02  0.30000016561E+02 0.  0.
         12    1    1    2    0    0  0.35821456496E+02 -0.17560785656E+02  0.78490315508E+01  0.40659134702E+02  0.00000000000E+00 0. -1.
         11    1    3    3    0    0 -0.20702894096E+02  0.42629745608E+01  0.61279076479E+01  0.22007590246E+02  0.51100000000E-03 0. -1.
        -11    1    3    3    0    0 -0.34589846367E+01  0.91873811948E+01 -0.12758902516E+02  0.16098513646E+02  0.51100000000E-03 0.  1.
        -12    1    3    3    0    0 -0.11659577764E+02  0.41104299005E+01 -0.12180366832E+01  0.12422761407E+02  0.00000000000E+00 0.  1.
</event>
<event>
 7    1  0.2991278E-011  0.5052886E+02  0.7816164E-02  0.1300439E+00
        -11   -1    0    0    0    0  0.00000000000E+00  0.00000000000E+00  0.45593999997E+02  0.45594000000E+02  0.51100000000E-03 0. -1.
         11   -1    0    0    0    0 -0.00000000000E+00 -0.00000000000E+00 -0.45593999997E+02  0.45594000000E+02  0.51100000000E-03 0.  1.
    9900012    2    1    2    0    0 -0.27019163482E+02 -0.30238500782E+02 -0.29603329164E+01  0.50528859628E+02  0.29999999325E+02 0.  0.
         12    1    1    2    0    0  0.27019163482E+02  0.30238500782E+02  0.29603329164E+01  0.40659140372E+02  0.00000000000E+00 0. -1.
         11    1    3    3    0    0 -0.75151658358E+01 -0.92928422884E+01  0.76751961604E+01  0.14203635862E+02  0.51100000000E-03 0. -1.
        -11    1    3    3    0    0 -0.68396883671E+01 -0.16319904511E+01 -0.11198185954E+02  0.13222862728E+02  0.51100000000E-03 0.  1.
        -12    1    3    3    0    0 -0.12664309279E+02 -0.19313668043E+02  0.56265687744E+00  0.23102361038E+02  0.00000000000E+00 0.  1.
</event>
<event>
 7    1  0.2991278E-011  0.5052887E+02  0.7816164E-02  0.1300439E+00
        -11   -1    0    0    0    0  0.00000000000E+00  0.00000000000E+00  0.45593999997E+02  0.45594000000E+02  0.51100000000E-03 0.  1.
         11   -1    0    0    0    0 -0.00000000000E+00 -0.00000000000E+00 -0.45593999997E+02  0.45594000000E+02  0.51100000000E-03 0. -1.
    9900012    2    1    2    0    0 -0.13478899159E+02 -0.14232601230E+02  0.35621864508E+02  0.50528869521E+02  0.30000029396E+02 0.  0.
         12    1    1    2    0    0  0.13478899159E+02  0.14232601230E+02 -0.35621864508E+02  0.40659130479E+02  0.00000000000E+00 0. -1.
         11    1    3    3    0    0 -0.10179188092E+02  0.29216405409E+01  0.18361674063E+01  0.10748179598E+02  0.51100000000E-03 0. -1.
        -11    1    3    3    0    0 -0.20714462428E+01 -0.28072720912E+01  0.18320596405E+02  0.18649823565E+02  0.51100000000E-03 0.  1.
         12    1    3    3    0    0 -0.12282648241E+01 -0.14346969679E+02  0.15465100697E+02  0.21130866358E+02  0.00000000000E+00 0. -1.
</event>
<event>
 7    1  0.2991278E-011  0.5052886E+02  0.7816164E-02  0.1300439E+00
        -11   -1    0    0    0    0  0.00000000000E+00  0.00000000000E+00  0.45593999997E+02  0.45594000000E+02  0.51100000000E-03 0. -1.
         11   -1    0    0    0    0 -0.00000000000E+00 -0.00000000000E+00 -0.45593999997E+02  0.45594000000E+02  0.51100000000E-03 0.  1.
    9900012    2    1    2    0    0  0.36779713471E+02 -0.17063126934E+02  0.30443672364E+01  0.50528858400E+02  0.29999995593E+02 0.  0.
         12    1    1    2    0    0 -0.36779713471E+02  0.17063126934E+02 -0.30443672364E+01  0.40659141600E+02  0.00000000000E+00 0. -1.
         11    1    3    3    0    0  0.10742747524E+02 -0.62107642564E+00  0.13549159564E+02  0.17302372249E+02  0.51100000000E-03 0. -1.
        -11    1    3    3    0    0  0.68993084804E+01 -0.64073859265E+01 -0.59641658495E+01  0.11145686451E+02  0.51100000000E-03 0.  1.
        -12    1    3    3    0    0  0.19137657466E+02 -0.10034664582E+02 -0.45406264783E+01  0.22080799700E+02  0.00000000000E+00 0.  1.
</event>
<event>
 7    1  0.2991278E-011  0.5052886E+02  0.7816164E-02  0.1300439E+00
        -11   -1    0    0    0    0  0.00000000000E+00  0.00000000000E+00  0.45593999997E+02  0.45594000000E+02  0.51100000000E-03 0.  1.
         11   -1    0    0    0    0 -0.00000000000E+00 -0.00000000000E+00 -0.45593999997E+02  0.45594000000E+02  0.51100000000E-03 0. -1.
    9900012    2    1    2    0    0 -0.30365090990E+02 -0.19028788034E+02  0.19210210953E+02  0.50528859210E+02  0.29999998056E+02 0.  0.
         12    1    1    2    0    0  0.30365090990E+02  0.19028788034E+02 -0.19210210953E+02  0.40659140790E+02  0.00000000000E+00 0. -1.
         11    1    3    3    0    0 -0.14401486596E+02 -0.17230471478E+02  0.30077899786E+01  0.22656980477E+02  0.51100000000E-03 0. -1.
        -11    1    3    3    0    0 -0.14499589455E+02 -0.39479142070E+01  0.18885776138E+02  0.24134967611E+02  0.51100000000E-03 0.  1.
         12    1    3    3    0    0 -0.14640149386E+01  0.21495976512E+01 -0.26833551636E+01  0.37369111223E+01  0.00000000000E+00 0. -1.
</event>
<event>
 7    1  0.2991278E-011  0.5052887E+02  0.7816164E-02  0.1300439E+00
        -11   -1    0    0    0    0  0.00000000000E+00  0.00000000000E+00  0.45593999997E+02  0.45594000000E+02  0.51100000000E-03 0.  1.
         11   -1    0    0    0    0 -0.00000000000E+00 -0.00000000000E+00 -0.45593999997E+02  0.45594000000E+02  0.51100000000E-03 0. -1.
    9900012    2    1    2    0    0  0.59882902237E+01  0.39757982309E+02  0.60504823735E+01  0.50528866782E+02  0.30000021072E+02 0.  0.
         12    1    1    2    0    0 -0.59882902237E+01 -0.39757982309E+02 -0.60504823735E+01  0.40659133218E+02  0.00000000000E+00 0. -1.
         11    1    3    3    0    0  0.87521621606E+01  0.69613801031E+01 -0.75819233378E+01  0.13510985056E+02  0.51100000000E-03 0. -1.
        -11    1    3    3    0    0 -0.62557835569E+01  0.14983890719E+02  0.57030483026E+01  0.17209781207E+02  0.51100000000E-03 0.  1.
         12    1    3    3    0    0  0.34919116200E+01  0.17812711486E+02  0.79293574086E+01  0.19808100519E+02  0.00000000000E+00 0. -1.
</event>
<event>
 7    1  0.2991278E-011  0.5052886E+02  0.7816164E-02  0.1300439E+00
        -11   -1    0    0    0    0  0.00000000000E+00  0.00000000000E+00  0.45593999997E+02  0.45594000000E+02  0.51100000000E-03 0. -1.
         11   -1    0    0    0    0 -0.00000000000E+00 -0.00000000000E+00 -0.45593999997E+02  0.45594000000E+02  0.51100000000E-03 0.  1.
    9900012    2    1    2    0    0 -0.26475357077E+02 -0.22417828182E+02 -0.21205245329E+02  0.50528856106E+02  0.29999988619E+02 0.  0.
         12    1    1    2    0    0  0.26475357077E+02  0.22417828182E+02  0.21205245329E+02  0.40659143894E+02  0.00000000000E+00 0. -1.
         11    1    3    3    0    0 -0.13932943919E+02 -0.25236132228E+01 -0.11499968006E+02  0.18241294207E+02  0.51100000000E-03 0. -1.
        -11    1    3    3    0    0 -0.87516406271E+00 -0.14420374401E+02 -0.12495971367E+02  0.19101371958E+02  0.51100000000E-03 0.  1.
        -12    1    3    3    0    0 -0.11667249095E+02 -0.54738405585E+01  0.27906940447E+01  0.13186189941E+02  0.00000000000E+00 0.  1.
</event>
<event>
 7    1  0.2991278E-011  0.5052887E+02  0.7816164E-02  0.1300439E+00
        -11   -1    0    0    0    0  0.00000000000E+00  0.00000000000E+00  0.45593999997E+02  0.45594000000E+02  0.51100000000E-03 0.  1.
         11   -1    0    0    0    0 -0.00000000000E+00 -0.00000000000E+00 -0.45593999997E+02  0.45594000000E+02  0.51100000000E-03 0. -1.
    9900012    2    1    2    0    0  0.13568934603E+02 -0.36454500784E+02  0.11837155506E+02  0.50528869855E+02  0.30000030410E+02 0.  0.
         12    1    1    2    0    0 -0.13568934603E+02  0.36454500784E+02 -0.11837155506E+02  0.40659130145E+02  0.00000000000E+00 0. -1.
         11    1    3    3    0    0 -0.45837628055E+01 -0.14141382068E+02  0.12878483265E+02  0.19668373083E+02  0.51100000000E-03 0. -1.
        -11    1    3    3    0    0  0.14922664809E+02 -0.10591445096E+02  0.17588797922E+01  0.18383641985E+02  0.51100000000E-03 0.  1.
         12    1    3    3    0    0  0.32300325996E+01 -0.11721673620E+02 -0.28002075511E+01  0.12476854787E+02  0.00000000000E+00 0. -1.
</event>
<event>
 7    1  0.2991278E-011  0.5052886E+02  0.7816164E-02  0.1300439E+00
        -11   -1    0    0    0    0  0.00000000000E+00  0.00000000000E+00  0.45593999997E+02  0.45594000000E+02  0.51100000000E-03 0.  1.
         11   -1    0    0    0    0 -0.00000000000E+00 -0.00000000000E+00 -0.45593999997E+02  0.45594000000E+02  0.51100000000E-03 0. -1.
    9900012    2    1    2    0    0  0.88076113744E+01 -0.39357671800E+02 -0.51541860395E+01  0.50528856116E+02  0.29999988650E+02 0.  0.
         12    1    1    2    0    0 -0.88076113744E+01  0.39357671800E+02  0.51541860395E+01  0.40659143884E+02  0.00000000000E+00 0. -1.
         11    1    3    3    0    0 -0.84551090915E+00 -0.38779333144E+01  0.30583784820E+01  0.50106820582E+01  0.51100000000E-03 0. -1.
        -11    1    3    3    0    0  0.77393873682E+01 -0.27490338979E+02 -0.17202524588E+02  0.33339821632E+02  0.51100000000E-03 0.  1.
        -12    1    3    3    0    0  0.19137349154E+01 -0.79893995073E+01  0.89899600663E+01  0.12178352426E+02  0.00000000000E+00 0.  1.
</event>
<event>
 7    1  0.2991278E-011  0.5052886E+02  0.7816164E-02  0.1300439E+00
        -11   -1    0    0    0    0  0.00000000000E+00  0.00000000000E+00  0.45593999997E+02  0.45594000000E+02  0.51100000000E-03 0.  1.
         11   -1    0    0    0    0 -0.00000000000E+00 -0.00000000000E+00 -0.45593999997E+02  0.45594000000E+02  0.51100000000E-03 0. -1.
    9900012    2    1    2    0    0 -0.15843510164E+02  0.31195101402E+02  0.20712672156E+02  0.50528856457E+02  0.29999989688E+02 0.  0.
         12    1    1    2    0    0  0.15843510164E+02 -0.31195101402E+02 -0.20712672156E+02  0.40659143543E+02  0.00000000000E+00 0. -1.
         11    1    3    3    0    0  0.77860504254E+01  0.64459453281E+01  0.26118379942E+01  0.10440042642E+02  0.51100000000E-03 0. -1.
        -11    1    3    3    0    0 -0.20933156314E+02  0.17070990458E+02  0.16900576495E+02  0.31862913153E+02  0.51100000000E-03 0.  1.
         12    1    3    3    0    0 -0.26964042754E+01  0.76781656159E+01  0.12002576666E+01  0.82259006625E+01  0.00000000000E+00 0. -1.
</event>
<event>
 7    1  0.3019172E-011  0.5052891E+02  0.7816164E-02  0.1300439E+00
        -11   -1    0    0    0    0  0.00000000000E+00  0.00000000000E+00  0.45593999997E+02  0.45594000000E+02  0.51100000000E-03 0. -1.
         11   -1    0    0    0    0 -0.00000000000E+00 -0.00000000000E+00 -0.45593999997E+02  0.45594000000E+02  0.51100000000E-03 0.  1.
    9900012    2    1    2    0    0 -0.84610141018E+00  0.16343343836E+02 -0.37220164493E+02  0.50528912207E+02  0.30000159143E+02 0.  0.
         12    1    1    2    0    0  0.84610141018E+00 -0.16343343836E+02  0.37220164493E+02  0.40659087793E+02  0.00000000000E+00 0. -1.
         11    1    3    3    0    0 -0.35544978148E+01  0.79263327993E+01 -0.34846953835E+00  0.86938275599E+01  0.51100000000E-03 0. -1.
        -11    1    3    3    0    0 -0.51688514227E+01 -0.35477263021E-02 -0.24015714560E+02  0.24565658625E+02  0.51100000000E-03 0.  1.
        -12    1    3    3    0    0  0.78772478274E+01  0.84205587629E+01 -0.12855980395E+02  0.17269426022E+02  0.00000000000E+00 0.  1.
</event>
<event>
 7    1  0.2991278E-011  0.5052888E+02  0.7816164E-02  0.1300439E+00
        -11   -1    0    0    0    0  0.00000000000E+00  0.00000000000E+00  0.45593999997E+02  0.45594000000E+02  0.51100000000E-03 0.  1.
         11   -1    0    0    0    0 -0.00000000000E+00 -0.00000000000E+00 -0.45593999997E+02  0.45594000000E+02  0.51100000000E-03 0. -1.
    9900012    2    1    2    0    0  0.22600186518E+02 -0.20982718643E+02  0.26497575781E+02  0.50528875138E+02  0.30000046470E+02 0.  0.
         12    1    1    2    0    0 -0.22600186518E+02  0.20982718643E+02 -0.26497575781E+02  0.40659124862E+02  0.00000000000E+00 0. -1.
         11    1    3    3    0    0  0.20406363698E+02 -0.28095548594E+02  0.18337987526E+02  0.39269088567E+02  0.51100000000E-03 0. -1.
        -11    1    3    3    0    0  0.13049497887E+01  0.24804891654E+01  0.44494215112E+01  0.52586188773E+01  0.51100000000E-03 0.  1.
         12    1    3    3    0    0  0.88887303117E+00  0.46323407856E+01  0.37101667437E+01  0.60011676935E+01  0.00000000000E+00 0. -1.
</event>
<event>
 7    1  0.2991278E-011  0.5052886E+02  0.7816164E-02  0.1300439E+00
        -11   -1    0    0    0    0  0.00000000000E+00  0.00000000000E+00  0.45593999997E+02  0.45594000000E+02  0.51100000000E-03 0. -1.
         11   -1    0    0    0    0 -0.00000000000E+00 -0.00000000000E+00 -0.45593999997E+02  0.45594000000E+02  0.51100000000E-03 0.  1.
    9900012    2    1    2    0    0  0.33806982895E+02 -0.13253648848E+02 -0.18291928315E+02  0.50528856603E+02  0.29999990131E+02 0.  0.
         12    1    1    2    0    0 -0.33806982895E+02  0.13253648848E+02  0.18291928315E+02  0.40659143397E+02  0.00000000000E+00 0. -1.
         11    1    3    3    0    0  0.30421593439E+02 -0.72531871320E+01 -0.82673926490E+01  0.32348598925E+02  0.51100000000E-03 0.  1.
        -11    1    3    3    0    0  0.44975732593E+01 -0.95440073242E+01 -0.98939619963E+01  0.14463980271E+02  0.51100000000E-03 0. -1.
         12    1    3    3    0    0 -0.11121838026E+01  0.35435456082E+01 -0.13057367011E+00  0.37162774078E+01  0.00000000000E+00 0. -1.
</event>
<event>
 7    1  0.2991278E-011  0.5052886E+02  0.7816164E-02  0.1300439E+00
        -11   -1    0    0    0    0  0.00000000000E+00  0.00000000000E+00  0.45593999997E+02  0.45594000000E+02  0.51100000000E-03 0.  1.
         11   -1    0    0    0    0 -0.00000000000E+00 -0.00000000000E+00 -0.45593999997E+02  0.45594000000E+02  0.51100000000E-03 0. -1.
    9900012    2    1    2    0    0  0.24559417837E+02  0.28493310607E+02  0.15431527940E+02  0.50528858243E+02  0.29999995115E+02 0.  0.
         12    1    1    2    0    0 -0.24559417837E+02 -0.28493310607E+02 -0.15431527940E+02  0.40659141757E+02  0.00000000000E+00 0. -1.
         11    1    3    3    0    0  0.86101067213E+01  0.16645728530E+02  0.18358772777E+01  0.18830418521E+02  0.51100000000E-03 0. -1.
        -11    1    3    3    0    0  0.97168862697E+01 -0.42242852311E+01  0.16432348794E+01  0.10722065362E+02  0.51100000000E-03 0.  1.
        -12    1    3    3    0    0  0.62324248464E+01  0.16071867309E+02  0.11952415782E+02  0.20976374360E+02  0.00000000000E+00 0.  1.
</event>
<event>
 7    1  0.2991278E-011  0.5052884E+02  0.7816164E-02  0.1300439E+00
        -11   -1    0    0    0    0  0.00000000000E+00  0.00000000000E+00  0.45593999997E+02  0.45594000000E+02  0.51100000000E-03 0. -1.
         11   -1    0    0    0    0 -0.00000000000E+00 -0.00000000000E+00 -0.45593999997E+02  0.45594000000E+02  0.51100000000E-03 0.  1.
    9900012    2    1    2    0    0  0.66503042731E+01  0.13736484946E+02 -0.37686199206E+02  0.50528841423E+02  0.29999943989E+02 0.  0.
         12    1    1    2    0    0 -0.66503042731E+01 -0.13736484946E+02  0.37686199206E+02  0.40659158577E+02  0.00000000000E+00 0. -1.
         11    1    3    3    0    0  0.12210740258E+02  0.18245253137E+02 -0.19962947156E+02  0.29673400531E+02  0.51100000000E-03 0. -1.
        -11    1    3    3    0    0 -0.16488604129E+01 -0.17161020718E+01 -0.15279368565E+02  0.15463597608E+02  0.51100000000E-03 0.  1.
         12    1    3    3    0    0 -0.39115755718E+01 -0.27926661194E+01 -0.24438834854E+01  0.53918432840E+01  0.00000000000E+00 0. -1.
</event>
<event>
 7    1  0.2991278E-011  0.5052886E+02  0.7816164E-02  0.1300439E+00
        -11   -1    0    0    0    0  0.00000000000E+00  0.00000000000E+00  0.45593999997E+02  0.45594000000E+02  0.51100000000E-03 0.  1.
         11   -1    0    0    0    0 -0.00000000000E+00 -0.00000000000E+00 -0.45593999997E+02  0.45594000000E+02  0.51100000000E-03 0. -1.
    9900012    2    1    2    0    0 -0.12754491554E+02  0.79021514637E+01  0.37789474214E+02  0.50528863094E+02  0.30000009861E+02 0.  0.
         12    1    1    2    0    0  0.12754491554E+02 -0.79021514637E+01 -0.37789474214E+02  0.40659136906E+02  0.00000000000E+00 0. -1.
         11    1    3    3    0    0  0.47822677079E+01  0.31710211687E+00  0.52589678406E+01  0.71152920666E+01  0.51100000000E-03 0. -1.
        -11    1    3    3    0    0 -0.19863188063E+02  0.23107308914E+01  0.31852255117E+02  0.37609199321E+02  0.51100000000E-03 0.  1.
        -12    1    3    3    0    0  0.23264288014E+01  0.52743184554E+01  0.67825125627E+00  0.58043717062E+01  0.00000000000E+00 0.  1.
</event>
<event>
 7    1  0.2991278E-011  0.5052885E+02  0.7816164E-02  0.1300439E+00
        -11   -1    0    0    0    0  0.00000000000E+00  0.00000000000E+00  0.45593999997E+02  0.45594000000E+02  0.51100000000E-03 0. -1.
         11   -1    0    0    0    0 -0.00000000000E+00 -0.00000000000E+00 -0.45593999997E+02  0.45594000000E+02  0.51100000000E-03 0.  1.
    9900012    2    1    2    0    0  0.15805604788E+02 -0.25700618962E+02 -0.27254867448E+02  0.50528846574E+02  0.29999959647E+02 0.  0.
         12    1    1    2    0    0 -0.15805604788E+02  0.25700618962E+02  0.27254867448E+02  0.40659153426E+02  0.00000000000E+00 0. -1.
         11    1    3    3    0    0 -0.70016426850E+01 -0.57105864838E+01 -0.14089625336E+02  0.16737722087E+02  0.51100000000E-03 0. -1.
        -11    1    3    3    0    0  0.14181507508E+02 -0.14130323448E+02 -0.11893658768E+02  0.23286054090E+02  0.51100000000E-03 0.  1.
         12    1    3    3    0    0  0.86257399643E+01 -0.58597090301E+01 -0.12715833438E+01  0.10505070397E+02  0.00000000000E+00 0. -1.
</event>
<event>
 7    1  0.2991278E-011  0.5052886E+02  0.7816164E-02  0.1300439E+00
        -11   -1    0    0    0    0  0.00000000000E+00  0.00000000000E+00  0.45593999997E+02  0.45594000000E+02  0.51100000000E-03 0. -1.
         11   -1    0    0    0    0 -0.00000000000E+00 -0.00000000000E+00 -0.45593999997E+02  0.45594000000E+02  0.51100000000E-03 0.  1.
    9900012    2    1    2    0    0 -0.13858319189E+02  0.23959693126E+02 -0.29783307648E+02  0.50528864251E+02  0.30000013376E+02 0.  0.
         12    1    1    2    0    0  0.13858319189E+02 -0.23959693126E+02  0.29783307648E+02  0.40659135749E+02  0.00000000000E+00 0. -1.
         11    1    3    3    0    0  0.68086576252E+01  0.11485831921E+02 -0.13648134959E+02  0.19093290489E+02  0.51100000000E-03 0. -1.
        -11    1    3    3    0    0 -0.37512570671E+01 -0.18820797913E+01 -0.52542062781E+01  0.67246440648E+01  0.51100000000E-03 0.  1.
         12    1    3    3    0    0 -0.16915719747E+02  0.14355940996E+02 -0.10880966410E+02  0.24710929696E+02  0.00000000000E+00 0. -1.
</event>
<event>
 7    1  0.2991278E-011  0.5052886E+02  0.7816164E-02  0.1300439E+00
        -11   -1    0    0    0    0  0.00000000000E+00  0.00000000000E+00  0.45593999997E+02  0.45594000000E+02  0.51100000000E-03 0. -1.
         11   -1    0    0    0    0 -0.00000000000E+00 -0.00000000000E+00 -0.45593999997E+02  0.45594000000E+02  0.51100000000E-03 0.  1.
    9900012    2    1    2    0    0 -0.84861888034E+01  0.18115024645E+02 -0.35397684374E+02  0.50528861084E+02  0.30000003752E+02 0.  0.
         12    1    1    2    0    0  0.84861888034E+01 -0.18115024645E+02  0.35397684374E+02  0.40659138916E+02  0.00000000000E+00 0. -1.
         11    1    3    3    0    0 -0.58710761513E+01  0.71371804985E+00 -0.28456181644E+02  0.29064294292E+02  0.51100000000E-03 0. -1.
        -11    1    3    3    0    0 -0.25125302225E+01  0.11008631657E+02  0.92270770238E+00  0.11329349886E+02  0.51100000000E-03 0.  1.
         12    1    3    3    0    0 -0.10258242964E+00  0.63926749389E+01 -0.78642104321E+01  0.10135216907E+02  0.00000000000E+00 0. -1.
</event>
<event>
 7    1  0.2991278E-011  0.5052886E+02  0.7816164E-02  0.1300439E+00
        -11   -1    0    0    0    0  0.00000000000E+00  0.00000000000E+00  0.45593999997E+02  0.45594000000E+02  0.51100000000E-03 0. -1.
         11   -1    0    0    0    0 -0.00000000000E+00 -0.00000000000E+00 -0.45593999997E+02  0.45594000000E+02  0.51100000000E-03 0.  1.
    9900012    2    1    2    0    0  0.18595485938E+02 -0.36148761324E+02 -0.80013850440E+00  0.50528864935E+02  0.30000015458E+02 0.  0.
         12    1    1    2    0    0 -0.18595485938E+02  0.36148761324E+02  0.80013850440E+00  0.40659135065E+02  0.00000000000E+00 0. -1.
         11    1    3    3    0    0 -0.51796836267E+01 -0.61943555631E+00 -0.22171230991E+01  0.56681970659E+01  0.51100000000E-03 0. -1.
        -11    1    3    3    0    0  0.17510513217E+02 -0.26602513932E+02 -0.49527175210E+01  0.32231060046E+02  0.51100000000E-03 0.  1.
        -12    1    3    3    0    0  0.62646563485E+01 -0.89268118365E+01  0.63697021157E+01  0.12629607823E+02  0.00000000000E+00 0.  1.
</event>
<event>
 7    1  0.2991278E-011  0.5052886E+02  0.7816164E-02  0.1300439E+00
        -11   -1    0    0    0    0  0.00000000000E+00  0.00000000000E+00  0.45593999997E+02  0.45594000000E+02  0.51100000000E-03 0. -1.
         11   -1    0    0    0    0 -0.00000000000E+00 -0.00000000000E+00 -0.45593999997E+02  0.45594000000E+02  0.51100000000E-03 0.  1.
    9900012    2    1    2    0    0 -0.34249519703E+02  0.10783701459E+01 -0.21885460607E+02  0.50528857510E+02  0.29999992887E+02 0.  0.
         12    1    1    2    0    0  0.34249519703E+02 -0.10783701459E+01  0.21885460607E+02  0.40659142490E+02  0.00000000000E+00 0. -1.
         11    1    3    3    0    0 -0.86745208327E+01  0.17578801734E+01  0.57447920719E+01  0.10551781394E+02  0.51100000000E-03 0. -1.
        -11    1    3    3    0    0 -0.11602656366E+02 -0.68270420089E+01 -0.15084961722E+02  0.20218462052E+02  0.51100000000E-03 0.  1.
         12    1    3    3    0    0 -0.13972342504E+02  0.61475319814E+01 -0.12545290957E+02  0.19758614063E+02  0.00000000000E+00 0. -1.
</event>
<event>
 7    1  0.2991278E-011  0.5052886E+02  0.7816164E-02  0.1300439E+00
        -11   -1    0    0    0    0  0.00000000000E+00  0.00000000000E+00  0.45593999997E+02  0.45594000000E+02  0.51100000000E-03 0.  1.
         11   -1    0    0    0    0 -0.00000000000E+00 -0.00000000000E+00 -0.45593999997E+02  0.45594000000E+02  0.51100000000E-03 0. -1.
    9900012    2    1    2    0    0  0.12922882426E+02 -0.32874147595E+02  0.20135911051E+02  0.50528863460E+02  0.30000010974E+02 0.  0.
         12    1    1    2    0    0 -0.12922882426E+02  0.32874147595E+02 -0.20135911051E+02  0.40659136540E+02  0.00000000000E+00 0. -1.
         11    1    3    3    0    0 -0.40306160345E+01 -0.11509201779E+02  0.18747041057E+02  0.22364237968E+02  0.51100000000E-03 0. -1.
        -11    1    3    3    0    0  0.48775860745E+01 -0.29025607672E+01 -0.16122736411E+01  0.59004348549E+01  0.51100000000E-03 0.  1.
         12    1    3    3    0    0  0.12075912386E+02 -0.18462385049E+02  0.30011436349E+01  0.22264190638E+02  0.00000000000E+00 0. -1.
</event>
<event>
 7    1  0.2991278E-011  0.5052886E+02  0.7816164E-02  0.1300439E+00
        -11   -1    0    0    0    0  0.00000000000E+00  0.00000000000E+00  0.45593999997E+02  0.45594000000E+02  0.51100000000E-03 0. -1.
         11   -1    0    0    0    0 -0.00000000000E+00 -0.00000000000E+00 -0.45593999997E+02  0.45594000000E+02  0.51100000000E-03 0.  1.
    9900012    2    1    2    0    0 -0.36429044574E+02 -0.10993705564E+02 -0.14325820884E+02  0.50528855953E+02  0.29999988156E+02 0.  0.
         12    1    1    2    0    0  0.36429044574E+02  0.10993705564E+02  0.14325820884E+02  0.40659144047E+02  0.00000000000E+00 0. -1.
         11    1    3    3    0    0 -0.26917860874E+02 -0.34209999542E+01  0.41375166880E+01  0.27448014852E+02  0.51100000000E-03 0. -1.
        -11    1    3    3    0    0 -0.41171788567E+01 -0.10603858528E+01 -0.11033822837E+02  0.11824585682E+02  0.51100000000E-03 0.  1.
         12    1    3    3    0    0 -0.53940048431E+01 -0.65123197565E+01 -0.74295147355E+01  0.11256255419E+02  0.00000000000E+00 0. -1.
</event>
<event>
 7    1  0.2991278E-011  0.5052886E+02  0.7816164E-02  0.1300439E+00
        -11   -1    0    0    0    0  0.00000000000E+00  0.00000000000E+00  0.45593999997E+02  0.45594000000E+02  0.51100000000E-03 0. -1.
         11   -1    0    0    0    0 -0.00000000000E+00 -0.00000000000E+00 -0.45593999997E+02  0.45594000000E+02  0.51100000000E-03 0.  1.
    9900012    2    1    2    0    0 -0.82211303729E+01 -0.26983611496E+02 -0.29282478787E+02  0.50528857881E+02  0.29999994014E+02 0.  0.
         12    1    1    2    0    0  0.82211303729E+01  0.26983611496E+02  0.29282478787E+02  0.40659142119E+02  0.00000000000E+00 0. -1.
         11    1    3    3    0    0  0.83889516491E+01 -0.11214379901E+02 -0.15604766008E+02  0.20967726361E+02  0.51100000000E-03 0. -1.
        -11    1    3    3    0    0 -0.79072210310E+01 -0.10724226161E+02 -0.14220190474E+02  0.19487098002E+02  0.51100000000E-03 0.  1.
         12    1    3    3    0    0 -0.87028609910E+01 -0.50450054347E+01  0.54247769414E+00  0.10074033518E+02  0.00000000000E+00 0. -1.
</event>
<event>
 7    1  0.2991278E-011  0.5052885E+02  0.7816164E-02  0.1300439E+00
        -11   -1    0    0    0    0  0.00000000000E+00  0.00000000000E+00  0.45593999997E+02  0.45594000000E+02  0.51100000000E-03 0.  1.
         11   -1    0    0    0    0 -0.00000000000E+00 -0.00000000000E+00 -0.45593999997E+02  0.45594000000E+02  0.51100000000E-03 0. -1.
    9900012    2    1    2    0    0 -0.83941332277E+00 -0.36398979218E+02  0.18099071021E+02  0.50528847591E+02  0.29999962737E+02 0.  0.
         12    1    1    2    0    0  0.83941332277E+00  0.36398979218E+02 -0.18099071021E+02  0.40659152409E+02  0.00000000000E+00 0. -1.
         11    1    3    3    0    0 -0.53821749329E+01 -0.33784359367E+02  0.15662406231E+02  0.37625280252E+02  0.51100000000E-03 0.  1.
        -11    1    3    3    0    0  0.23847728629E+01 -0.14221393390E+01 -0.46413123426E+01  0.54084565663E+01  0.51100000000E-03 0. -1.
        -12    1    3    3    0    0  0.21579887472E+01 -0.11924805115E+01  0.70779771321E+01  0.74951107721E+01  0.00000000000E+00 0.  1.
</event>
<event>
 7    1  0.2991278E-011  0.5052886E+02  0.7816164E-02  0.1300439E+00
        -11   -1    0    0    0    0  0.00000000000E+00  0.00000000000E+00  0.45593999997E+02  0.45594000000E+02  0.51100000000E-03 0. -1.
         11   -1    0    0    0    0 -0.00000000000E+00 -0.00000000000E+00 -0.45593999997E+02  0.45594000000E+02  0.51100000000E-03 0.  1.
    9900012    2    1    2    0    0 -0.31560368512E+02 -0.25625602106E+02  0.66108351305E+00  0.50528863569E+02  0.30000011304E+02 0.  0.
         12    1    1    2    0    0  0.31560368512E+02  0.25625602106E+02 -0.66108351305E+00  0.40659136431E+02  0.00000000000E+00 0. -1.
         11    1    3    3    0    0 -0.30372243339E+02 -0.92617367741E+01  0.44135886726E+01  0.32058270365E+02  0.51100000000E-03 0.  1.
        -11    1    3    3    0    0  0.46046828606E+00 -0.14848393519E+02 -0.95356929192E+00  0.14886104789E+02  0.51100000000E-03 0. -1.
        -12    1    3    3    0    0 -0.16485934584E+01 -0.15154718134E+01 -0.27989358676E+01  0.35844884153E+01  0.00000000000E+00 0.  1.
</event>
<event>
 7    1  0.2991278E-011  0.5052883E+02  0.7816164E-02  0.1300439E+00
        -11   -1    0    0    0    0  0.00000000000E+00  0.00000000000E+00  0.45593999997E+02  0.45594000000E+02  0.51100000000E-03 0.  1.
         11   -1    0    0    0    0 -0.00000000000E+00 -0.00000000000E+00 -0.45593999997E+02  0.45594000000E+02  0.51100000000E-03 0. -1.
    9900012    2    1    2    0    0  0.18672938302E+01 -0.20613469652E+02  0.34996658885E+02  0.50528830672E+02  0.29999911310E+02 0.  0.
         12    1    1    2    0    0 -0.18672938302E+01  0.20613469652E+02 -0.34996658885E+02  0.40659169328E+02  0.00000000000E+00 0. -1.
         11    1    3    3    0    0  0.60062069059E+01 -0.73199982538E+01 -0.27221178403E+01  0.98522495720E+01  0.51100000000E-03 0. -1.
        -11    1    3    3    0    0 -0.43442108952E+01 -0.93288580578E+01  0.19702483086E+02  0.22228081361E+02  0.51100000000E-03 0.  1.
         12    1    3    3    0    0  0.20529781950E+00 -0.39646133403E+01  0.18016293639E+02  0.18448499739E+02  0.00000000000E+00 0. -1.
</event>
<event>
 7    1  0.2991278E-011  0.5052885E+02  0.7816164E-02  0.1300439E+00
        -11   -1    0    0    0    0  0.00000000000E+00  0.00000000000E+00  0.45593999997E+02  0.45594000000E+02  0.51100000000E-03 0.  1.
         11   -1    0    0    0    0 -0.00000000000E+00 -0.00000000000E+00 -0.45593999997E+02  0.45594000000E+02  0.51100000000E-03 0. -1.
    9900012    2    1    2    0    0  0.35620054298E+02  0.13824289857E+02  0.13902044977E+02  0.50528854500E+02  0.29999983737E+02 0.  0.
         12    1    1    2    0    0 -0.35620054298E+02 -0.13824289857E+02 -0.13902044977E+02  0.40659145500E+02  0.00000000000E+00 0. -1.
         11    1    3    3    0    0  0.87082399031E+00  0.44246809070E+01  0.18355306272E+01  0.48688097617E+01  0.51100000000E-03 0. -1.
        -11    1    3    3    0    0  0.31644600736E+02 -0.21382377120E+01  0.60734924200E+01  0.32293035266E+02  0.51100000000E-03 0.  1.
        -12    1    3    3    0    0  0.31046295720E+01  0.11537846662E+02  0.59930219302E+01  0.13367009472E+02  0.00000000000E+00 0.  1.
</event>
<event>
 7    1  0.2991278E-011  0.5052886E+02  0.7816164E-02  0.1300439E+00
        -11   -1    0    0    0    0  0.00000000000E+00  0.00000000000E+00  0.45593999997E+02  0.45594000000E+02  0.51100000000E-03 0. -1.
         11   -1    0    0    0    0 -0.00000000000E+00 -0.00000000000E+00 -0.45593999997E+02  0.45594000000E+02  0.51100000000E-03 0.  1.
    9900012    2    1    2    0    0  0.18241659592E+02 -0.12083797467E+02  0.34269364585E+02  0.50528860131E+02  0.30000000853E+02 0.  0.
         12    1    1    2    0    0 -0.18241659592E+02  0.12083797467E+02 -0.34269364585E+02  0.40659139869E+02  0.00000000000E+00 0. -1.
         11    1    3    3    0    0  0.35545187952E+01 -0.15650617632E+02  0.30386668925E+02  0.34364605115E+02  0.51100000000E-03 0. -1.
        -11    1    3    3    0    0  0.88288012409E+01  0.33461086421E+00  0.10457178984E+01  0.88968096510E+01  0.51100000000E-03 0.  1.
         12    1    3    3    0    0  0.58583395555E+01  0.32322093004E+01  0.28369777617E+01  0.72674453647E+01  0.00000000000E+00 0. -1.
</event>
<event>
 7    1  0.2991278E-011  0.5052886E+02  0.7816164E-02  0.1300439E+00
        -11   -1    0    0    0    0  0.00000000000E+00  0.00000000000E+00  0.45593999997E+02  0.45594000000E+02  0.51100000000E-03 0.  1.
         11   -1    0    0    0    0 -0.00000000000E+00 -0.00000000000E+00 -0.45593999997E+02  0.45594000000E+02  0.51100000000E-03 0. -1.
    9900012    2    1    2    0    0  0.24715121251E+02 -0.73302650501E+01  0.31441936961E+02  0.50528863216E+02  0.30000010232E+02 0.  0.
         12    1    1    2    0    0 -0.24715121251E+02  0.73302650501E+01 -0.31441936961E+02  0.40659136784E+02  0.00000000000E+00 0. -1.
         11    1    3    3    0    0 -0.37477650122E+01 -0.68508676469E+01  0.95379981880E+00  0.78670111515E+01  0.51100000000E-03 0. -1.
        -11    1    3    3    0    0  0.22693338343E+01 -0.12113883044E+01  0.70523083735E+01  0.75068229852E+01  0.51100000000E-03 0.  1.
         12    1    3    3    0    0  0.26193552429E+02  0.73199090128E+00  0.23435828769E+02  0.35155029080E+02  0.00000000000E+00 0. -1.
</event>
<event>
 7    1  0.2991278E-011  0.5052886E+02  0.7816164E-02  0.1300439E+00
        -11   -1    0    0    0    0  0.00000000000E+00  0.00000000000E+00  0.45593999997E+02  0.45594000000E+02  0.51100000000E-03 0.  1.
         11   -1    0    0    0    0 -0.00000000000E+00 -0.00000000000E+00 -0.45593999997E+02  0.45594000000E+02  0.51100000000E-03 0. -1.
    9900012    2    1    2    0    0  0.10639161661E+01 -0.22827798348E+02  0.33629235908E+02  0.50528858313E+02  0.29999995327E+02 0.  0.
         12    1    1    2    0    0 -0.10639161661E+01  0.22827798348E+02 -0.33629235908E+02  0.40659141687E+02  0.00000000000E+00 0. -1.
         11    1    3    3    0    0  0.19541070878E+01 -0.10868807213E+02  0.71325228940E+01  0.13146192903E+02  0.51100000000E-03 0. -1.
        -11    1    3    3    0    0  0.59796352679E+01 -0.46044801960E+01  0.26252473247E+02  0.27315739559E+02  0.51100000000E-03 0.  1.
        -12    1    3    3    0    0 -0.68698261897E+01 -0.73545109388E+01  0.24423976710E+00  0.10066925851E+02  0.00000000000E+00 0.  1.
</event>
<event>
 7    1  0.2991278E-011  0.5052886E+02  0.7816164E-02  0.1300439E+00
        -11   -1    0    0    0    0  0.00000000000E+00  0.00000000000E+00  0.45593999997E+02  0.45594000000E+02  0.51100000000E-03 0.  1.
         11   -1    0    0    0    0 -0.00000000000E+00 -0.00000000000E+00 -0.45593999997E+02  0.45594000000E+02  0.51100000000E-03 0. -1.
    9900012    2    1    2    0    0  0.22826721228E+02  0.17412022337E+02  0.28791109880E+02  0.50528859183E+02  0.29999997973E+02 0.  0.
         12    1    1    2    0    0 -0.22826721228E+02 -0.17412022337E+02 -0.28791109880E+02  0.40659140817E+02  0.00000000000E+00 0. -1.
         11    1    3    3    0    0  0.32561639831E+00  0.40029178528E+01  0.10326524906E+02  0.11080004254E+02  0.51100000000E-03 0. -1.
        -11    1    3    3    0    0  0.14617591316E+02 -0.44888412191E+01  0.75852363510E+01  0.17069255465E+02  0.51100000000E-03 0.  1.
        -12    1    3    3    0    0  0.78835135132E+01  0.17897945703E+02  0.10879348622E+02  0.22379599463E+02  0.00000000000E+00 0.  1.
</event>
<event>
 7    1  0.2991278E-011  0.5052886E+02  0.7816164E-02  0.1300439E+00
        -11   -1    0    0    0    0  0.00000000000E+00  0.00000000000E+00  0.45593999997E+02  0.45594000000E+02  0.51100000000E-03 0.  1.
         11   -1    0    0    0    0 -0.00000000000E+00 -0.00000000000E+00 -0.45593999997E+02  0.45594000000E+02  0.51100000000E-03 0. -1.
    9900012    2    1    2    0    0  0.12747584697E+02 -0.26759230204E+02  0.27831788284E+02  0.50528858890E+02  0.29999997082E+02 0.  0.
         12    1    1    2    0    0 -0.12747584697E+02  0.26759230204E+02 -0.27831788284E+02  0.40659141110E+02  0.00000000000E+00 0. -1.
         11    1    3    3    0    0  0.12614982677E+01 -0.67562671961E+01  0.17321177719E+02  0.18634959677E+02  0.51100000000E-03 0. -1.
        -11    1    3    3    0    0  0.27230088898E+01 -0.11297653586E+02 -0.44933209223E+01  0.12459602206E+02  0.51100000000E-03 0.  1.
        -12    1    3    3    0    0  0.87630775399E+01 -0.87053094219E+01  0.15003931487E+02  0.19434297008E+02  0.00000000000E+00 0.  1.
</event>
<event>
 7    1  0.2991278E-011  0.5052885E+02  0.7816164E-02  0.1300439E+00
        -11   -1    0    0    0    0  0.00000000000E+00  0.00000000000E+00  0.45593999997E+02  0.45594000000E+02  0.51100000000E-03 0.  1.
         11   -1    0    0    0    0 -0.00000000000E+00 -0.00000000000E+00 -0.45593999997E+02  0.45594000000E+02  0.51100000000E-03 0. -1.
    9900012    2    1    2    0    0 -0.52518432988E+00  0.12795765202E+01  0.40635616890E+02  0.50528849804E+02  0.29999969463E+02 0.  0.
         12    1    1    2    0    0  0.52518432988E+00 -0.12795765202E+01 -0.40635616890E+02  0.40659150196E+02  0.00000000000E+00 0. -1.
         11    1    3    3    0    0 -0.79659837699E+01  0.39568602081E+01  0.10878533213E+02  0.14051908243E+02  0.51100000000E-03 0. -1.
        -11    1    3    3    0    0  0.52663323546E+01 -0.79161169109E+01  0.43702230221E+01  0.10464129822E+02  0.51100000000E-03 0.  1.
        -12    1    3    3    0    0  0.21744670854E+01  0.52388332229E+01  0.25386860655E+02  0.26012811738E+02  0.00000000000E+00 0.  1.
</event>
<event>
 7    1  0.2991278E-011  0.5052886E+02  0.7816164E-02  0.1300439E+00
        -11   -1    0    0    0    0  0.00000000000E+00  0.00000000000E+00  0.45593999997E+02  0.45594000000E+02  0.51100000000E-03 0.  1.
         11   -1    0    0    0    0 -0.00000000000E+00 -0.00000000000E+00 -0.45593999997E+02  0.45594000000E+02  0.51100000000E-03 0. -1.
    9900012    2    1    2    0    0 -0.38431801603E+02 -0.27587088895E+00  0.13269739512E+02  0.50528862455E+02  0.30000007919E+02 0.  0.
         12    1    1    2    0    0  0.38431801603E+02  0.27587088895E+00 -0.13269739512E+02  0.40659137545E+02  0.00000000000E+00 0. -1.
         11    1    3    3    0    0 -0.33121404557E+02  0.72537631406E+01  0.83945914820E+01  0.34930125765E+02  0.51100000000E-03 0.  1.
        -11    1    3    3    0    0 -0.16338543530E+01 -0.37107605689E+01 -0.37185877892E+01  0.55015560938E+01  0.51100000000E-03 0. -1.
        -12    1    3    3    0    0 -0.36765426928E+01 -0.38188734606E+01  0.85937358189E+01  0.10097180597E+02  0.00000000000E+00 0.  1.
</event>
<event>
 7    1  0.2991278E-011  0.5052886E+02  0.7816164E-02  0.1300439E+00
        -11   -1    0    0    0    0  0.00000000000E+00  0.00000000000E+00  0.45593999997E+02  0.45594000000E+02  0.51100000000E-03 0. -1.
         11   -1    0    0    0    0 -0.00000000000E+00 -0.00000000000E+00 -0.45593999997E+02  0.45594000000E+02  0.51100000000E-03 0.  1.
    9900012    2    1    2    0    0  0.39579228749E+02 -0.69258892750E+01 -0.62195076968E+01  0.50528861217E+02  0.30000004155E+02 0.  0.
         12    1    1    2    0    0 -0.39579228749E+02  0.69258892750E+01  0.62195076968E+01  0.40659138783E+02  0.00000000000E+00 0. -1.
         11    1    3    3    0    0  0.36595608687E+01  0.73885321696E+01  0.46738004043E+01  0.94777214484E+01  0.51100000000E-03 0. -1.
        -11    1    3    3    0    0  0.15602919724E+02 -0.68004457113E+01 -0.50680651422E+00  0.17028036261E+02  0.51100000000E-03 0.  1.
         12    1    3    3    0    0  0.20316748156E+02 -0.75139757334E+01 -0.10386501587E+02  0.24023103508E+02  0.00000000000E+00 0. -1.
</event>
<event>
 7    1  0.2991278E-011  0.5052885E+02  0.7816164E-02  0.1300439E+00
        -11   -1    0    0    0    0  0.00000000000E+00  0.00000000000E+00  0.45593999997E+02  0.45594000000E+02  0.51100000000E-03 0.  1.
         11   -1    0    0    0    0 -0.00000000000E+00 -0.00000000000E+00 -0.45593999997E+02  0.45594000000E+02  0.51100000000E-03 0. -1.
    9900012    2    1    2    0    0  0.80796474072E+01  0.39769090941E+02 -0.25110531321E+01  0.50528847471E+02  0.29999962374E+02 0.  0.
         12    1    1    2    0    0 -0.80796474072E+01 -0.39769090941E+02  0.25110531321E+01  0.40659152529E+02  0.00000000000E+00 0. -1.
         11    1    3    3    0    0  0.98998480122E+01  0.32913097453E+02 -0.90633592884E+01  0.35544668467E+02  0.51100000000E-03 0. -1.
        -11    1    3    3    0    0  0.22478135593E+01 -0.23719209792E+01  0.25052263424E+01  0.41176248271E+01  0.51100000000E-03 0.  1.
        -12    1    3    3    0    0 -0.40680141643E+01  0.92279144678E+01  0.40470798138E+01  0.10866554177E+02  0.00000000000E+00 0.  1.
</event>
<event>
 7    1  0.2991278E-011  0.5052886E+02  0.7816164E-02  0.1300439E+00
        -11   -1    0    0    0    0  0.00000000000E+00  0.00000000000E+00  0.45593999997E+02  0.45594000000E+02  0.51100000000E-03 0. -1.
         11   -1    0    0    0    0 -0.00000000000E+00 -0.00000000000E+00 -0.45593999997E+02  0.45594000000E+02  0.51100000000E-03 0.  1.
    9900012    2    1    2    0    0 -0.53634084630E+01 -0.33762043588E+02 -0.22011901495E+02  0.50528861482E+02  0.30000004961E+02 0.  0.
         12    1    1    2    0    0  0.53634084630E+01  0.33762043588E+02  0.22011901495E+02  0.40659138518E+02  0.00000000000E+00 0. -1.
         11    1    3    3    0    0 -0.93729967218E+01 -0.90317496883E+01 -0.66783725463E+01  0.14629635337E+02  0.51100000000E-03 0. -1.
        -11    1    3    3    0    0  0.65414138331E+01 -0.65605704504E+00 -0.85008693716E+01  0.10746408056E+02  0.51100000000E-03 0.  1.
        -12    1    3    3    0    0 -0.25318255743E+01 -0.24074236855E+02 -0.68326595767E+01  0.25152818088E+02  0.00000000000E+00 0.  1.
</event>
<event>
 7    1  0.2991278E-011  0.5052885E+02  0.7816164E-02  0.1300439E+00
        -11   -1    0    0    0    0  0.00000000000E+00  0.00000000000E+00  0.45593999997E+02  0.45594000000E+02  0.51100000000E-03 0.  1.
         11   -1    0    0    0    0 -0.00000000000E+00 -0.00000000000E+00 -0.45593999997E+02  0.45594000000E+02  0.51100000000E-03 0. -1.
    9900012    2    1    2    0    0 -0.39728769030E+02 -0.86420143414E+01 -0.32664964200E+00  0.50528853422E+02  0.29999980460E+02 0.  0.
         12    1    1    2    0    0  0.39728769030E+02  0.86420143414E+01  0.32664964200E+00  0.40659146578E+02  0.00000000000E+00 0. -1.
         11    1    3    3    0    0 -0.24676778701E+02 -0.81733331735E+01  0.12244128404E+02  0.28734395119E+02  0.51100000000E-03 0.  1.
        -11    1    3    3    0    0 -0.10086240020E+02 -0.20553202071E+01 -0.27160252387E+01  0.10645814776E+02  0.51100000000E-03 0. -1.
         12    1    3    3    0    0 -0.49657503090E+01  0.15866390392E+01 -0.98547528076E+01  0.11148643526E+02  0.00000000000E+00 0. -1.
</event>
<event>
 7    1  0.2991278E-011  0.5052888E+02  0.7816164E-02  0.1300439E+00
        -11   -1    0    0    0    0  0.00000000000E+00  0.00000000000E+00  0.45593999997E+02  0.45594000000E+02  0.51100000000E-03 0. -1.
         11   -1    0    0    0    0 -0.00000000000E+00 -0.00000000000E+00 -0.45593999997E+02  0.45594000000E+02  0.51100000000E-03 0.  1.
    9900012    2    1    2    0    0  0.36705194642E+02  0.16378117338E+02 -0.61359304764E+01  0.50528884367E+02  0.30000074522E+02 0.  0.
         12    1    1    2    0    0 -0.36705194642E+02 -0.16378117338E+02  0.61359304764E+01  0.40659115633E+02  0.00000000000E+00 0. -1.
         11    1    3    3    0    0  0.56796029012E+01  0.17618922397E+02 -0.49363721281E+01  0.19158603435E+02  0.51100000000E-03 0. -1.
        -11    1    3    3    0    0  0.14754514117E+02  0.13702047466E+01 -0.14532135743E+01  0.14889089221E+02  0.51100000000E-03 0.  1.
         12    1    3    3    0    0  0.16271077623E+02 -0.26110098055E+01  0.25365522604E+00  0.16481191711E+02  0.00000000000E+00 0. -1.
</event>
<event>
 7    1  0.2991278E-011  0.5052885E+02  0.7816164E-02  0.1300439E+00
        -11   -1    0    0    0    0  0.00000000000E+00  0.00000000000E+00  0.45593999997E+02  0.45594000000E+02  0.51100000000E-03 0.  1.
         11   -1    0    0    0    0 -0.00000000000E+00 -0.00000000000E+00 -0.45593999997E+02  0.45594000000E+02  0.51100000000E-03 0. -1.
    9900012    2    1    2    0    0  0.19027197891E+02  0.11765458975E+02  0.33951522286E+02  0.50528854042E+02  0.29999982346E+02 0.  0.
         12    1    1    2    0    0 -0.19027197891E+02 -0.11765458975E+02 -0.33951522286E+02  0.40659145958E+02  0.00000000000E+00 0. -1.
         11    1    3    3    0    0  0.22828982290E+02  0.76338925008E+01  0.28204189778E+02  0.37079847200E+02  0.51100000000E-03 0. -1.
        -11    1    3    3    0    0  0.29264120449E+01  0.26850716809E+01  0.52029934991E+01  0.65455816396E+01  0.51100000000E-03 0.  1.
         12    1    3    3    0    0 -0.67281964434E+01  0.14464947932E+01  0.54433900977E+00  0.69034252024E+01  0.00000000000E+00 0. -1.
</event>
<event>
 7    1  0.2991278E-011  0.5052886E+02  0.7816164E-02  0.1300439E+00
        -11   -1    0    0    0    0  0.00000000000E+00  0.00000000000E+00  0.45593999997E+02  0.45594000000E+02  0.51100000000E-03 0.  1.
         11   -1    0    0    0    0 -0.00000000000E+00 -0.00000000000E+00 -0.45593999997E+02  0.45594000000E+02  0.51100000000E-03 0. -1.
    9900012    2    1    2    0    0  0.14216956966E+02  0.21430326324E+02  0.31492614724E+02  0.50528861619E+02  0.30000005378E+02 0.  0.
         12    1    1    2    0    0 -0.14216956966E+02 -0.21430326324E+02 -0.31492614724E+02  0.40659138381E+02  0.00000000000E+00 0. -1.
         11    1    3    3    0    0  0.46167509101E+01  0.12627796161E+01  0.22362675621E+02  0.22869155264E+02  0.51100000000E-03 0. -1.
        -11    1    3    3    0    0  0.60163433651E+00  0.15847807430E+02  0.36544373579E+01  0.16274823405E+02  0.51100000000E-03 0.  1.
        -12    1    3    3    0    0  0.89985717196E+01  0.43197392781E+01  0.54755017449E+01  0.11384882950E+02  0.00000000000E+00 0.  1.
</event>
<event>
 7    1  0.2991278E-011  0.5052886E+02  0.7816164E-02  0.1300439E+00
        -11   -1    0    0    0    0  0.00000000000E+00  0.00000000000E+00  0.45593999997E+02  0.45594000000E+02  0.51100000000E-03 0. -1.
         11   -1    0    0    0    0 -0.00000000000E+00 -0.00000000000E+00 -0.45593999997E+02  0.45594000000E+02  0.51100000000E-03 0.  1.
    9900012    2    1    2    0    0 -0.45207025919E+01  0.40398611904E+02 -0.82535110559E+00  0.50528858345E+02  0.29999995425E+02 0.  0.
         12    1    1    2    0    0  0.45207025919E+01 -0.40398611904E+02  0.82535110559E+00  0.40659141655E+02  0.00000000000E+00 0. -1.
         11    1    3    3    0    0 -0.14057633948E+02  0.15513141666E+02 -0.20686849937E+01  0.21036969706E+02  0.51100000000E-03 0. -1.
        -11    1    3    3    0    0  0.49643593867E+01  0.17433467539E+02  0.65392364446E+01  0.19269983604E+02  0.51100000000E-03 0.  1.
         12    1    3    3    0    0  0.45725719695E+01  0.74520026989E+01 -0.52959025566E+01  0.10221905034E+02  0.00000000000E+00 0. -1.
</event>
<event>
 7    1  0.2991278E-011  0.5052882E+02  0.7816164E-02  0.1300439E+00
        -11   -1    0    0    0    0  0.00000000000E+00  0.00000000000E+00  0.45593999997E+02  0.45594000000E+02  0.51100000000E-03 0.  1.
         11   -1    0    0    0    0 -0.00000000000E+00 -0.00000000000E+00 -0.45593999997E+02  0.45594000000E+02  0.51100000000E-03 0. -1.
    9900012    2    1    2    0    0  0.33849977589E+02  0.17010346450E+02  0.14764675524E+02  0.50528824990E+02  0.29999894040E+02 0.  0.
         12    1    1    2    0    0 -0.33849977589E+02 -0.17010346450E+02 -0.14764675524E+02  0.40659175010E+02  0.00000000000E+00 0. -1.
         11    1    3    3    0    0 -0.12055649299E+01  0.41810056143E+01  0.15673267069E+01  0.46250089745E+01  0.51100000000E-03 0. -1.
        -11    1    3    3    0    0  0.11890075658E+02  0.16425271477E+02  0.37092877159E+01  0.20613642518E+02  0.51100000000E-03 0.  1.
         12    1    3    3    0    0  0.23165466861E+02 -0.35959306412E+01  0.94880611012E+01  0.25290173498E+02  0.00000000000E+00 0. -1.
</event>
<event>
 7    1  0.2991278E-011  0.5052886E+02  0.7816164E-02  0.1300439E+00
        -11   -1    0    0    0    0  0.00000000000E+00  0.00000000000E+00  0.45593999997E+02  0.45594000000E+02  0.51100000000E-03 0. -1.
         11   -1    0    0    0    0 -0.00000000000E+00 -0.00000000000E+00 -0.45593999997E+02  0.45594000000E+02  0.51100000000E-03 0.  1.
    9900012    2    1    2    0    0  0.66220276079E+01 -0.38785977666E+02  0.10245120854E+02  0.50528858169E+02  0.29999994890E+02 0.  0.
         12    1    1    2    0    0 -0.66220276079E+01  0.38785977666E+02 -0.10245120854E+02  0.40659141831E+02  0.00000000000E+00 0. -1.
         11    1    3    3    0    0 -0.63498055921E-01 -0.27685977644E+02 -0.26551792079E+01  0.27813079064E+02  0.51100000000E-03 0. -1.
        -11    1    3    3    0    0  0.37622651816E+01  0.20489347518E+01  0.33853693702E+00  0.42973690129E+01  0.51100000000E-03 0.  1.
         12    1    3    3    0    0  0.29232604822E+01 -0.13148934773E+02  0.12561763125E+02  0.18418410092E+02  0.00000000000E+00 0. -1.
</event>
<event>
 7    1  0.2991278E-011  0.5052887E+02  0.7816164E-02  0.1300439E+00
        -11   -1    0    0    0    0  0.00000000000E+00  0.00000000000E+00  0.45593999997E+02  0.45594000000E+02  0.51100000000E-03 0.  1.
         11   -1    0    0    0    0 -0.00000000000E+00 -0.00000000000E+00 -0.45593999997E+02  0.45594000000E+02  0.51100000000E-03 0. -1.
    9900012    2    1    2    0    0  0.56394053906E+01  0.31351948545E+02  0.25266928613E+02  0.50528865082E+02  0.30000015903E+02 0.  0.
         12    1    1    2    0    0 -0.56394053906E+01 -0.31351948545E+02 -0.25266928613E+02  0.40659134918E+02  0.00000000000E+00 0. -1.
         11    1    3    3    0    0  0.92158213839E+01  0.99134712254E+01  0.24940930745E+01  0.13763312684E+02  0.51100000000E-03 0. -1.
        -11    1    3    3    0    0 -0.75344563118E+01  0.21622108622E+02  0.13257872385E+02  0.26458548592E+02  0.51100000000E-03 0.  1.
        -12    1    3    3    0    0  0.39580403185E+01 -0.18363130280E+00  0.95149631543E+01  0.10307003805E+02  0.00000000000E+00 0.  1.
</event>
<event>
 7    1  0.2991278E-011  0.5052886E+02  0.7816164E-02  0.1300439E+00
        -11   -1    0    0    0    0  0.00000000000E+00  0.00000000000E+00  0.45593999997E+02  0.45594000000E+02  0.51100000000E-03 0.  1.
         11   -1    0    0    0    0 -0.00000000000E+00 -0.00000000000E+00 -0.45593999997E+02  0.45594000000E+02  0.51100000000E-03 0. -1.
    9900012    2    1    2    0    0 -0.17776377376E+02  0.20716458846E+02  0.30132948531E+02  0.50528857770E+02  0.29999993677E+02 0.  0.
         12    1    1    2    0    0  0.17776377376E+02 -0.20716458846E+02 -0.30132948531E+02  0.40659142230E+02  0.00000000000E+00 0. -1.
         11    1    3    3    0    0  0.38808303312E+01  0.16934292468E+02  0.97567748497E+01  0.19925505293E+02  0.51100000000E-03 0. -1.
        -11    1    3    3    0    0 -0.19144904565E+02  0.46460486994E+01  0.19703359462E+02  0.27862798024E+02  0.51100000000E-03 0.  1.
        -12    1    3    3    0    0 -0.25123031417E+01 -0.86388232107E+00  0.67281421892E+00  0.27405544537E+01  0.00000000000E+00 0.  1.
</event>
<event>
 7    1  0.2991278E-011  0.5052886E+02  0.7816164E-02  0.1300439E+00
        -11   -1    0    0    0    0  0.00000000000E+00  0.00000000000E+00  0.45593999997E+02  0.45594000000E+02  0.51100000000E-03 0.  1.
         11   -1    0    0    0    0 -0.00000000000E+00 -0.00000000000E+00 -0.45593999997E+02  0.45594000000E+02  0.51100000000E-03 0. -1.
    9900012    2    1    2    0    0  0.61068830522E+01 -0.23879486762E+02  0.32336383739E+02  0.50528860536E+02  0.30000002086E+02 0.  0.
         12    1    1    2    0    0 -0.61068830522E+01  0.23879486762E+02 -0.32336383739E+02  0.40659139464E+02  0.00000000000E+00 0. -1.
         11    1    3    3    0    0 -0.35374936606E+01 -0.63129780754E+00  0.15243087939E+02  0.15660910845E+02  0.51100000000E-03 0. -1.
        -11    1    3    3    0    0  0.14493717330E+02 -0.16737736308E+02  0.11034439060E+02  0.24738199296E+02  0.51100000000E-03 0.  1.
        -12    1    3    3    0    0 -0.48493406172E+01 -0.65104526462E+01  0.60588567396E+01  0.10129750395E+02  0.00000000000E+00 0.  1.
</event>
<event>
 7    1  0.2991278E-011  0.5052886E+02  0.7816164E-02  0.1300439E+00
        -11   -1    0    0    0    0  0.00000000000E+00  0.00000000000E+00  0.45593999997E+02  0.45594000000E+02  0.51100000000E-03 0. -1.
         11   -1    0    0    0    0 -0.00000000000E+00 -0.00000000000E+00 -0.45593999997E+02  0.45594000000E+02  0.51100000000E-03 0.  1.
    9900012    2    1    2    0    0 -0.30464878648E+02 -0.26298172432E+02  0.57846840785E+01  0.50528864813E+02  0.30000015086E+02 0.  0.
         12    1    1    2    0    0  0.30464878648E+02  0.26298172432E+02 -0.57846840785E+01  0.40659135187E+02  0.00000000000E+00 0. -1.
         11    1    3    3    0    0 -0.31109032351E+01  0.61828680147E+00 -0.50984465211E+01  0.60045111955E+01  0.51100000000E-03 0. -1.
        -11    1    3    3    0    0 -0.10413357505E+02 -0.23615432868E+02  0.80383733628E+01  0.27032242427E+02  0.51100000000E-03 0.  1.
         12    1    3    3    0    0 -0.16940617907E+02 -0.33010263651E+01  0.28447572369E+01  0.17492111190E+02  0.00000000000E+00 0. -1.
</event>
<event>
 7    1  0.2991278E-011  0.5052885E+02  0.7816164E-02  0.1300439E+00
        -11   -1    0    0    0    0  0.00000000000E+00  0.00000000000E+00  0.45593999997E+02  0.45594000000E+02  0.51100000000E-03 0.  1.
         11   -1    0    0    0    0 -0.00000000000E+00 -0.00000000000E+00 -0.45593999997E+02  0.45594000000E+02  0.51100000000E-03 0. -1.
    9900012    2    1    2    0    0 -0.20332603412E+02  0.19311081527E+02  0.29442046831E+02  0.50528846630E+02  0.29999959815E+02 0.  0.
         12    1    1    2    0    0  0.20332603412E+02 -0.19311081527E+02 -0.29442046831E+02  0.40659153370E+02  0.00000000000E+00 0. -1.
         11    1    3    3    0    0 -0.91923920614E+01 -0.33019233645E+01  0.36515808516E+01  0.10427694505E+02  0.51100000000E-03 0. -1.
        -11    1    3    3    0    0  0.41148891019E+01  0.97619502619E+01  0.69989617385E+01  0.12696985899E+02  0.51100000000E-03 0.  1.
        -12    1    3    3    0    0 -0.15255100452E+02  0.12851054629E+02  0.18791504241E+02  0.27404166225E+02  0.00000000000E+00 0.  1.
</event>
<event>
 7    1  0.2991278E-011  0.5052885E+02  0.7816164E-02  0.1300439E+00
        -11   -1    0    0    0    0  0.00000000000E+00  0.00000000000E+00  0.45593999997E+02  0.45594000000E+02  0.51100000000E-03 0.  1.
         11   -1    0    0    0    0 -0.00000000000E+00 -0.00000000000E+00 -0.45593999997E+02  0.45594000000E+02  0.51100000000E-03 0. -1.
    9900012    2    1    2    0    0  0.64750967966E+01  0.24038970497E+02  0.32146030598E+02  0.50528852637E+02  0.29999978076E+02 0.  0.
         12    1    1    2    0    0 -0.64750967966E+01 -0.24038970497E+02 -0.32146030598E+02  0.40659147363E+02  0.00000000000E+00 0. -1.
         11    1    3    3    0    0 -0.45289642391E+01  0.12684804505E+02  0.25790858605E+02  0.29096119505E+02  0.51100000000E-03 0. -1.
        -11    1    3    3    0    0  0.12093358958E+02  0.38291643778E+01  0.25846605676E+01  0.12945744522E+02  0.51100000000E-03 0.  1.
        -12    1    3    3    0    0 -0.10892979226E+01  0.75250016146E+01  0.37705114253E+01  0.84869886103E+01  0.00000000000E+00 0.  1.
</event>
<event>
 7    1  0.2991278E-011  0.5052885E+02  0.7816164E-02  0.1300439E+00
        -11   -1    0    0    0    0  0.00000000000E+00  0.00000000000E+00  0.45593999997E+02  0.45594000000E+02  0.51100000000E-03 0.  1.
         11   -1    0    0    0    0 -0.00000000000E+00 -0.00000000000E+00 -0.45593999997E+02  0.45594000000E+02  0.51100000000E-03 0. -1.
    9900012    2    1    2    0    0 -0.32259697744E+02 -0.18489305183E+02 -0.16450641643E+02  0.50528854471E+02  0.29999983650E+02 0.  0.
         12    1    1    2    0    0  0.32259697744E+02  0.18489305183E+02  0.16450641643E+02  0.40659145529E+02  0.00000000000E+00 0. -1.
         11    1    3    3    0    0 -0.28370871398E+01 -0.60032865005E+01  0.94219958686E-01  0.66405865635E+01  0.51100000000E-03 0. -1.
        -11    1    3    3    0    0 -0.50451653317E+01  0.74163505794E+01 -0.55749194933E+01  0.10561045249E+02  0.51100000000E-03 0.  1.
        -12    1    3    3    0    0 -0.24377445272E+02 -0.19902369262E+02 -0.10969942108E+02  0.33327222658E+02  0.00000000000E+00 0.  1.
</event>
<event>
 7    1  0.2991278E-011  0.5052887E+02  0.7816164E-02  0.1300439E+00
        -11   -1    0    0    0    0  0.00000000000E+00  0.00000000000E+00  0.45593999997E+02  0.45594000000E+02  0.51100000000E-03 0.  1.
         11   -1    0    0    0    0 -0.00000000000E+00 -0.00000000000E+00 -0.45593999997E+02  0.45594000000E+02  0.51100000000E-03 0. -1.
    9900012    2    1    2    0    0 -0.64987429695E+01  0.18829785067E+02  0.35445316350E+02  0.50528869205E+02  0.30000028437E+02 0.  0.
         12    1    1    2    0    0  0.64987429695E+01 -0.18829785067E+02 -0.35445316350E+02  0.40659130795E+02  0.00000000000E+00 0. -1.
         11    1    3    3    0    0 -0.59079092008E+01  0.35192017671E+01  0.32462041739E+02  0.33182409894E+02  0.51100000000E-03 0.  1.
        -11    1    3    3    0    0 -0.28942514761E+01  0.14059140705E+02  0.17862665803E+01  0.14464676890E+02  0.51100000000E-03 0. -1.
        -12    1    3    3    0    0  0.23034177074E+01  0.12514425943E+01  0.11970080302E+01  0.28817824217E+01  0.00000000000E+00 0.  1.
</event>
<event>
 7    1  0.2991278E-011  0.5052886E+02  0.7816164E-02  0.1300439E+00
        -11   -1    0    0    0    0  0.00000000000E+00  0.00000000000E+00  0.45593999997E+02  0.45594000000E+02  0.51100000000E-03 0.  1.
         11   -1    0    0    0    0 -0.00000000000E+00 -0.00000000000E+00 -0.45593999997E+02  0.45594000000E+02  0.51100000000E-03 0. -1.
    9900012    2    1    2    0    0 -0.92218250423E+01 -0.20904865343E+02  0.33631985006E+02  0.50528857515E+02  0.29999992903E+02 0.  0.
         12    1    1    2    0    0  0.92218250423E+01  0.20904865343E+02 -0.33631985006E+02  0.40659142485E+02  0.00000000000E+00 0. -1.
         11    1    3    3    0    0 -0.50820742376E+01  0.13049297764E+01  0.39529933139E+01  0.65693589245E+01  0.51100000000E-03 0. -1.
        -11    1    3    3    0    0 -0.68899902841E+00 -0.20756383822E+02  0.32975822571E+02  0.38970592291E+02  0.51100000000E-03 0.  1.
        -12    1    3    3    0    0 -0.34507517763E+01 -0.14534112978E+01 -0.32968308785E+01  0.49889062994E+01  0.00000000000E+00 0.  1.
</event>
<event>
 7    1  0.2991278E-011  0.5052886E+02  0.7816164E-02  0.1300439E+00
        -11   -1    0    0    0    0  0.00000000000E+00  0.00000000000E+00  0.45593999997E+02  0.45594000000E+02  0.51100000000E-03 0.  1.
         11   -1    0    0    0    0 -0.00000000000E+00 -0.00000000000E+00 -0.45593999997E+02  0.45594000000E+02  0.51100000000E-03 0. -1.
    9900012    2    1    2    0    0  0.15454961343E+02 -0.24573262303E+02  0.28468656409E+02  0.50528862674E+02  0.30000008585E+02 0.  0.
         12    1    1    2    0    0 -0.15454961343E+02  0.24573262303E+02 -0.28468656409E+02  0.40659137326E+02  0.00000000000E+00 0. -1.
         11    1    3    3    0    0  0.18180643841E+02 -0.89943587816E+01  0.15912113817E+02  0.25780412463E+02  0.51100000000E-03 0. -1.
        -11    1    3    3    0    0 -0.68232389208E+01 -0.11856595363E+02  0.13399326692E+02  0.19148822393E+02  0.51100000000E-03 0.  1.
        -12    1    3    3    0    0  0.40975564227E+01 -0.37223081579E+01 -0.84278410005E+00  0.55996278179E+01  0.00000000000E+00 0.  1.
</event>
<event>
 7    1  0.2991278E-011  0.5052886E+02  0.7816164E-02  0.1300439E+00
        -11   -1    0    0    0    0  0.00000000000E+00  0.00000000000E+00  0.45593999997E+02  0.45594000000E+02  0.51100000000E-03 0.  1.
         11   -1    0    0    0    0 -0.00000000000E+00 -0.00000000000E+00 -0.45593999997E+02  0.45594000000E+02  0.51100000000E-03 0. -1.
    9900012    2    1    2    0    0  0.38415344418E+02 -0.12917753820E+02  0.32493816381E+01  0.50528861648E+02  0.30000005466E+02 0.  0.
         12    1    1    2    0    0 -0.38415344418E+02  0.12917753820E+02 -0.32493816381E+01  0.40659138352E+02  0.00000000000E+00 0. -1.
         11    1    3    3    0    0  0.29708076454E+02  0.25423998964E+01 -0.60783843629E+01  0.30429925412E+02  0.51100000000E-03 0. -1.
        -11    1    3    3    0    0  0.36525533107E+01 -0.67883329649E+01  0.32570308695E+01  0.83684443283E+01  0.51100000000E-03 0.  1.
         12    1    3    3    0    0  0.50547146526E+01 -0.86718207517E+01  0.60707351315E+01  0.11730491908E+02  0.00000000000E+00 0. -1.
</event>
<event>
 7    1  0.2991278E-011  0.5052887E+02  0.7816164E-02  0.1300439E+00
        -11   -1    0    0    0    0  0.00000000000E+00  0.00000000000E+00  0.45593999997E+02  0.45594000000E+02  0.51100000000E-03 0.  1.
         11   -1    0    0    0    0 -0.00000000000E+00 -0.00000000000E+00 -0.45593999997E+02  0.45594000000E+02  0.51100000000E-03 0. -1.
    9900012    2    1    2    0    0  0.10120594480E+02  0.26012771710E+02  0.29564745189E+02  0.50528869627E+02  0.30000029717E+02 0.  0.
         12    1    1    2    0    0 -0.10120594480E+02 -0.26012771710E+02 -0.29564745189E+02  0.40659130373E+02  0.00000000000E+00 0. -1.
         11    1    3    3    0    0  0.87726370502E+01  0.86060905616E+00  0.17666611175E+02  0.19743580208E+02  0.51100000000E-03 0. -1.
        -11    1    3    3    0    0  0.53123821543E+01  0.20085388278E+02  0.12624575109E+02  0.24310987709E+02  0.51100000000E-03 0.  1.
         12    1    3    3    0    0 -0.39644247245E+01  0.50667743750E+01 -0.72644109525E+00  0.64743017097E+01  0.00000000000E+00 0. -1.
</event>
<event>
 7    1  0.2991278E-011  0.5052886E+02  0.7816164E-02  0.1300439E+00
        -11   -1    0    0    0    0  0.00000000000E+00  0.00000000000E+00  0.45593999997E+02  0.45594000000E+02  0.51100000000E-03 0.  1.
         11   -1    0    0    0    0 -0.00000000000E+00 -0.00000000000E+00 -0.45593999997E+02  0.45594000000E+02  0.51100000000E-03 0. -1.
    9900012    2    1    2    0    0  0.18166965033E+02 -0.15263396799E+02  0.33017504947E+02  0.50528861626E+02  0.30000005399E+02 0.  0.
         12    1    1    2    0    0 -0.18166965033E+02  0.15263396799E+02 -0.33017504947E+02  0.40659138374E+02  0.00000000000E+00 0. -1.
         11    1    3    3    0    0 -0.26379933277E+01  0.55706248450E+01  0.14200075001E+02  0.15480083987E+02  0.51100000000E-03 0. -1.
        -11    1    3    3    0    0  0.12800546904E+02 -0.14562744670E+02  0.11876776442E+02  0.22737311897E+02  0.51100000000E-03 0.  1.
         12    1    3    3    0    0  0.80044114566E+01 -0.62712769741E+01  0.69406535041E+01  0.12311465742E+02  0.00000000000E+00 0. -1.
</event>
<event>
 7    1  0.2991278E-011  0.5052886E+02  0.7816164E-02  0.1300439E+00
        -11   -1    0    0    0    0  0.00000000000E+00  0.00000000000E+00  0.45593999997E+02  0.45594000000E+02  0.51100000000E-03 0. -1.
         11   -1    0    0    0    0 -0.00000000000E+00 -0.00000000000E+00 -0.45593999997E+02  0.45594000000E+02  0.51100000000E-03 0.  1.
    9900012    2    1    2    0    0 -0.13529620208E+02  0.26700164922E+02 -0.27517556796E+02  0.50528863734E+02  0.30000011807E+02 0.  0.
         12    1    1    2    0    0  0.13529620208E+02 -0.26700164922E+02  0.27517556796E+02  0.40659136266E+02  0.00000000000E+00 0. -1.
         11    1    3    3    0    0 -0.59271749208E+01  0.30061403000E+01 -0.13978339686E+02  0.15477799026E+02  0.51100000000E-03 0. -1.
        -11    1    3    3    0    0  0.46822988206E+01  0.15954904612E+02 -0.25064230662E+01  0.16815619533E+02  0.51100000000E-03 0.  1.
        -12    1    3    3    0    0 -0.12284744108E+02  0.77391200097E+01 -0.11032794044E+02  0.18235445175E+02  0.00000000000E+00 0.  1.
</event>
<event>
 7    1  0.2991278E-011  0.5052886E+02  0.7816164E-02  0.1300439E+00
        -11   -1    0    0    0    0  0.00000000000E+00  0.00000000000E+00  0.45593999997E+02  0.45594000000E+02  0.51100000000E-03 0.  1.
         11   -1    0    0    0    0 -0.00000000000E+00 -0.00000000000E+00 -0.45593999997E+02  0.45594000000E+02  0.51100000000E-03 0. -1.
    9900012    2    1    2    0    0  0.15084232642E+01  0.29983947469E+02  0.27419943830E+02  0.50528858762E+02  0.29999996694E+02 0.  0.
         12    1    1    2    0    0 -0.15084232642E+01 -0.29983947469E+02 -0.27419943830E+02  0.40659141238E+02  0.00000000000E+00 0. -1.
         11    1    3    3    0    0  0.50347828412E+00  0.21643690853E+00 -0.42207442715E+00  0.69172422333E+00  0.51100000000E-03 0. -1.
        -11    1    3    3    0    0  0.26326665091E+01  0.19095427890E+02  0.32731678756E+02  0.37985906514E+02  0.51100000000E-03 0.  1.
        -12    1    3    3    0    0 -0.16277215290E+01  0.10672082671E+02 -0.48896604990E+01  0.11851228025E+02  0.00000000000E+00 0.  1.
</event>
<event>
 7    1  0.2991278E-011  0.5052886E+02  0.7816164E-02  0.1300439E+00
        -11   -1    0    0    0    0  0.00000000000E+00  0.00000000000E+00  0.45593999997E+02  0.45594000000E+02  0.51100000000E-03 0. -1.
         11   -1    0    0    0    0 -0.00000000000E+00 -0.00000000000E+00 -0.45593999997E+02  0.45594000000E+02  0.51100000000E-03 0.  1.
    9900012    2    1    2    0    0  0.23307779270E+02  0.23534512062E+02 -0.23580492414E+02  0.50528862590E+02  0.30000008327E+02 0.  0.
         12    1    1    2    0    0 -0.23307779270E+02 -0.23534512062E+02  0.23580492414E+02  0.40659137410E+02  0.00000000000E+00 0. -1.
         11    1    3    3    0    0 -0.56849657094E+01  0.92565651677E+01 -0.65637399062E+01  0.12691946881E+02  0.51100000000E-03 0. -1.
        -11    1    3    3    0    0  0.20738478757E+02  0.11019224165E+02 -0.16950345992E+02  0.28962424481E+02  0.51100000000E-03 0.  1.
         12    1    3    3    0    0  0.82542662231E+01  0.32587227294E+01 -0.66406515226E-01  0.88744912268E+01  0.00000000000E+00 0. -1.
</event>
<event>
 7    1  0.2991278E-011  0.5052885E+02  0.7816164E-02  0.1300439E+00
        -11   -1    0    0    0    0  0.00000000000E+00  0.00000000000E+00  0.45593999997E+02  0.45594000000E+02  0.51100000000E-03 0.  1.
         11   -1    0    0    0    0 -0.00000000000E+00 -0.00000000000E+00 -0.45593999997E+02  0.45594000000E+02  0.51100000000E-03 0. -1.
    9900012    2    1    2    0    0 -0.80430474199E+01 -0.27993280228E+02  0.28369919111E+02  0.50528847770E+02  0.29999963282E+02 0.  0.
         12    1    1    2    0    0  0.80430474199E+01  0.27993280228E+02 -0.28369919111E+02  0.40659152230E+02  0.00000000000E+00 0. -1.
         11    1    3    3    0    0 -0.11089148699E+02 -0.15959014821E+02  0.19265258766E+00  0.19434415047E+02  0.51100000000E-03 0. -1.
        -11    1    3    3    0    0  0.67508310892E+00 -0.52525065437E+01  0.17014540884E+02  0.17819628614E+02  0.51100000000E-03 0.  1.
         12    1    3    3    0    0  0.23710181706E+01 -0.67817588625E+01  0.11162725639E+02  0.13274804109E+02  0.00000000000E+00 0. -1.
</event>
<event>
 7    1  0.2991278E-011  0.5052886E+02  0.7816164E-02  0.1300439E+00
        -11   -1    0    0    0    0  0.00000000000E+00  0.00000000000E+00  0.45593999997E+02  0.45594000000E+02  0.51100000000E-03 0.  1.
         11   -1    0    0    0    0 -0.00000000000E+00 -0.00000000000E+00 -0.45593999997E+02  0.45594000000E+02  0.51100000000E-03 0. -1.
    9900012    2    1    2    0    0  0.36096386784E+02  0.10485166243E+02 -0.15500898665E+02  0.50528859461E+02  0.29999998816E+02 0.  0.
         12    1    1    2    0    0 -0.36096386784E+02 -0.10485166243E+02  0.15500898665E+02  0.40659140539E+02  0.00000000000E+00 0. -1.
         11    1    3    3    0    0 -0.17884074160E+01  0.92580029678E+01 -0.21953239359E+01  0.96813463672E+01  0.51100000000E-03 0. -1.
        -11    1    3    3    0    0  0.23701714838E+02  0.43297379210E+01 -0.79173842178E+01  0.25361444948E+02  0.51100000000E-03 0.  1.
         12    1    3    3    0    0  0.14183079361E+02 -0.31025746463E+01 -0.53881905112E+01  0.15486068145E+02  0.00000000000E+00 0. -1.
</event>
<event>
 7    1  0.2991278E-011  0.5052885E+02  0.7816164E-02  0.1300439E+00
        -11   -1    0    0    0    0  0.00000000000E+00  0.00000000000E+00  0.45593999997E+02  0.45594000000E+02  0.51100000000E-03 0.  1.
         11   -1    0    0    0    0 -0.00000000000E+00 -0.00000000000E+00 -0.45593999997E+02  0.45594000000E+02  0.51100000000E-03 0. -1.
    9900012    2    1    2    0    0  0.27711444515E+02 -0.15694747243E+02  0.25276804856E+02  0.50528854511E+02  0.29999983772E+02 0.  0.
         12    1    1    2    0    0 -0.27711444515E+02  0.15694747243E+02 -0.25276804856E+02  0.40659145489E+02  0.00000000000E+00 0. -1.
         11    1    3    3    0    0  0.61794884903E+00  0.19903814017E+01 -0.80607614275E+00  0.22345554174E+01  0.51100000000E-03 0. -1.
        -11    1    3    3    0    0  0.28791248781E+01 -0.11736690656E+02  0.18744812294E+02  0.22302628899E+02  0.51100000000E-03 0.  1.
        -12    1    3    3    0    0  0.24214370788E+02 -0.59484379896E+01  0.73380687049E+01  0.25991670195E+02  0.00000000000E+00 0.  1.
</event>
<event>
 7    1  0.2991278E-011  0.5052886E+02  0.7816164E-02  0.1300439E+00
        -11   -1    0    0    0    0  0.00000000000E+00  0.00000000000E+00  0.45593999997E+02  0.45594000000E+02  0.51100000000E-03 0. -1.
         11   -1    0    0    0    0 -0.00000000000E+00 -0.00000000000E+00 -0.45593999997E+02  0.45594000000E+02  0.51100000000E-03 0.  1.
    9900012    2    1    2    0    0 -0.19189342357E+02  0.14620763521E+02 -0.32728707098E+02  0.50528857679E+02  0.29999993400E+02 0.  0.
         12    1    1    2    0    0  0.19189342357E+02 -0.14620763521E+02  0.32728707098E+02  0.40659142321E+02  0.00000000000E+00 0. -1.
         11    1    3    3    0    0 -0.66245359744E+01  0.11342145481E+01  0.36967573455E+01  0.76705237533E+01  0.51100000000E-03 0. -1.
        -11    1    3    3    0    0 -0.54761716767E+01  0.14408145264E+02 -0.23999030233E+02  0.28522562273E+02  0.51100000000E-03 0.  1.
        -12    1    3    3    0    0 -0.70886347060E+01 -0.92159629158E+00 -0.12426434210E+02  0.14335771653E+02  0.00000000000E+00 0.  1.
</event>
<event>
 7    1  0.2991278E-011  0.5052887E+02  0.7816164E-02  0.1300439E+00
        -11   -1    0    0    0    0  0.00000000000E+00  0.00000000000E+00  0.45593999997E+02  0.45594000000E+02  0.51100000000E-03 0.  1.
         11   -1    0    0    0    0 -0.00000000000E+00 -0.00000000000E+00 -0.45593999997E+02  0.45594000000E+02  0.51100000000E-03 0. -1.
    9900012    2    1    2    0    0 -0.87901830942E+01 -0.82339344699E+01  0.38834261970E+02  0.50528869434E+02  0.30000029131E+02 0.  0.
         12    1    1    2    0    0  0.87901830942E+01  0.82339344699E+01 -0.38834261970E+02  0.40659130566E+02  0.00000000000E+00 0. -1.
         11    1    3    3    0    0  0.12364403306E+01 -0.95461402262E+01  0.26295737889E+01  0.99785889023E+01  0.51100000000E-03 0. -1.
        -11    1    3    3    0    0 -0.46240809432E+01  0.89522815653E+00  0.34571549311E+02  0.34890909705E+02  0.51100000000E-03 0.  1.
        -12    1    3    3    0    0 -0.54025424816E+01  0.41697759969E+00  0.16331388697E+01  0.56593708265E+01  0.00000000000E+00 0.  1.
</event>
<event>
 7    1  0.2991278E-011  0.5052886E+02  0.7816164E-02  0.1300439E+00
        -11   -1    0    0    0    0  0.00000000000E+00  0.00000000000E+00  0.45593999997E+02  0.45594000000E+02  0.51100000000E-03 0.  1.
         11   -1    0    0    0    0 -0.00000000000E+00 -0.00000000000E+00 -0.45593999997E+02  0.45594000000E+02  0.51100000000E-03 0. -1.
    9900012    2    1    2    0    0 -0.27725906378E+02 -0.44906826334E+01  0.29398536199E+02  0.50528855326E+02  0.29999986248E+02 0.  0.
         12    1    1    2    0    0  0.27725906378E+02  0.44906826334E+01 -0.29398536199E+02  0.40659144674E+02  0.00000000000E+00 0. -1.
         11    1    3    3    0    0  0.70497377929E+00  0.16612974623E+01 -0.20655307075E+01  0.27428661383E+01  0.51100000000E-03 0. -1.
        -11    1    3    3    0    0 -0.21166356644E+02 -0.88438499174E+01  0.32696782653E+02  0.39941306076E+02  0.51100000000E-03 0.  1.
        -12    1    3    3    0    0 -0.72645235134E+01  0.26918698216E+01 -0.12327157460E+01  0.78446831117E+01  0.00000000000E+00 0.  1.
</event>
<event>
 7    1  0.2991278E-011  0.5052887E+02  0.7816164E-02  0.1300439E+00
        -11   -1    0    0    0    0  0.00000000000E+00  0.00000000000E+00  0.45593999997E+02  0.45594000000E+02  0.51100000000E-03 0.  1.
         11   -1    0    0    0    0 -0.00000000000E+00 -0.00000000000E+00 -0.45593999997E+02  0.45594000000E+02  0.51100000000E-03 0. -1.
    9900012    2    1    2    0    0  0.21580122138E+02 -0.13601242643E+02  0.31661799823E+02  0.50528867681E+02  0.30000023803E+02 0.  0.
         12    1    1    2    0    0 -0.21580122138E+02  0.13601242643E+02 -0.31661799823E+02  0.40659132319E+02  0.00000000000E+00 0. -1.
         11    1    3    3    0    0  0.40840416402E+01 -0.21943488341E+01 -0.21452102168E+01  0.51084723803E+01  0.51100000000E-03 0. -1.
        -11    1    3    3    0    0  0.11088200957E+02 -0.15307629709E+02  0.32792999309E+02  0.37850396719E+02  0.51100000000E-03 0.  1.
        -12    1    3    3    0    0  0.64078795403E+01  0.39007359008E+01  0.10140107306E+01  0.75699985820E+01  0.00000000000E+00 0.  1.
</event>
<event>
 7    1  0.2991278E-011  0.5052886E+02  0.7816164E-02  0.1300439E+00
        -11   -1    0    0    0    0  0.00000000000E+00  0.00000000000E+00  0.45593999997E+02  0.45594000000E+02  0.51100000000E-03 0. -1.
         11   -1    0    0    0    0 -0.00000000000E+00 -0.00000000000E+00 -0.45593999997E+02  0.45594000000E+02  0.51100000000E-03 0.  1.
    9900012    2    1    2    0    0  0.10467586542E+02  0.36378343264E+02 -0.14839529007E+02  0.50528857759E+02  0.29999993645E+02 0.  0.
         12    1    1    2    0    0 -0.10467586542E+02 -0.36378343264E+02  0.14839529007E+02  0.40659142241E+02  0.00000000000E+00 0. -1.
         11    1    3    3    0    0 -0.31757381026E+01  0.33185451036E+01  0.40103343240E+01  0.60976090193E+01  0.51100000000E-03 0. -1.
        -11    1    3    3    0    0  0.79428730755E+01  0.21587460953E+01 -0.71450024980E+01  0.10899563219E+02  0.51100000000E-03 0.  1.
         12    1    3    3    0    0  0.57004515694E+01  0.30901052065E+02 -0.11704860833E+02  0.33531685521E+02  0.00000000000E+00 0. -1.
</event>
<event>
 7    1  0.2991278E-011  0.5052884E+02  0.7816164E-02  0.1300439E+00
        -11   -1    0    0    0    0  0.00000000000E+00  0.00000000000E+00  0.45593999997E+02  0.45594000000E+02  0.51100000000E-03 0.  1.
         11   -1    0    0    0    0 -0.00000000000E+00 -0.00000000000E+00 -0.45593999997E+02  0.45594000000E+02  0.51100000000E-03 0. -1.
    9900012    2    1    2    0    0 -0.25428783566E+02  0.22864887809E+01  0.31643578740E+02  0.50528841867E+02  0.29999945339E+02 0.  0.
         12    1    1    2    0    0  0.25428783566E+02 -0.22864887809E+01 -0.31643578740E+02  0.40659158133E+02  0.00000000000E+00 0. -1.
         11    1    3    3    0    0 -0.19690192169E+02  0.10232434148E+02  0.15234061798E+02  0.26916222160E+02  0.51100000000E-03 0. -1.
        -11    1    3    3    0    0 -0.11068642290E+01 -0.11044387195E+02  0.12939492902E+02  0.17047994420E+02  0.51100000000E-03 0.  1.
        -12    1    3    3    0    0 -0.46317271674E+01  0.30984418279E+01  0.34700240408E+01  0.65646252869E+01  0.00000000000E+00 0.  1.
</event>
<event>
 7    1  0.2991278E-011  0.5052885E+02  0.7816164E-02  0.1300439E+00
        -11   -1    0    0    0    0  0.00000000000E+00  0.00000000000E+00  0.45593999997E+02  0.45594000000E+02  0.51100000000E-03 0.  1.
         11   -1    0    0    0    0 -0.00000000000E+00 -0.00000000000E+00 -0.45593999997E+02  0.45594000000E+02  0.51100000000E-03 0. -1.
    9900012    2    1    2    0    0 -0.22811190499E+02  0.12285023853E+01  0.33634903718E+02  0.50528851236E+02  0.29999973818E+02 0.  0.
         12    1    1    2    0    0  0.22811190499E+02 -0.12285023853E+01 -0.33634903718E+02  0.40659148764E+02  0.00000000000E+00 0. -1.
         11    1    3    3    0    0 -0.16164434195E+02  0.50806443464E+01  0.25118797043E+01  0.17129256251E+02  0.51100000000E-03 0. -1.
        -11    1    3    3    0    0 -0.31256701722E+01  0.21667066956E+01  0.45665176991E+01  0.59428542038E+01  0.51100000000E-03 0.  1.
         12    1    3    3    0    0 -0.35210861319E+01 -0.60188486568E+01  0.26556506314E+02  0.27456740781E+02  0.00000000000E+00 0. -1.
</event>
<event>
 7    1  0.2991278E-011  0.5052887E+02  0.7816164E-02  0.1300439E+00
        -11   -1    0    0    0    0  0.00000000000E+00  0.00000000000E+00  0.45593999997E+02  0.45594000000E+02  0.51100000000E-03 0.  1.
         11   -1    0    0    0    0 -0.00000000000E+00 -0.00000000000E+00 -0.45593999997E+02  0.45594000000E+02  0.51100000000E-03 0. -1.
    9900012    2    1    2    0    0 -0.36206607370E+02  0.16288432864E+02  0.87711854137E+01  0.50528866266E+02  0.30000019503E+02 0.  0.
         12    1    1    2    0    0  0.36206607370E+02 -0.16288432864E+02 -0.87711854137E+01  0.40659133734E+02  0.00000000000E+00 0. -1.
         11    1    3    3    0    0 -0.15013033558E+02 -0.31384474747E+01  0.14096303036E+01  0.15402210458E+02  0.51100000000E-03 0. -1.
        -11    1    3    3    0    0 -0.20621806559E+00  0.68085169275E+01  0.81545435441E+01  0.10625206319E+02  0.51100000000E-03 0.  1.
         12    1    3    3    0    0 -0.20987355747E+02  0.12618363411E+02 -0.79298843401E+00  0.24501449489E+02  0.00000000000E+00 0. -1.
</event>
<event>
 7    1  0.2991278E-011  0.5052886E+02  0.7816164E-02  0.1300439E+00
        -11   -1    0    0    0    0  0.00000000000E+00  0.00000000000E+00  0.45593999997E+02  0.45594000000E+02  0.51100000000E-03 0. -1.
         11   -1    0    0    0    0 -0.00000000000E+00 -0.00000000000E+00 -0.45593999997E+02  0.45594000000E+02  0.51100000000E-03 0.  1.
    9900012    2    1    2    0    0  0.19164363093E+02 -0.25760287397E+02 -0.24945943759E+02  0.50528864132E+02  0.30000013015E+02 0.  0.
         12    1    1    2    0    0 -0.19164363093E+02  0.25760287397E+02  0.24945943759E+02  0.40659135868E+02  0.00000000000E+00 0. -1.
         11    1    3    3    0    0 -0.58161784815E+01 -0.83314608556E+01 -0.19459907713E+01  0.10345436311E+02  0.51100000000E-03 0. -1.
        -11    1    3    3    0    0  0.19081726992E+02 -0.18340272689E+02 -0.21311884552E+02  0.33980499271E+02  0.51100000000E-03 0.  1.
         12    1    3    3    0    0  0.58988145821E+01  0.91144614689E+00 -0.16880684354E+01  0.62029285499E+01  0.00000000000E+00 0. -1.
</event>
<event>
 7    1  0.2991278E-011  0.5052887E+02  0.7816164E-02  0.1300439E+00
        -11   -1    0    0    0    0  0.00000000000E+00  0.00000000000E+00  0.45593999997E+02  0.45594000000E+02  0.51100000000E-03 0.  1.
         11   -1    0    0    0    0 -0.00000000000E+00 -0.00000000000E+00 -0.45593999997E+02  0.45594000000E+02  0.51100000000E-03 0. -1.
    9900012    2    1    2    0    0 -0.23469365106E+01 -0.26141824269E+02  0.31052560332E+02  0.50528873223E+02  0.30000040648E+02 0.  0.
         12    1    1    2    0    0  0.23469365106E+01  0.26141824269E+02 -0.31052560332E+02  0.40659126777E+02  0.00000000000E+00 0. -1.
         11    1    3    3    0    0  0.82491876902E+01  0.10996332051E+01  0.10400963164E+01  0.83868999840E+01  0.51100000000E-03 0. -1.
        -11    1    3    3    0    0 -0.40900252939E+01 -0.13959731149E+02  0.12163947160E+02  0.18962173172E+02  0.51100000000E-03 0.  1.
         12    1    3    3    0    0 -0.65060989068E+01 -0.13281726325E+02  0.17848516856E+02  0.23179800067E+02  0.00000000000E+00 0. -1.
</event>
<event>
 7    1  0.2991278E-011  0.5052886E+02  0.7816164E-02  0.1300439E+00
        -11   -1    0    0    0    0  0.00000000000E+00  0.00000000000E+00  0.45593999997E+02  0.45594000000E+02  0.51100000000E-03 0.  1.
         11   -1    0    0    0    0 -0.00000000000E+00 -0.00000000000E+00 -0.45593999997E+02  0.45594000000E+02  0.51100000000E-03 0. -1.
    9900012    2    1    2    0    0 -0.32949937793E+02  0.17146753486E+02  0.16536497355E+02  0.50528864490E+02  0.30000014103E+02 0.  0.
         12    1    1    2    0    0  0.32949937793E+02 -0.17146753486E+02 -0.16536497355E+02  0.40659135510E+02  0.00000000000E+00 0. -1.
         11    1    3    3    0    0 -0.12553366507E+02  0.72378717349E+01  0.20714594804E+02  0.25279798972E+02  0.51100000000E-03 0.  1.
        -11    1    3    3    0    0 -0.62468372034E+01  0.70582986008E+01  0.18523950584E+01  0.96059315997E+01  0.51100000000E-03 0. -1.
         12    1    3    3    0    0 -0.14149734083E+02  0.28505831506E+01 -0.60304925072E+01  0.15643133918E+02  0.00000000000E+00 0. -1.
</event>
<event>
 7    1  0.2991278E-011  0.5052885E+02  0.7816164E-02  0.1300439E+00
        -11   -1    0    0    0    0  0.00000000000E+00  0.00000000000E+00  0.45593999997E+02  0.45594000000E+02  0.51100000000E-03 0.  1.
         11   -1    0    0    0    0 -0.00000000000E+00 -0.00000000000E+00 -0.45593999997E+02  0.45594000000E+02  0.51100000000E-03 0. -1.
    9900012    2    1    2    0    0  0.23849827718E+02  0.94934410419E+01  0.31531360793E+02  0.50528850741E+02  0.29999972313E+02 0.  0.
         12    1    1    2    0    0 -0.23849827718E+02 -0.94934410419E+01 -0.31531360793E+02  0.40659149259E+02  0.00000000000E+00 0. -1.
         11    1    3    3    0    0 -0.61056270876E+01  0.56955475099E+01  0.65061732516E+01  0.10585283851E+02  0.51100000000E-03 0. -1.
        -11    1    3    3    0    0  0.26324589333E+02  0.25925115988E+01  0.18164244460E+02  0.32088080295E+02  0.51100000000E-03 0.  1.
         12    1    3    3    0    0  0.36308654725E+01  0.12053819333E+01  0.68609430812E+01  0.78554865952E+01  0.00000000000E+00 0. -1.
</event>
<event>
 7    1  0.2991278E-011  0.5052887E+02  0.7816164E-02  0.1300439E+00
        -11   -1    0    0    0    0  0.00000000000E+00  0.00000000000E+00  0.45593999997E+02  0.45594000000E+02  0.51100000000E-03 0.  1.
         11   -1    0    0    0    0 -0.00000000000E+00 -0.00000000000E+00 -0.45593999997E+02  0.45594000000E+02  0.51100000000E-03 0. -1.
    9900012    2    1    2    0    0 -0.32640986543E+02 -0.15974826416E+02  0.18235564666E+02  0.50528869412E+02  0.30000029064E+02 0.  0.
         12    1    1    2    0    0  0.32640986543E+02  0.15974826416E+02 -0.18235564666E+02  0.40659130588E+02  0.00000000000E+00 0. -1.
         11    1    3    3    0    0 -0.45407862669E+00 -0.10852832369E+02  0.44604199798E+01  0.11742465860E+02  0.51100000000E-03 0. -1.
        -11    1    3    3    0    0 -0.24257954871E+02 -0.16504591097E+01  0.23138136857E+01  0.24423884291E+02  0.51100000000E-03 0.  1.
         12    1    3    3    0    0 -0.79289530453E+01 -0.34715349371E+01  0.11461331000E+02  0.14362519261E+02  0.00000000000E+00 0. -1.
</event>
<event>
 7    1  0.2991278E-011  0.5052886E+02  0.7816164E-02  0.1300439E+00
        -11   -1    0    0    0    0  0.00000000000E+00  0.00000000000E+00  0.45593999997E+02  0.45594000000E+02  0.51100000000E-03 0.  1.
         11   -1    0    0    0    0 -0.00000000000E+00 -0.00000000000E+00 -0.45593999997E+02  0.45594000000E+02  0.51100000000E-03 0. -1.
    9900012    2    1    2    0    0  0.38254373872E+01  0.33379796013E+02  0.22898053167E+02  0.50528860906E+02  0.30000003209E+02 0.  0.
         12    1    1    2    0    0 -0.38254373872E+01 -0.33379796013E+02 -0.22898053167E+02  0.40659139094E+02  0.00000000000E+00 0. -1.
         11    1    3    3    0    0 -0.52593869623E-01  0.32887732825E+01  0.15180986740E+02  0.15533227432E+02  0.51100000000E-03 0. -1.
        -11    1    3    3    0    0  0.76460685799E+01  0.28926911500E+02  0.53466923225E+01  0.30394336523E+02  0.51100000000E-03 0.  1.
        -12    1    3    3    0    0 -0.37680373231E+01  0.11641112304E+01  0.23703741048E+01  0.46012969499E+01  0.00000000000E+00 0.  1.
</event>
<event>
 7    1  0.2991278E-011  0.5052886E+02  0.7816164E-02  0.1300439E+00
        -11   -1    0    0    0    0  0.00000000000E+00  0.00000000000E+00  0.45593999997E+02  0.45594000000E+02  0.51100000000E-03 0.  1.
         11   -1    0    0    0    0 -0.00000000000E+00 -0.00000000000E+00 -0.45593999997E+02  0.45594000000E+02  0.51100000000E-03 0. -1.
    9900012    2    1    2    0    0  0.13516751901E+02  0.55000171147E+01  0.37950139438E+02  0.50528857688E+02  0.29999993428E+02 0.  0.
         12    1    1    2    0    0 -0.13516751901E+02 -0.55000171147E+01 -0.37950139438E+02  0.40659142312E+02  0.00000000000E+00 0. -1.
         11    1    3    3    0    0 -0.20420714336E-01  0.25490659266E+01 -0.17037615375E+01  0.30660981298E+01  0.51100000000E-03 0. -1.
        -11    1    3    3    0    0  0.19315697477E+02 -0.55085172595E+00  0.29129018120E+02  0.34955676271E+02  0.51100000000E-03 0.  1.
        -12    1    3    3    0    0 -0.57785248620E+01  0.35018029140E+01  0.10524882855E+02  0.12507083287E+02  0.00000000000E+00 0.  1.
</event>
<event>
 7    1  0.2991278E-011  0.5052885E+02  0.7816164E-02  0.1300439E+00
        -11   -1    0    0    0    0  0.00000000000E+00  0.00000000000E+00  0.45593999997E+02  0.45594000000E+02  0.51100000000E-03 0.  1.
         11   -1    0    0    0    0 -0.00000000000E+00 -0.00000000000E+00 -0.45593999997E+02  0.45594000000E+02  0.51100000000E-03 0. -1.
    9900012    2    1    2    0    0 -0.63036867437E+01  0.39215516127E+02 -0.86932675990E+01  0.50528854987E+02  0.29999985219E+02 0.  0.
         12    1    1    2    0    0  0.63036867437E+01 -0.39215516127E+02  0.86932675990E+01  0.40659145013E+02  0.00000000000E+00 0. -1.
         11    1    3    3    0    0  0.80987904231E+01  0.18796325995E+02  0.21767117911E+00  0.20468015494E+02  0.51100000000E-03 0. -1.
        -11    1    3    3    0    0 -0.70326297607E+01  0.37839937930E-01 -0.19647178785E+01  0.73020154626E+01  0.51100000000E-03 0.  1.
        -12    1    3    3    0    0 -0.73698474060E+01  0.20381350193E+02 -0.69462208996E+01  0.22758824031E+02  0.00000000000E+00 0.  1.
</event>
<event>
 7    1  0.2991278E-011  0.5052886E+02  0.7816164E-02  0.1300439E+00
        -11   -1    0    0    0    0  0.00000000000E+00  0.00000000000E+00  0.45593999997E+02  0.45594000000E+02  0.51100000000E-03 0.  1.
         11   -1    0    0    0    0 -0.00000000000E+00 -0.00000000000E+00 -0.45593999997E+02  0.45594000000E+02  0.51100000000E-03 0. -1.
    9900012    2    1    2    0    0  0.13742959168E+02 -0.21392474496E+02  0.31727890462E+02  0.50528856810E+02  0.29999990760E+02 0.  0.
         12    1    1    2    0    0 -0.13742959168E+02  0.21392474496E+02 -0.31727890462E+02  0.40659143190E+02  0.00000000000E+00 0. -1.
         11    1    3    3    0    0 -0.73682489682E+01  0.41898676177E+00  0.97249329246E+01  0.12208233427E+02  0.51100000000E-03 0. -1.
        -11    1    3    3    0    0  0.10455433105E+02 -0.16240310864E+02  0.14435821762E+02  0.24113413872E+02  0.51100000000E-03 0.  1.
         12    1    3    3    0    0  0.10655775032E+02 -0.55711503933E+01  0.75671357762E+01  0.14207209511E+02  0.00000000000E+00 0. -1.
</event>
<event>
 7    1  0.2991278E-011  0.5052885E+02  0.7816164E-02  0.1300439E+00
        -11   -1    0    0    0    0  0.00000000000E+00  0.00000000000E+00  0.45593999997E+02  0.45594000000E+02  0.51100000000E-03 0. -1.
         11   -1    0    0    0    0 -0.00000000000E+00 -0.00000000000E+00 -0.45593999997E+02  0.45594000000E+02  0.51100000000E-03 0.  1.
    9900012    2    1    2    0    0  0.23421261442E+02 -0.35727209472E+01 -0.33043098888E+02  0.50528853346E+02  0.29999980231E+02 0.  0.
         12    1    1    2    0    0 -0.23421261442E+02  0.35727209472E+01  0.33043098888E+02  0.40659146654E+02  0.00000000000E+00 0. -1.
         11    1    3    3    0    0  0.97062985826E+01  0.12175587942E+02 -0.11989101476E+02  0.19651863229E+02  0.51100000000E-03 0. -1.
        -11    1    3    3    0    0  0.11323855371E+02 -0.13399402419E+02 -0.12087513510E+02  0.21304498792E+02  0.51100000000E-03 0.  1.
         12    1    3    3    0    0  0.23911074894E+01 -0.23489064696E+01 -0.89664839010E+01  0.95724913254E+01  0.00000000000E+00 0. -1.
</event>
<event>
 7    1  0.2991278E-011  0.5052887E+02  0.7816164E-02  0.1300439E+00
        -11   -1    0    0    0    0  0.00000000000E+00  0.00000000000E+00  0.45593999997E+02  0.45594000000E+02  0.51100000000E-03 0.  1.
         11   -1    0    0    0    0 -0.00000000000E+00 -0.00000000000E+00 -0.45593999997E+02  0.45594000000E+02  0.51100000000E-03 0. -1.
    9900012    2    1    2    0    0 -0.13808265460E+02 -0.30197554318E+02  0.23464952988E+02  0.50528874327E+02  0.30000044003E+02 0.  0.
         12    1    1    2    0    0  0.13808265460E+02  0.30197554318E+02 -0.23464952988E+02  0.40659125673E+02  0.00000000000E+00 0. -1.
         11    1    3    3    0    0  0.21442375102E+01 -0.11361671133E+02 -0.31889698107E+01  0.11993950732E+02  0.51100000000E-03 0. -1.
        -11    1    3    3    0    0 -0.11044923959E+02 -0.38237945808E+01  0.83811878477E+01  0.14382491448E+02  0.51100000000E-03 0.  1.
        -12    1    3    3    0    0 -0.49075790112E+01 -0.15012088604E+02  0.18272734951E+02  0.24152432146E+02  0.00000000000E+00 0.  1.
</event>
<event>
 7    1  0.2991278E-011  0.5052886E+02  0.7816164E-02  0.1300439E+00
        -11   -1    0    0    0    0  0.00000000000E+00  0.00000000000E+00  0.45593999997E+02  0.45594000000E+02  0.51100000000E-03 0.  1.
         11   -1    0    0    0    0 -0.00000000000E+00 -0.00000000000E+00 -0.45593999997E+02  0.45594000000E+02  0.51100000000E-03 0. -1.
    9900012    2    1    2    0    0  0.22860943003E+02 -0.33612812459E+02  0.84949691578E+00  0.50528861773E+02  0.30000005845E+02 0.  0.
         12    1    1    2    0    0 -0.22860943003E+02  0.33612812459E+02 -0.84949691578E+00  0.40659138227E+02  0.00000000000E+00 0. -1.
         11    1    3    3    0    0  0.25867313227E+01 -0.65125878531E+01 -0.46681509111E+01  0.84200126288E+01  0.51100000000E-03 0. -1.
        -11    1    3    3    0    0  0.35703547406E+01 -0.30427473842E+01  0.11318409676E+02  0.12252026056E+02  0.51100000000E-03 0.  1.
        -12    1    3    3    0    0  0.16703856939E+02 -0.24057477222E+02 -0.58007618489E+01  0.29856823089E+02  0.00000000000E+00 0.  1.
</event>
<event>
 7    1  0.2991278E-011  0.5052887E+02  0.7816164E-02  0.1300439E+00
        -11   -1    0    0    0    0  0.00000000000E+00  0.00000000000E+00  0.45593999997E+02  0.45594000000E+02  0.51100000000E-03 0.  1.
         11   -1    0    0    0    0 -0.00000000000E+00 -0.00000000000E+00 -0.45593999997E+02  0.45594000000E+02  0.51100000000E-03 0. -1.
    9900012    2    1    2    0    0 -0.19910883140E+02 -0.32738898860E+02  0.13597293974E+02  0.50528866101E+02  0.30000019001E+02 0.  0.
         12    1    1    2    0    0  0.19910883140E+02  0.32738898860E+02 -0.13597293974E+02  0.40659133899E+02  0.00000000000E+00 0. -1.
         11    1    3    3    0    0 -0.11468767408E+02 -0.31607378384E+02  0.75334415745E+01  0.34457390156E+02  0.51100000000E-03 0. -1.
        -11    1    3    3    0    0 -0.77142817150E+00  0.15353821780E+01  0.76125404157E+01  0.78040548242E+01  0.51100000000E-03 0.  1.
         12    1    3    3    0    0 -0.76706875601E+01 -0.26669026544E+01 -0.15486880166E+01  0.82674211206E+01  0.00000000000E+00 0. -1.
</event>
<event>
 7    1  0.2991278E-011  0.5052887E+02  0.7816164E-02  0.1300439E+00
        -11   -1    0    0    0    0  0.00000000000E+00  0.00000000000E+00  0.45593999997E+02  0.45594000000E+02  0.51100000000E-03 0.  1.
         11   -1    0    0    0    0 -0.00000000000E+00 -0.00000000000E+00 -0.45593999997E+02  0.45594000000E+02  0.51100000000E-03 0. -1.
    9900012    2    1    2    0    0 -0.88089931710E+01  0.29258382086E+02  0.26823749187E+02  0.50528870602E+02  0.30000032682E+02 0.  0.
         12    1    1    2    0    0  0.88089931710E+01 -0.29258382086E+02 -0.26823749187E+02  0.40659129398E+02  0.00000000000E+00 0. -1.
         11    1    3    3    0    0 -0.39958545375E+01 -0.36647588654E+01 -0.26690321874E+01  0.60432643584E+01  0.51100000000E-03 0. -1.
        -11    1    3    3    0    0 -0.12731494468E+01  0.69553396460E+01  0.55746957000E+01  0.90041596784E+01  0.51100000000E-03 0.  1.
         12    1    3    3    0    0 -0.35399891867E+01  0.25967801305E+02  0.23918085674E+02  0.35481446565E+02  0.00000000000E+00 0. -1.
</event>
<event>
 7    1  0.2991278E-011  0.5052886E+02  0.7816164E-02  0.1300439E+00
        -11   -1    0    0    0    0  0.00000000000E+00  0.00000000000E+00  0.45593999997E+02  0.45594000000E+02  0.51100000000E-03 0.  1.
         11   -1    0    0    0    0 -0.00000000000E+00 -0.00000000000E+00 -0.45593999997E+02  0.45594000000E+02  0.51100000000E-03 0. -1.
    9900012    2    1    2    0    0  0.22973138657E+01 -0.34755437005E+02  0.20974927824E+02  0.50528860195E+02  0.30000001049E+02 0.  0.
         12    1    1    2    0    0 -0.22973138657E+01  0.34755437005E+02 -0.20974927824E+02  0.40659139805E+02  0.00000000000E+00 0. -1.
         11    1    3    3    0    0  0.59473873185E+01 -0.49879019071E+01 -0.61656518679E+01  0.99129130214E+01  0.51100000000E-03 0. -1.
        -11    1    3    3    0    0 -0.22995406384E+01 -0.22337055726E+02  0.18141142744E+02  0.28867507789E+02  0.51100000000E-03 0.  1.
         12    1    3    3    0    0 -0.13505328143E+01 -0.74304793723E+01  0.89994369481E+01  0.11748439384E+02  0.00000000000E+00 0. -1.
</event>
<event>
 7    1  0.2991278E-011  0.5052887E+02  0.7816164E-02  0.1300439E+00
        -11   -1    0    0    0    0  0.00000000000E+00  0.00000000000E+00  0.45593999997E+02  0.45594000000E+02  0.51100000000E-03 0.  1.
         11   -1    0    0    0    0 -0.00000000000E+00 -0.00000000000E+00 -0.45593999997E+02  0.45594000000E+02  0.51100000000E-03 0. -1.
    9900012    2    1    2    0    0 -0.29916796237E+00 -0.40517528026E+02  0.33771613470E+01  0.50528870674E+02  0.30000032900E+02 0.  0.
         12    1    1    2    0    0  0.29916796237E+00  0.40517528026E+02 -0.33771613470E+01  0.40659129326E+02  0.00000000000E+00 0. -1.
         11    1    3    3    0    0 -0.43601911193E+01  0.26134005189E+01 -0.20383936349E+01  0.54768766410E+01  0.51100000000E-03 0. -1.
        -11    1    3    3    0    0  0.63249468918E+01 -0.19773924046E+02 -0.80021505096E+00  0.20776269390E+02  0.51100000000E-03 0.  1.
         12    1    3    3    0    0 -0.22639237348E+01 -0.23357004499E+02  0.62157700328E+01  0.24275724643E+02  0.00000000000E+00 0. -1.
</event>
<event>
 7    1  0.2991278E-011  0.5052886E+02  0.7816164E-02  0.1300439E+00
        -11   -1    0    0    0    0  0.00000000000E+00  0.00000000000E+00  0.45593999997E+02  0.45594000000E+02  0.51100000000E-03 0.  1.
         11   -1    0    0    0    0 -0.00000000000E+00 -0.00000000000E+00 -0.45593999997E+02  0.45594000000E+02  0.51100000000E-03 0. -1.
    9900012    2    1    2    0    0 -0.24928711561E+02 -0.23377882912E+01  0.32035290465E+02  0.50528858969E+02  0.29999997322E+02 0.  0.
         12    1    1    2    0    0  0.24928711561E+02  0.23377882912E+01 -0.32035290465E+02  0.40659141031E+02  0.00000000000E+00 0. -1.
         11    1    3    3    0    0 -0.87931134094E+01  0.12826272962E+02  0.80638802759E+01  0.17517371004E+02  0.51100000000E-03 0. -1.
        -11    1    3    3    0    0 -0.19279383309E+01 -0.44232255421E+01  0.61349166386E+01  0.78050671251E+01  0.51100000000E-03 0.  1.
         12    1    3    3    0    0 -0.14207659821E+02 -0.10740835711E+02  0.17836493550E+02  0.25206420840E+02  0.00000000000E+00 0. -1.
</event>
<event>
 7    1  0.2991278E-011  0.5052886E+02  0.7816164E-02  0.1300439E+00
        -11   -1    0    0    0    0  0.00000000000E+00  0.00000000000E+00  0.45593999997E+02  0.45594000000E+02  0.51100000000E-03 0.  1.
         11   -1    0    0    0    0 -0.00000000000E+00 -0.00000000000E+00 -0.45593999997E+02  0.45594000000E+02  0.51100000000E-03 0. -1.
    9900012    2    1    2    0    0 -0.19549072714E+02  0.33098814423E+02  0.13246440423E+02  0.50528856575E+02  0.29999990046E+02 0.  0.
         12    1    1    2    0    0  0.19549072714E+02 -0.33098814423E+02 -0.13246440423E+02  0.40659143425E+02  0.00000000000E+00 0. -1.
         11    1    3    3    0    0 -0.17078382081E+02  0.16059791180E+02  0.15246653051E+01  0.23492820857E+02  0.51100000000E-03 0. -1.
        -11    1    3    3    0    0  0.61897171434E+01  0.18060798349E+01  0.10875246162E+01  0.65389014932E+01  0.51100000000E-03 0.  1.
        -12    1    3    3    0    0 -0.86604077761E+01  0.15232943408E+02  0.10634250502E+02  0.20497134225E+02  0.00000000000E+00 0.  1.
</event>
<event>
 7    1  0.2991278E-011  0.5052886E+02  0.7816164E-02  0.1300439E+00
        -11   -1    0    0    0    0  0.00000000000E+00  0.00000000000E+00  0.45593999997E+02  0.45594000000E+02  0.51100000000E-03 0.  1.
         11   -1    0    0    0    0 -0.00000000000E+00 -0.00000000000E+00 -0.45593999997E+02  0.45594000000E+02  0.51100000000E-03 0. -1.
    9900012    2    1    2    0    0  0.11933844520E+02  0.33666578922E+02  0.19424483951E+02  0.50528858862E+02  0.29999996997E+02 0.  0.
         12    1    1    2    0    0 -0.11933844520E+02 -0.33666578922E+02 -0.19424483951E+02  0.40659141138E+02  0.00000000000E+00 0. -1.
         11    1    3    3    0    0 -0.74062917660E+01  0.91096872043E+01 -0.68256687340E+00  0.11760334029E+02  0.51100000000E-03 0. -1.
        -11    1    3    3    0    0  0.12377483789E+02  0.17753912360E+02  0.76406492064E+01  0.22951754391E+02  0.51100000000E-03 0.  1.
        -12    1    3    3    0    0  0.69626524969E+01  0.68029793572E+01  0.12466401618E+02  0.15816770442E+02  0.00000000000E+00 0.  1.
</event>
<event>
 7    1  0.2991278E-011  0.5052885E+02  0.7816164E-02  0.1300439E+00
        -11   -1    0    0    0    0  0.00000000000E+00  0.00000000000E+00  0.45593999997E+02  0.45594000000E+02  0.51100000000E-03 0.  1.
         11   -1    0    0    0    0 -0.00000000000E+00 -0.00000000000E+00 -0.45593999997E+02  0.45594000000E+02  0.51100000000E-03 0. -1.
    9900012    2    1    2    0    0  0.63236782384E+01  0.29921589563E+02  0.26793215684E+02  0.50528845617E+02  0.29999956737E+02 0.  0.
         12    1    1    2    0    0 -0.63236782384E+01 -0.29921589563E+02 -0.26793215684E+02  0.40659154383E+02  0.00000000000E+00 0. -1.
         11    1    3    3    0    0  0.20298707449E+01  0.56331794321E+01  0.15088284122E+02  0.16232972733E+02  0.51100000000E-03 0. -1.
        -11    1    3    3    0    0  0.99462606703E+01  0.20775912845E+02  0.28362707155E+01  0.23207996201E+02  0.51100000000E-03 0.  1.
        -12    1    3    3    0    0 -0.56524531768E+01  0.35124972862E+01  0.88686608468E+01  0.11087876682E+02  0.00000000000E+00 0.  1.
</event>
<event>
 7    1  0.2991278E-011  0.5052887E+02  0.7816164E-02  0.1300439E+00
        -11   -1    0    0    0    0  0.00000000000E+00  0.00000000000E+00  0.45593999997E+02  0.45594000000E+02  0.51100000000E-03 0.  1.
         11   -1    0    0    0    0 -0.00000000000E+00 -0.00000000000E+00 -0.45593999997E+02  0.45594000000E+02  0.51100000000E-03 0. -1.
    9900012    2    1    2    0    0  0.18797574378E+02 -0.14115195662E+02  0.33174947740E+02  0.50528871768E+02  0.30000036225E+02 0.  0.
         12    1    1    2    0    0 -0.18797574378E+02  0.14115195662E+02 -0.33174947740E+02  0.40659128232E+02  0.00000000000E+00 0. -1.
         11    1    3    3    0    0  0.53303852917E+01 -0.44258558402E+01 -0.42855303804E+01  0.81465930412E+01  0.51100000000E-03 0. -1.
        -11    1    3    3    0    0  0.77996839732E+01 -0.84086077721E+01  0.33344284452E+02  0.35261608877E+02  0.51100000000E-03 0.  1.
         12    1    3    3    0    0  0.56675051127E+01 -0.12807320494E+01  0.41161936687E+01  0.71206698493E+01  0.00000000000E+00 0. -1.
</event>
<event>
 7    1  0.2991278E-011  0.5052879E+02  0.7816164E-02  0.1300439E+00
        -11   -1    0    0    0    0  0.00000000000E+00  0.00000000000E+00  0.45593999997E+02  0.45594000000E+02  0.51100000000E-03 0.  1.
         11   -1    0    0    0    0 -0.00000000000E+00 -0.00000000000E+00 -0.45593999997E+02  0.45594000000E+02  0.51100000000E-03 0. -1.
    9900012    2    1    2    0    0  0.97954702901E+01 -0.36470601314E+02  0.15070357213E+02  0.50528786224E+02  0.29999776205E+02 0.  0.
         12    1    1    2    0    0 -0.97954702901E+01  0.36470601314E+02 -0.15070357213E+02  0.40659213776E+02  0.00000000000E+00 0. -1.
         11    1    3    3    0    0 -0.56507864008E+01 -0.16664827163E+02  0.17338830535E+01  0.17682030484E+02  0.51100000000E-03 0. -1.
        -11    1    3    3    0    0  0.10965495251E+02 -0.13839622488E+01  0.45938723061E+01  0.11969172930E+02  0.51100000000E-03 0.  1.
        -12    1    3    3    0    0  0.44807614402E+01 -0.18421811902E+02  0.87426018528E+01  0.20877582810E+02  0.00000000000E+00 0.  1.
</event>
<event>
 7    1  0.2991278E-011  0.5052886E+02  0.7816164E-02  0.1300439E+00
        -11   -1    0    0    0    0  0.00000000000E+00  0.00000000000E+00  0.45593999997E+02  0.45594000000E+02  0.51100000000E-03 0.  1.
         11   -1    0    0    0    0 -0.00000000000E+00 -0.00000000000E+00 -0.45593999997E+02  0.45594000000E+02  0.51100000000E-03 0. -1.
    9900012    2    1    2    0    0 -0.65726808948E+01  0.61084398965E+01  0.39656679959E+02  0.50528862805E+02  0.30000008981E+02 0.  0.
         12    1    1    2    0    0  0.65726808948E+01 -0.61084398965E+01 -0.39656679959E+02  0.40659137195E+02  0.00000000000E+00 0. -1.
         11    1    3    3    0    0 -0.41890628020E+01 -0.49025434726E+01  0.91576275487E+01  0.11200237598E+02  0.51100000000E-03 0. -1.
        -11    1    3    3    0    0 -0.49109708004E+01  0.13753212971E+02  0.32103393551E+02  0.35268915194E+02  0.51100000000E-03 0.  1.
        -12    1    3    3    0    0  0.25273527076E+01 -0.27422296016E+01 -0.16043411407E+01  0.40597100133E+01  0.00000000000E+00 0.  1.
</event>
<event>
 7    1  0.2991278E-011  0.5052886E+02  0.7816164E-02  0.1300439E+00
        -11   -1    0    0    0    0  0.00000000000E+00  0.00000000000E+00  0.45593999997E+02  0.45594000000E+02  0.51100000000E-03 0. -1.
         11   -1    0    0    0    0 -0.00000000000E+00 -0.00000000000E+00 -0.45593999997E+02  0.45594000000E+02  0.51100000000E-03 0.  1.
    9900012    2    1    2    0    0  0.25651590520E+02 -0.81458084354E+01 -0.30476339704E+02  0.50528861138E+02  0.30000003914E+02 0.  0.
         12    1    1    2    0    0 -0.25651590520E+02  0.81458084354E+01  0.30476339704E+02  0.40659138862E+02  0.00000000000E+00 0. -1.
         11    1    3    3    0    0  0.53482311016E+01 -0.10190599548E+02 -0.14457896238E+02  0.18479249415E+02  0.51100000000E-03 0.  1.
        -11    1    3    3    0    0 -0.15729083776E+01  0.48161978748E+01 -0.51228080630E+00  0.50923702359E+01  0.51100000000E-03 0. -1.
        -12    1    3    3    0    0  0.21876267796E+02 -0.27714067619E+01 -0.15506162660E+02  0.26957241487E+02  0.00000000000E+00 0.  1.
</event>
<event>
 7    1  0.2991278E-011  0.5052887E+02  0.7816164E-02  0.1300439E+00
        -11   -1    0    0    0    0  0.00000000000E+00  0.00000000000E+00  0.45593999997E+02  0.45594000000E+02  0.51100000000E-03 0. -1.
         11   -1    0    0    0    0 -0.00000000000E+00 -0.00000000000E+00 -0.45593999997E+02  0.45594000000E+02  0.51100000000E-03 0.  1.
    9900012    2    1    2    0    0 -0.38514953514E+02  0.10290244377E+02 -0.79921298596E+01  0.50528869252E+02  0.30000028578E+02 0.  0.
         12    1    1    2    0    0  0.38514953514E+02 -0.10290244377E+02  0.79921298596E+01  0.40659130748E+02  0.00000000000E+00 0. -1.
         11    1    3    3    0    0 -0.17192551162E+02  0.16077043832E+02 -0.11708216265E+02  0.26289493761E+02  0.51100000000E-03 0.  1.
        -11    1    3    3    0    0 -0.86381148773E+01  0.84698886065E+00  0.47382600833E+01  0.98886565135E+01  0.51100000000E-03 0. -1.
         12    1    3    3    0    0 -0.12684287474E+02 -0.66337883158E+01 -0.10221736779E+01  0.14350718977E+02  0.00000000000E+00 0. -1.
</event>
<event>
 7    1  0.2991278E-011  0.5052885E+02  0.7816164E-02  0.1300439E+00
        -11   -1    0    0    0    0  0.00000000000E+00  0.00000000000E+00  0.45593999997E+02  0.45594000000E+02  0.51100000000E-03 0.  1.
         11   -1    0    0    0    0 -0.00000000000E+00 -0.00000000000E+00 -0.45593999997E+02  0.45594000000E+02  0.51100000000E-03 0. -1.
    9900012    2    1    2    0    0 -0.20766158758E+02 -0.29024289535E+02  0.19481360655E+02  0.50528854098E+02  0.29999982515E+02 0.  0.
         12    1    1    2    0    0  0.20766158758E+02  0.29024289535E+02 -0.19481360655E+02  0.40659145902E+02  0.00000000000E+00 0. -1.
         11    1    3    3    0    0 -0.23154796310E+01 -0.12725948825E+02  0.17267966837E+02  0.21575307608E+02  0.51100000000E-03 0. -1.
        -11    1    3    3    0    0 -0.18790664406E+02 -0.15983120420E+02  0.57964326792E+01  0.25340636126E+02  0.51100000000E-03 0.  1.
        -12    1    3    3    0    0  0.33998527928E+00 -0.31522028883E+00 -0.35830388609E+01  0.36129103641E+01  0.00000000000E+00 0.  1.
</event>
<event>
 7    1  0.2991278E-011  0.5052889E+02  0.7816164E-02  0.1300439E+00
        -11   -1    0    0    0    0  0.00000000000E+00  0.00000000000E+00  0.45593999997E+02  0.45594000000E+02  0.51100000000E-03 0.  1.
         11   -1    0    0    0    0 -0.00000000000E+00 -0.00000000000E+00 -0.45593999997E+02  0.45594000000E+02  0.51100000000E-03 0. -1.
    9900012    2    1    2    0    0 -0.69630640334E+01 -0.29470830684E+02  0.27132061039E+02  0.50528894524E+02  0.30000105394E+02 0.  0.
         12    1    1    2    0    0  0.69630640334E+01  0.29470830684E+02 -0.27132061039E+02  0.40659105476E+02  0.00000000000E+00 0. -1.
         11    1    3    3    0    0 -0.49432577008E+01 -0.54354275066E+01 -0.28939951673E+01  0.78965104423E+01  0.51100000000E-03 0. -1.
        -11    1    3    3    0    0 -0.70558097630E+01 -0.20308872899E+02  0.29276527387E+02  0.36322855421E+02  0.51100000000E-03 0.  1.
        -12    1    3    3    0    0  0.50360034304E+01 -0.37265302779E+01  0.74952881874E+00  0.63095286602E+01  0.00000000000E+00 0.  1.
</event>
<event>
 7    1  0.2991278E-011  0.5052890E+02  0.7816164E-02  0.1300439E+00
        -11   -1    0    0    0    0  0.00000000000E+00  0.00000000000E+00  0.45593999997E+02  0.45594000000E+02  0.51100000000E-03 0.  1.
         11   -1    0    0    0    0 -0.00000000000E+00 -0.00000000000E+00 -0.45593999997E+02  0.45594000000E+02  0.51100000000E-03 0. -1.
    9900012    2    1    2    0    0 -0.32525957350E+02 -0.24205430638E+02  0.30530976916E+01  0.50528902870E+02  0.30000130762E+02 0.  0.
         12    1    1    2    0    0  0.32525957350E+02  0.24205430638E+02 -0.30530976916E+01  0.40659097130E+02  0.00000000000E+00 0. -1.
         11    1    3    3    0    0 -0.62583315683E+01 -0.21555834541E+02 -0.30830565674E+01  0.22656697792E+02  0.51100000000E-03 0. -1.
        -11    1    3    3    0    0 -0.21516591822E+02 -0.32370461240E+01  0.25851741630E+01  0.21911762068E+02  0.51100000000E-03 0.  1.
         12    1    3    3    0    0 -0.47510339605E+01  0.58745002675E+00  0.35509800960E+01  0.59604430095E+01  0.00000000000E+00 0. -1.
</event>
<event>
 7    1  0.2991278E-011  0.5052886E+02  0.7816164E-02  0.1300439E+00
        -11   -1    0    0    0    0  0.00000000000E+00  0.00000000000E+00  0.45593999997E+02  0.45594000000E+02  0.51100000000E-03 0.  1.
         11   -1    0    0    0    0 -0.00000000000E+00 -0.00000000000E+00 -0.45593999997E+02  0.45594000000E+02  0.51100000000E-03 0. -1.
    9900012    2    1    2    0    0 -0.12950717880E+01 -0.40409098321E+02  0.43119994520E+01  0.50528858626E+02  0.29999996278E+02 0.  0.
         12    1    1    2    0    0  0.12950717880E+01  0.40409098321E+02 -0.43119994520E+01  0.40659141374E+02  0.00000000000E+00 0. -1.
         11    1    3    3    0    0  0.61643240628E+01  0.13055896577E+01 -0.59904663632E+00  0.63294796499E+01  0.51100000000E-03 0. -1.
        -11    1    3    3    0    0 -0.62563539670E+01 -0.31994483430E+02  0.86289383557E+01  0.33723100574E+02  0.51100000000E-03 0.  1.
        -12    1    3    3    0    0 -0.12030418837E+01 -0.97202045488E+01 -0.37178922674E+01  0.10476278402E+02  0.00000000000E+00 0.  1.
</event>
<event>
 7    1  0.2991278E-011  0.5052885E+02  0.7816164E-02  0.1300439E+00
        -11   -1    0    0    0    0  0.00000000000E+00  0.00000000000E+00  0.45593999997E+02  0.45594000000E+02  0.51100000000E-03 0.  1.
         11   -1    0    0    0    0 -0.00000000000E+00 -0.00000000000E+00 -0.45593999997E+02  0.45594000000E+02  0.51100000000E-03 0. -1.
    9900012    2    1    2    0    0  0.79821697543E+00  0.15957490989E+02  0.37388334063E+02  0.50528853514E+02  0.29999980741E+02 0.  0.
         12    1    1    2    0    0 -0.79821697543E+00 -0.15957490989E+02 -0.37388334063E+02  0.40659146486E+02  0.00000000000E+00 0. -1.
         11    1    3    3    0    0 -0.77605048253E+01 -0.30847944215E+01  0.11571780223E+02  0.14270511188E+02  0.51100000000E-03 0.  1.
        -11    1    3    3    0    0  0.64143805127E+01  0.35679350276E+01  0.16525097990E+02  0.18081850059E+02  0.51100000000E-03 0. -1.
         12    1    3    3    0    0  0.21443412881E+01  0.15474350383E+02  0.92914558494E+01  0.18176492267E+02  0.00000000000E+00 0. -1.
</event>
<event>
 7    1  0.2991278E-011  0.5052886E+02  0.7816164E-02  0.1300439E+00
        -11   -1    0    0    0    0  0.00000000000E+00  0.00000000000E+00  0.45593999997E+02  0.45594000000E+02  0.51100000000E-03 0. -1.
         11   -1    0    0    0    0 -0.00000000000E+00 -0.00000000000E+00 -0.45593999997E+02  0.45594000000E+02  0.51100000000E-03 0.  1.
    9900012    2    1    2    0    0  0.39687740659E+02 -0.78844227492E+01  0.39855838412E+01  0.50528858848E+02  0.29999996953E+02 0.  0.
         12    1    1    2    0    0 -0.39687740659E+02  0.78844227492E+01 -0.39855838412E+01  0.40659141152E+02  0.00000000000E+00 0. -1.
         11    1    3    3    0    0  0.36683954222E+01 -0.11796931306E+02  0.42223045081E+01  0.13055748497E+02  0.51100000000E-03 0. -1.
        -11    1    3    3    0    0  0.20351990283E+02 -0.35398579737E+00 -0.41419767208E+01  0.20772211867E+02  0.51100000000E-03 0.  1.
         12    1    3    3    0    0  0.15667354954E+02  0.42664943538E+01  0.39052560539E+01  0.16700898484E+02  0.00000000000E+00 0. -1.
</event>
<event>
 7    1  0.2991278E-011  0.5052886E+02  0.7816164E-02  0.1300439E+00
        -11   -1    0    0    0    0  0.00000000000E+00  0.00000000000E+00  0.45593999997E+02  0.45594000000E+02  0.51100000000E-03 0.  1.
         11   -1    0    0    0    0 -0.00000000000E+00 -0.00000000000E+00 -0.45593999997E+02  0.45594000000E+02  0.51100000000E-03 0. -1.
    9900012    2    1    2    0    0  0.40209508167E+02 -0.43406380468E+01  0.41856531401E+01  0.50528863537E+02  0.30000011208E+02 0.  0.
         12    1    1    2    0    0 -0.40209508167E+02  0.43406380468E+01 -0.41856531401E+01  0.40659136463E+02  0.00000000000E+00 0. -1.
         11    1    3    3    0    0  0.12486052626E+02  0.60775510543E+01  0.90244513480E+01  0.16561366471E+02  0.51100000000E-03 0. -1.
        -11    1    3    3    0    0  0.13177781921E+02 -0.12643317255E+02 -0.59595648284E+01  0.19209992732E+02  0.51100000000E-03 0.  1.
        -12    1    3    3    0    0  0.14545673620E+02  0.22251281538E+01  0.11207666206E+01  0.14757504334E+02  0.00000000000E+00 0.  1.
</event>
<event>
 7    1  0.2991278E-011  0.5052886E+02  0.7816164E-02  0.1300439E+00
        -11   -1    0    0    0    0  0.00000000000E+00  0.00000000000E+00  0.45593999997E+02  0.45594000000E+02  0.51100000000E-03 0. -1.
         11   -1    0    0    0    0 -0.00000000000E+00 -0.00000000000E+00 -0.45593999997E+02  0.45594000000E+02  0.51100000000E-03 0.  1.
    9900012    2    1    2    0    0  0.26315441595E+02  0.88297497830E+01 -0.29710246976E+02  0.50528859294E+02  0.29999998311E+02 0.  0.
         12    1    1    2    0    0 -0.26315441595E+02 -0.88297497830E+01  0.29710246976E+02  0.40659140706E+02  0.00000000000E+00 0. -1.
         11    1    3    3    0    0  0.93483403268E+01  0.63223258722E+01 -0.49344768005E+01  0.12317156038E+02  0.51100000000E-03 0. -1.
        -11    1    3    3    0    0  0.65447376920E+01  0.80991525068E+00 -0.26678907663E+02  0.27481878912E+02  0.51100000000E-03 0.  1.
        -12    1    3    3    0    0  0.10422363577E+02  0.16975086601E+01  0.19031374878E+01  0.10729824345E+02  0.00000000000E+00 0.  1.
</event>
<event>
 7    1  0.2991278E-011  0.5052886E+02  0.7816164E-02  0.1300439E+00
        -11   -1    0    0    0    0  0.00000000000E+00  0.00000000000E+00  0.45593999997E+02  0.45594000000E+02  0.51100000000E-03 0.  1.
         11   -1    0    0    0    0 -0.00000000000E+00 -0.00000000000E+00 -0.45593999997E+02  0.45594000000E+02  0.51100000000E-03 0. -1.
    9900012    2    1    2    0    0 -0.23741367985E+01 -0.37767900256E+02 -0.14869932150E+02  0.50528859607E+02  0.29999999263E+02 0.  0.
         12    1    1    2    0    0  0.23741367985E+01  0.37767900256E+02  0.14869932150E+02  0.40659140393E+02  0.00000000000E+00 0. -1.
         11    1    3    3    0    0  0.17926934856E+00 -0.69360269642E+00 -0.11774668168E+02  0.11796441537E+02  0.51100000000E-03 0. -1.
        -11    1    3    3    0    0  0.28648522376E+01 -0.16778397003E+02 -0.47184188613E+01  0.17663110177E+02  0.51100000000E-03 0.  1.
         12    1    3    3    0    0 -0.54182583846E+01 -0.20295900557E+02  0.16231548789E+01  0.21069307894E+02  0.00000000000E+00 0. -1.
</event>
<event>
 7    1  0.2991278E-011  0.5052886E+02  0.7816164E-02  0.1300439E+00
        -11   -1    0    0    0    0  0.00000000000E+00  0.00000000000E+00  0.45593999997E+02  0.45594000000E+02  0.51100000000E-03 0.  1.
         11   -1    0    0    0    0 -0.00000000000E+00 -0.00000000000E+00 -0.45593999997E+02  0.45594000000E+02  0.51100000000E-03 0. -1.
    9900012    2    1    2    0    0 -0.75858117383E+01 -0.24767408976E+02  0.31340015500E+02  0.50528860085E+02  0.30000000714E+02 0.  0.
         12    1    1    2    0    0  0.75858117383E+01  0.24767408976E+02 -0.31340015500E+02  0.40659139915E+02  0.00000000000E+00 0. -1.
         11    1    3    3    0    0 -0.15907621273E+01  0.34107932008E+00 -0.84973011945E+00  0.18354565604E+01  0.51100000000E-03 0. -1.
        -11    1    3    3    0    0 -0.10590528087E+02 -0.28278566108E+02  0.30355541122E+02  0.42816999701E+02  0.51100000000E-03 0.  1.
        -12    1    3    3    0    0  0.45954784760E+01  0.31700778122E+01  0.18342044971E+01  0.58764038235E+01  0.00000000000E+00 0.  1.
</event>
<event>
 7    1  0.2991278E-011  0.5052885E+02  0.7816164E-02  0.1300439E+00
        -11   -1    0    0    0    0  0.00000000000E+00  0.00000000000E+00  0.45593999997E+02  0.45594000000E+02  0.51100000000E-03 0.  1.
         11   -1    0    0    0    0 -0.00000000000E+00 -0.00000000000E+00 -0.45593999997E+02  0.45594000000E+02  0.51100000000E-03 0. -1.
    9900012    2    1    2    0    0 -0.15919865235E+02  0.37074775900E+02  0.50185073497E+01  0.50528849331E+02  0.29999968026E+02 0.  0.
         12    1    1    2    0    0  0.15919865235E+02 -0.37074775900E+02 -0.50185073497E+01  0.40659150669E+02  0.00000000000E+00 0. -1.
         11    1    3    3    0    0  0.11881373795E+01 -0.75847026908E+00  0.20823081494E+01  0.25145486815E+01  0.51100000000E-03 0. -1.
        -11    1    3    3    0    0 -0.20014372396E+02  0.27791794810E+02  0.96603196829E+01  0.35584838595E+02  0.51100000000E-03 0.  1.
        -12    1    3    3    0    0  0.29063697815E+01  0.10041451359E+02 -0.67241204825E+01  0.12429462055E+02  0.00000000000E+00 0.  1.
</event>
<event>
 7    1  0.2991278E-011  0.5052886E+02  0.7816164E-02  0.1300439E+00
        -11   -1    0    0    0    0  0.00000000000E+00  0.00000000000E+00  0.45593999997E+02  0.45594000000E+02  0.51100000000E-03 0.  1.
         11   -1    0    0    0    0 -0.00000000000E+00 -0.00000000000E+00 -0.45593999997E+02  0.45594000000E+02  0.51100000000E-03 0. -1.
    9900012    2    1    2    0    0 -0.20395941245E+02 -0.16858583220E+01  0.35133017627E+02  0.50528862465E+02  0.30000007947E+02 0.  0.
         12    1    1    2    0    0  0.20395941245E+02  0.16858583220E+01 -0.35133017627E+02  0.40659137535E+02  0.00000000000E+00 0. -1.
         11    1    3    3    0    0  0.63930711961E+01  0.39748739716E+00  0.28496144341E+01  0.70106817239E+01  0.51100000000E-03 0. -1.
        -11    1    3    3    0    0 -0.21061771662E+02 -0.45338324469E+01  0.18518583751E+02  0.28409361250E+02  0.51100000000E-03 0.  1.
        -12    1    3    3    0    0 -0.57272407785E+01  0.24504867278E+01  0.13764819442E+02  0.15108819491E+02  0.00000000000E+00 0.  1.
</event>
<event>
 7    1  0.2991278E-011  0.5052887E+02  0.7816164E-02  0.1300439E+00
        -11   -1    0    0    0    0  0.00000000000E+00  0.00000000000E+00  0.45593999997E+02  0.45594000000E+02  0.51100000000E-03 0.  1.
         11   -1    0    0    0    0 -0.00000000000E+00 -0.00000000000E+00 -0.45593999997E+02  0.45594000000E+02  0.51100000000E-03 0. -1.
    9900012    2    1    2    0    0  0.15074006348E+02 -0.21228432600E+02  0.31229685017E+02  0.50528865180E+02  0.30000016202E+02 0.  0.
         12    1    1    2    0    0 -0.15074006348E+02  0.21228432600E+02 -0.31229685017E+02  0.40659134820E+02  0.00000000000E+00 0. -1.
         11    1    3    3    0    0 -0.42450097804E+01 -0.31117013718E+01  0.79062223713E+01  0.94979548277E+01  0.51100000000E-03 0. -1.
        -11    1    3    3    0    0  0.22773554359E+02 -0.19480690664E+02  0.21567028398E+02  0.36922470138E+02  0.51100000000E-03 0.  1.
        -12    1    3    3    0    0 -0.34545382311E+01  0.13639594359E+01  0.17564342479E+01  0.41084402150E+01  0.00000000000E+00 0.  1.
</event>
<event>
 7    1  0.2991278E-011  0.5052886E+02  0.7816164E-02  0.1300439E+00
        -11   -1    0    0    0    0  0.00000000000E+00  0.00000000000E+00  0.45593999997E+02  0.45594000000E+02  0.51100000000E-03 0. -1.
         11   -1    0    0    0    0 -0.00000000000E+00 -0.00000000000E+00 -0.45593999997E+02  0.45594000000E+02  0.51100000000E-03 0.  1.
    9900012    2    1    2    0    0  0.40534414462E+02  0.50281574294E+00  0.31423044918E+01  0.50528860105E+02  0.30000000775E+02 0.  0.
         12    1    1    2    0    0 -0.40534414462E+02 -0.50281574294E+00 -0.31423044918E+01  0.40659139895E+02  0.00000000000E+00 0. -1.
         11    1    3    3    0    0  0.33260395423E+02  0.66035157233E+01 -0.69713504427E+01  0.34618781764E+02  0.51100000000E-03 0. -1.
        -11    1    3    3    0    0  0.36095460904E+01  0.48512222433E+00  0.67223970210E+01  0.76455731322E+01  0.51100000000E-03 0.  1.
         12    1    3    3    0    0  0.36644729494E+01 -0.65858222047E+01  0.33912579136E+01  0.82645052088E+01  0.00000000000E+00 0. -1.
</event>
<event>
 7    1  0.2991278E-011  0.5052887E+02  0.7816164E-02  0.1300439E+00
        -11   -1    0    0    0    0  0.00000000000E+00  0.00000000000E+00  0.45593999997E+02  0.45594000000E+02  0.51100000000E-03 0.  1.
         11   -1    0    0    0    0 -0.00000000000E+00 -0.00000000000E+00 -0.45593999997E+02  0.45594000000E+02  0.51100000000E-03 0. -1.
    9900012    2    1    2    0    0  0.18915805544E+02 -0.30024941842E+02  0.19845915515E+02  0.50528865791E+02  0.30000018058E+02 0.  0.
         12    1    1    2    0    0 -0.18915805544E+02  0.30024941842E+02 -0.19845915515E+02  0.40659134209E+02  0.00000000000E+00 0. -1.
         11    1    3    3    0    0  0.17252015885E+02 -0.17839623289E+02  0.68758220215E+01  0.25751915268E+02  0.51100000000E-03 0. -1.
        -11    1    3    3    0    0 -0.53031199434E+01  0.76365396784E+00  0.29863140978E+00  0.53661372976E+01  0.51100000000E-03 0.  1.
        -12    1    3    3    0    0  0.69669096021E+01 -0.12948972521E+02  0.12671462084E+02  0.19410813226E+02  0.00000000000E+00 0.  1.
</event>
<event>
 7    1  0.2991278E-011  0.5052886E+02  0.7816164E-02  0.1300439E+00
        -11   -1    0    0    0    0  0.00000000000E+00  0.00000000000E+00  0.45593999997E+02  0.45594000000E+02  0.51100000000E-03 0.  1.
         11   -1    0    0    0    0 -0.00000000000E+00 -0.00000000000E+00 -0.45593999997E+02  0.45594000000E+02  0.51100000000E-03 0. -1.
    9900012    2    1    2    0    0  0.91855730065E+01 -0.25201791825E+02  0.30555854011E+02  0.50528864778E+02  0.30000014979E+02 0.  0.
         12    1    1    2    0    0 -0.91855730065E+01  0.25201791825E+02 -0.30555854011E+02  0.40659135222E+02  0.00000000000E+00 0. -1.
         11    1    3    3    0    0  0.97716233945E+01 -0.75463030570E+01  0.12336684301E+02  0.17453512352E+02  0.51100000000E-03 0. -1.
        -11    1    3    3    0    0 -0.14192693997E+01 -0.69453272582E+01 -0.41827537953E+01  0.82308763765E+01  0.51100000000E-03 0.  1.
        -12    1    3    3    0    0  0.83321901167E+00 -0.10710161510E+02  0.22401923505E+02  0.24844476050E+02  0.00000000000E+00 0.  1.
</event>
<event>
 7    1  0.2991278E-011  0.5052883E+02  0.7816164E-02  0.1300439E+00
        -11   -1    0    0    0    0  0.00000000000E+00  0.00000000000E+00  0.45593999997E+02  0.45594000000E+02  0.51100000000E-03 0. -1.
         11   -1    0    0    0    0 -0.00000000000E+00 -0.00000000000E+00 -0.45593999997E+02  0.45594000000E+02  0.51100000000E-03 0.  1.
    9900012    2    1    2    0    0 -0.10403618045E+02 -0.37771584598E+02  0.10873828880E+02  0.50528830973E+02  0.29999912226E+02 0.  0.
         12    1    1    2    0    0  0.10403618045E+02  0.37771584598E+02 -0.10873828880E+02  0.40659169027E+02  0.00000000000E+00 0. -1.
         11    1    3    3    0    0 -0.21257926921E+01 -0.30925191109E+02  0.11249164720E+02  0.32976205768E+02  0.51100000000E-03 0. -1.
        -11    1    3    3    0    0 -0.46063367393E+01  0.36941213362E+01  0.18166314706E+01  0.61777844543E+01  0.51100000000E-03 0.  1.
        -12    1    3    3    0    0 -0.36714886137E+01 -0.10540514825E+02 -0.21919673108E+01  0.11374840751E+02  0.00000000000E+00 0.  1.
</event>
<event>
 7    1  0.2991278E-011  0.5052885E+02  0.7816164E-02  0.1300439E+00
        -11   -1    0    0    0    0  0.00000000000E+00  0.00000000000E+00  0.45593999997E+02  0.45594000000E+02  0.51100000000E-03 0.  1.
         11   -1    0    0    0    0 -0.00000000000E+00 -0.00000000000E+00 -0.45593999997E+02  0.45594000000E+02  0.51100000000E-03 0. -1.
    9900012    2    1    2    0    0  0.28135034850E+02  0.10745590118E+02  0.27315176441E+02  0.50528846578E+02  0.29999959659E+02 0.  0.
         12    1    1    2    0    0 -0.28135034850E+02 -0.10745590118E+02 -0.27315176441E+02  0.40659153422E+02  0.00000000000E+00 0. -1.
         11    1    3    3    0    0  0.18903003308E+02  0.12114492700E+02  0.24985348839E+02  0.33590953013E+02  0.51100000000E-03 0. -1.
        -11    1    3    3    0    0  0.73416717954E+01  0.18173107157E+01  0.74511143636E+01  0.10617055548E+02  0.51100000000E-03 0.  1.
         12    1    3    3    0    0  0.18903597464E+01 -0.31862132982E+01 -0.51212867613E+01  0.63208380175E+01  0.00000000000E+00 0. -1.
</event>
<event>
 7    1  0.2991278E-011  0.5052885E+02  0.7816164E-02  0.1300439E+00
        -11   -1    0    0    0    0  0.00000000000E+00  0.00000000000E+00  0.45593999997E+02  0.45594000000E+02  0.51100000000E-03 0. -1.
         11   -1    0    0    0    0 -0.00000000000E+00 -0.00000000000E+00 -0.45593999997E+02  0.45594000000E+02  0.51100000000E-03 0.  1.
    9900012    2    1    2    0    0 -0.22997000821E+02 -0.31587846495E+02 -0.11247769725E+02  0.50528850762E+02  0.29999972378E+02 0.  0.
         12    1    1    2    0    0  0.22997000821E+02  0.31587846495E+02  0.11247769725E+02  0.40659149238E+02  0.00000000000E+00 0. -1.
         11    1    3    3    0    0  0.45022538858E+01 -0.11679412225E+02 -0.62965663321E+01  0.14011627593E+02  0.51100000000E-03 0.  1.
        -11    1    3    3    0    0 -0.26493202760E+02 -0.21443723260E+02 -0.56576326345E+01  0.34550424991E+02  0.51100000000E-03 0. -1.
         12    1    3    3    0    0 -0.10060519460E+01  0.15352889903E+01  0.70642924107E+00  0.19667981784E+01  0.00000000000E+00 0. -1.
</event>
<event>
 7    1  0.2991278E-011  0.5052888E+02  0.7816164E-02  0.1300439E+00
        -11   -1    0    0    0    0  0.00000000000E+00  0.00000000000E+00  0.45593999997E+02  0.45594000000E+02  0.51100000000E-03 0.  1.
         11   -1    0    0    0    0 -0.00000000000E+00 -0.00000000000E+00 -0.45593999997E+02  0.45594000000E+02  0.51100000000E-03 0. -1.
    9900012    2    1    2    0    0  0.38092701940E+02 -0.54150397595E+00 -0.14206230403E+02  0.50528878638E+02  0.30000057109E+02 0.  0.
         12    1    1    2    0    0 -0.38092701940E+02  0.54150397595E+00  0.14206230403E+02  0.40659121362E+02  0.00000000000E+00 0. -1.
         11    1    3    3    0    0  0.12804897276E+02  0.99006768446E+01  0.17751775998E+01  0.16283121691E+02  0.51100000000E-03 0.  1.
        -11    1    3    3    0    0  0.12043894519E+02 -0.74462659589E+01 -0.15006246052E+02  0.20632248853E+02  0.51100000000E-03 0. -1.
         12    1    3    3    0    0  0.13243910145E+02 -0.29959148616E+01 -0.97516195061E+00  0.13613508094E+02  0.00000000000E+00 0. -1.
</event>
<event>
 7    1  0.2991278E-011  0.5052886E+02  0.7816164E-02  0.1300439E+00
        -11   -1    0    0    0    0  0.00000000000E+00  0.00000000000E+00  0.45593999997E+02  0.45594000000E+02  0.51100000000E-03 0.  1.
         11   -1    0    0    0    0 -0.00000000000E+00 -0.00000000000E+00 -0.45593999997E+02  0.45594000000E+02  0.51100000000E-03 0. -1.
    9900012    2    1    2    0    0 -0.38997232935E+02  0.18508626749E+01 -0.11355884684E+02  0.50528856057E+02  0.29999988472E+02 0.  0.
         12    1    1    2    0    0  0.38997232935E+02 -0.18508626749E+01  0.11355884684E+02  0.40659143943E+02  0.00000000000E+00 0. -1.
         11    1    3    3    0    0 -0.36297606159E+01  0.51679560114E+01 -0.90688172434E+01  0.11051080396E+02  0.51100000000E-03 0. -1.
        -11    1    3    3    0    0 -0.20733011741E+02 -0.74929446822E+01 -0.76603826658E+01  0.23338454506E+02  0.51100000000E-03 0.  1.
        -12    1    3    3    0    0 -0.14634460577E+02  0.41758513457E+01  0.53733152251E+01  0.16139321156E+02  0.00000000000E+00 0.  1.
</event>
<event>
 7    1  0.2991278E-011  0.5052888E+02  0.7816164E-02  0.1300439E+00
        -11   -1    0    0    0    0  0.00000000000E+00  0.00000000000E+00  0.45593999997E+02  0.45594000000E+02  0.51100000000E-03 0. -1.
         11   -1    0    0    0    0 -0.00000000000E+00 -0.00000000000E+00 -0.45593999997E+02  0.45594000000E+02  0.51100000000E-03 0.  1.
    9900012    2    1    2    0    0 -0.18364904410E+02  0.32016079926E+02 -0.17054773169E+02  0.50528875862E+02  0.30000048671E+02 0.  0.
         12    1    1    2    0    0  0.18364904410E+02 -0.32016079926E+02  0.17054773169E+02  0.40659124138E+02  0.00000000000E+00 0. -1.
         11    1    3    3    0    0 -0.29473707715E+01  0.65441651575E+00 -0.44393611926E+01  0.53687227066E+01  0.51100000000E-03 0. -1.
        -11    1    3    3    0    0 -0.87093063283E+01  0.20606102771E+02  0.55122528012E+01  0.23040147989E+02  0.51100000000E-03 0.  1.
        -12    1    3    3    0    0 -0.67082273102E+01  0.10755560639E+02 -0.18127664777E+02  0.22120005167E+02  0.00000000000E+00 0.  1.
</event>
<event>
 7    1  0.2991278E-011  0.5052889E+02  0.7816164E-02  0.1300439E+00
        -11   -1    0    0    0    0  0.00000000000E+00  0.00000000000E+00  0.45593999997E+02  0.45594000000E+02  0.51100000000E-03 0.  1.
         11   -1    0    0    0    0 -0.00000000000E+00 -0.00000000000E+00 -0.45593999997E+02  0.45594000000E+02  0.51100000000E-03 0. -1.
    9900012    2    1    2    0    0  0.18421019495E+02 -0.29414050555E+02  0.21181201329E+02  0.50528885167E+02  0.30000076954E+02 0.  0.
         12    1    1    2    0    0 -0.18421019495E+02  0.29414050555E+02 -0.21181201329E+02  0.40659114833E+02  0.00000000000E+00 0. -1.
         11    1    3    3    0    0  0.41630758345E+01 -0.30066935413E+02  0.19088237433E+02  0.35856834970E+02  0.51100000000E-03 0. -1.
        -11    1    3    3    0    0  0.57413911802E+01 -0.80691439211E+00  0.16128244744E+01  0.60179636562E+01  0.51100000000E-03 0.  1.
         12    1    3    3    0    0  0.85165524798E+01  0.14597992499E+01  0.48013942149E+00  0.86540865408E+01  0.00000000000E+00 0. -1.
</event>
<event>
 7    1  0.2991278E-011  0.5052888E+02  0.7816164E-02  0.1300439E+00
        -11   -1    0    0    0    0  0.00000000000E+00  0.00000000000E+00  0.45593999997E+02  0.45594000000E+02  0.51100000000E-03 0.  1.
         11   -1    0    0    0    0 -0.00000000000E+00 -0.00000000000E+00 -0.45593999997E+02  0.45594000000E+02  0.51100000000E-03 0. -1.
    9900012    2    1    2    0    0 -0.17338510647E+02  0.36302931806E+01  0.36597285277E+02  0.50528877165E+02  0.30000052631E+02 0.  0.
         12    1    1    2    0    0  0.17338510647E+02 -0.36302931806E+01 -0.36597285277E+02  0.40659122835E+02  0.00000000000E+00 0. -1.
         11    1    3    3    0    0  0.76065029618E+01  0.73901369012E+00  0.28788197035E+01  0.81665556809E+01  0.51100000000E-03 0. -1.
        -11    1    3    3    0    0 -0.17124767539E+02  0.28021535184E+01  0.26762151135E+02  0.31895492805E+02  0.51100000000E-03 0.  1.
         12    1    3    3    0    0 -0.78202460701E+01  0.89125972129E-01  0.69563144384E+01  0.10466828679E+02  0.00000000000E+00 0. -1.
</event>
<event>
 7    1  0.2991278E-011  0.5052886E+02  0.7816164E-02  0.1300439E+00
        -11   -1    0    0    0    0  0.00000000000E+00  0.00000000000E+00  0.45593999997E+02  0.45594000000E+02  0.51100000000E-03 0.  1.
         11   -1    0    0    0    0 -0.00000000000E+00 -0.00000000000E+00 -0.45593999997E+02  0.45594000000E+02  0.51100000000E-03 0. -1.
    9900012    2    1    2    0    0  0.32074226384E+01  0.25452870115E+02  0.31544091334E+02  0.50528857668E+02  0.29999993369E+02 0.  0.
         12    1    1    2    0    0 -0.32074226384E+01 -0.25452870115E+02 -0.31544091334E+02  0.40659142332E+02  0.00000000000E+00 0. -1.
         11    1    3    3    0    0  0.74050207311E+01  0.50671204198E+01  0.87567761638E+01  0.12537590296E+02  0.51100000000E-03 0. -1.
        -11    1    3    3    0    0 -0.61941998821E+01 -0.29309344866E+01  0.36713192785E+01  0.77741285460E+01  0.51100000000E-03 0.  1.
        -12    1    3    3    0    0  0.19966017894E+01  0.23316684182E+02  0.19115995891E+02  0.30217138827E+02  0.00000000000E+00 0.  1.
</event>
<event>
 7    1  0.2991278E-011  0.5052887E+02  0.7816164E-02  0.1300439E+00
        -11   -1    0    0    0    0  0.00000000000E+00  0.00000000000E+00  0.45593999997E+02  0.45594000000E+02  0.51100000000E-03 0. -1.
         11   -1    0    0    0    0 -0.00000000000E+00 -0.00000000000E+00 -0.45593999997E+02  0.45594000000E+02  0.51100000000E-03 0.  1.
    9900012    2    1    2    0    0 -0.36672725520E+02 -0.16031698061E+02  0.71596403549E+01  0.50528873229E+02  0.30000040667E+02 0.  0.
         12    1    1    2    0    0  0.36672725520E+02  0.16031698061E+02 -0.71596403549E+01  0.40659126771E+02  0.00000000000E+00 0. -1.
         11    1    3    3    0    0  0.10287473368E+01 -0.47209185783E+01 -0.37139991794E+01  0.60941926021E+01  0.51100000000E-03 0. -1.
        -11    1    3    3    0    0 -0.34221871484E+02 -0.11030803796E+02  0.15061348017E+02  0.38982808064E+02  0.51100000000E-03 0.  1.
        -12    1    3    3    0    0 -0.34796013729E+01 -0.27997568691E+00 -0.41877084830E+01  0.54518725626E+01  0.00000000000E+00 0.  1.
</event>
<event>
 7    1  0.3063616E-011  0.5052886E+02  0.7816164E-02  0.1300439E+00
        -11   -1    0    0    0    0  0.00000000000E+00  0.00000000000E+00  0.45593999997E+02  0.45594000000E+02  0.51100000000E-03 0. -1.
         11   -1    0    0    0    0 -0.00000000000E+00 -0.00000000000E+00 -0.45593999997E+02  0.45594000000E+02  0.51100000000E-03 0.  1.
    9900012    2    1    2    0    0 -0.21547049820E+02  0.20148318154E+02 -0.27980983617E+02  0.50528861733E+02  0.30000005725E+02 0.  0.
         12    1    1    2    0    0  0.21547049820E+02 -0.20148318154E+02  0.27980983617E+02  0.40659138267E+02  0.00000000000E+00 0. -1.
         11    1    3    3    0    0  0.17451359789E+00 -0.25018044566E+00  0.20366985098E+01  0.20594140750E+01  0.51100000000E-03 0. -1.
        -11    1    3    3    0    0 -0.12021895017E+02  0.24078075206E+02 -0.17034034822E+02  0.31850243453E+02  0.51100000000E-03 0.  1.
        -12    1    3    3    0    0 -0.96996684011E+01 -0.36795766063E+01 -0.12983647304E+02  0.16619204205E+02  0.00000000000E+00 0.  1.
</event>
<event>
 7    1  0.2991278E-011  0.5052886E+02  0.7816164E-02  0.1300439E+00
        -11   -1    0    0    0    0  0.00000000000E+00  0.00000000000E+00  0.45593999997E+02  0.45594000000E+02  0.51100000000E-03 0.  1.
         11   -1    0    0    0    0 -0.00000000000E+00 -0.00000000000E+00 -0.45593999997E+02  0.45594000000E+02  0.51100000000E-03 0. -1.
    9900012    2    1    2    0    0  0.18036658102E+02 -0.18428416008E+02  0.31436256329E+02  0.50528858789E+02  0.29999996775E+02 0.  0.
         12    1    1    2    0    0 -0.18036658102E+02  0.18428416008E+02 -0.31436256329E+02  0.40659141211E+02  0.00000000000E+00 0. -1.
         11    1    3    3    0    0 -0.22632893398E+00 -0.10008617123E+02 -0.10320834727E+01  0.10064235592E+02  0.51100000000E-03 0. -1.
        -11    1    3    3    0    0  0.11846106291E+02  0.18783118325E+01  0.15285731109E+02  0.19429664572E+02  0.51100000000E-03 0.  1.
         12    1    3    3    0    0  0.64168807454E+01 -0.10298110717E+02  0.17182608693E+02  0.21034958624E+02  0.00000000000E+00 0. -1.
</event>
<event>
 7    1  0.2991278E-011  0.5052885E+02  0.7816164E-02  0.1300439E+00
        -11   -1    0    0    0    0  0.00000000000E+00  0.00000000000E+00  0.45593999997E+02  0.45594000000E+02  0.51100000000E-03 0. -1.
         11   -1    0    0    0    0 -0.00000000000E+00 -0.00000000000E+00 -0.45593999997E+02  0.45594000000E+02  0.51100000000E-03 0.  1.
    9900012    2    1    2    0    0 -0.25057503780E+02 -0.23679428345E+02 -0.21553942912E+02  0.50528852475E+02  0.29999977584E+02 0.  0.
         12    1    1    2    0    0  0.25057503780E+02  0.23679428345E+02  0.21553942912E+02  0.40659147525E+02  0.00000000000E+00 0. -1.
         11    1    3    3    0    0  0.33848074143E+01 -0.40452084817E+01 -0.51890426074E+00  0.52999900741E+01  0.51100000000E-03 0. -1.
        -11    1    3    3    0    0 -0.18542219477E+02 -0.17387127860E+02 -0.44826070812E+01  0.25811235632E+02  0.51100000000E-03 0.  1.
        -12    1    3    3    0    0 -0.99000917168E+01 -0.22470920025E+01 -0.16552431570E+02  0.19417626769E+02  0.00000000000E+00 0.  1.
</event>
<event>
 7    1  0.2991278E-011  0.5052886E+02  0.7816164E-02  0.1300439E+00
        -11   -1    0    0    0    0  0.00000000000E+00  0.00000000000E+00  0.45593999997E+02  0.45594000000E+02  0.51100000000E-03 0.  1.
         11   -1    0    0    0    0 -0.00000000000E+00 -0.00000000000E+00 -0.45593999997E+02  0.45594000000E+02  0.51100000000E-03 0. -1.
    9900012    2    1    2    0    0 -0.18194690896E+02 -0.28687514425E+02  0.22341561852E+02  0.50528860232E+02  0.30000001160E+02 0.  0.
         12    1    1    2    0    0  0.18194690896E+02  0.28687514425E+02 -0.22341561852E+02  0.40659139768E+02  0.00000000000E+00 0. -1.
         11    1    3    3    0    0  0.39932562638E+01 -0.15050400746E+02  0.82413456945E+01  0.17617617243E+02  0.51100000000E-03 0. -1.
        -11    1    3    3    0    0 -0.90164282223E+00 -0.47832441672E+01 -0.14782905636E+01  0.50870156078E+01  0.51100000000E-03 0.  1.
         12    1    3    3    0    0 -0.21286304337E+02 -0.88538695121E+01  0.15578506721E+02  0.27824227381E+02  0.00000000000E+00 0. -1.
</event>
<event>
 7    1  0.2991278E-011  0.5052887E+02  0.7816164E-02  0.1300439E+00
        -11   -1    0    0    0    0  0.00000000000E+00  0.00000000000E+00  0.45593999997E+02  0.45594000000E+02  0.51100000000E-03 0. -1.
         11   -1    0    0    0    0 -0.00000000000E+00 -0.00000000000E+00 -0.45593999997E+02  0.45594000000E+02  0.51100000000E-03 0.  1.
    9900012    2    1    2    0    0 -0.13361731802E+02 -0.38360538894E+02 -0.17600787629E+01  0.50528871895E+02  0.30000036612E+02 0.  0.
         12    1    1    2    0    0  0.13361731802E+02  0.38360538894E+02  0.17600787629E+01  0.40659128105E+02  0.00000000000E+00 0. -1.
         11    1    3    3    0    0 -0.23348310259E+01  0.41478739740E+01 -0.69948567817E+00  0.48109848159E+01  0.51100000000E-03 0. -1.
        -11    1    3    3    0    0 -0.91712350949E+01 -0.32368608963E+02  0.46030699515E+01  0.33956246150E+02  0.51100000000E-03 0.  1.
        -12    1    3    3    0    0 -0.18556656813E+01 -0.10139803906E+02 -0.56636630363E+01  0.11761640930E+02  0.00000000000E+00 0.  1.
</event>
<event>
 7    1  0.2991278E-011  0.5052886E+02  0.7816164E-02  0.1300439E+00
        -11   -1    0    0    0    0  0.00000000000E+00  0.00000000000E+00  0.45593999997E+02  0.45594000000E+02  0.51100000000E-03 0.  1.
         11   -1    0    0    0    0 -0.00000000000E+00 -0.00000000000E+00 -0.45593999997E+02  0.45594000000E+02  0.51100000000E-03 0. -1.
    9900012    2    1    2    0    0 -0.13753370200E+01 -0.33732940843E+02  0.22657510205E+02  0.50528860578E+02  0.30000002212E+02 0.  0.
         12    1    1    2    0    0  0.13753370200E+01  0.33732940843E+02 -0.22657510205E+02  0.40659139422E+02  0.00000000000E+00 0. -1.
         11    1    3    3    0    0 -0.12971702141E+02 -0.12974160376E+02  0.99181292139E+01  0.20855770934E+02  0.51100000000E-03 0. -1.
        -11    1    3    3    0    0  0.12509203987E+02 -0.13551957466E+02  0.12728435292E+02  0.22408676909E+02  0.51100000000E-03 0.  1.
        -12    1    3    3    0    0 -0.91283886655E+00 -0.72068230015E+01  0.10945698994E-01  0.72644127346E+01  0.00000000000E+00 0.  1.
</event>
<event>
 7    1  0.2991278E-011  0.5052886E+02  0.7816164E-02  0.1300439E+00
        -11   -1    0    0    0    0  0.00000000000E+00  0.00000000000E+00  0.45593999997E+02  0.45594000000E+02  0.51100000000E-03 0. -1.
         11   -1    0    0    0    0 -0.00000000000E+00 -0.00000000000E+00 -0.45593999997E+02  0.45594000000E+02  0.51100000000E-03 0.  1.
    9900012    2    1    2    0    0 -0.62664834393E+01  0.37564080132E+02 -0.14242073718E+02  0.50528860871E+02  0.30000003104E+02 0.  0.
         12    1    1    2    0    0  0.62664834393E+01 -0.37564080132E+02  0.14242073718E+02  0.40659139129E+02  0.00000000000E+00 0. -1.
         11    1    3    3    0    0 -0.30108435739E+01 -0.91166875076E+00  0.35633752265E+01  0.47533106572E+01  0.51100000000E-03 0. -1.
        -11    1    3    3    0    0  0.50514122623E+01  0.29538391446E+02 -0.12839599510E+02  0.32601973114E+02  0.51100000000E-03 0.  1.
         12    1    3    3    0    0 -0.83070521277E+01  0.89373574370E+01 -0.49658494349E+01  0.13173577100E+02  0.00000000000E+00 0. -1.
</event>
<event>
 7    1  0.2991278E-011  0.5052890E+02  0.7816164E-02  0.1300439E+00
        -11   -1    0    0    0    0  0.00000000000E+00  0.00000000000E+00  0.45593999997E+02  0.45594000000E+02  0.51100000000E-03 0. -1.
         11   -1    0    0    0    0 -0.00000000000E+00 -0.00000000000E+00 -0.45593999997E+02  0.45594000000E+02  0.51100000000E-03 0.  1.
    9900012    2    1    2    0    0  0.32016548876E+02 -0.65609684287E+01 -0.24187944335E+02  0.50528900652E+02  0.30000124021E+02 0.  0.
         12    1    1    2    0    0 -0.32016548876E+02  0.65609684287E+01  0.24187944335E+02  0.40659099348E+02  0.00000000000E+00 0. -1.
         11    1    3    3    0    0 -0.43249045637E-01 -0.94869415012E+01 -0.12982126075E+02  0.16079164382E+02  0.51100000000E-03 0. -1.
        -11    1    3    3    0    0  0.17575165156E+02  0.56874116633E+00 -0.84849262860E+01  0.19524442915E+02  0.51100000000E-03 0.  1.
         12    1    3    3    0    0  0.14484632766E+02  0.23572319061E+01 -0.27208919740E+01  0.14925293356E+02  0.00000000000E+00 0. -1.
</event>
<event>
 7    1  0.2991278E-011  0.5052886E+02  0.7816164E-02  0.1300439E+00
        -11   -1    0    0    0    0  0.00000000000E+00  0.00000000000E+00  0.45593999997E+02  0.45594000000E+02  0.51100000000E-03 0.  1.
         11   -1    0    0    0    0 -0.00000000000E+00 -0.00000000000E+00 -0.45593999997E+02  0.45594000000E+02  0.51100000000E-03 0. -1.
    9900012    2    1    2    0    0  0.39957686030E+02  0.59883479470E+01 -0.45484907365E+01  0.50528858937E+02  0.29999997224E+02 0.  0.
         12    1    1    2    0    0 -0.39957686030E+02 -0.59883479470E+01  0.45484907365E+01  0.40659141063E+02  0.00000000000E+00 0. -1.
         11    1    3    3    0    0  0.22519107812E+01  0.11071972154E+01 -0.95342937455E+01  0.98589931194E+01  0.51100000000E-03 0. -1.
        -11    1    3    3    0    0  0.26420996333E+02 -0.28748078976E+01  0.19789561417E+01  0.26650512853E+02  0.51100000000E-03 0.  1.
         12    1    3    3    0    0  0.11284778916E+02  0.77559586292E+01  0.30068468673E+01  0.14019352964E+02  0.00000000000E+00 0. -1.
</event>
<event>
 7    1  0.2991278E-011  0.5052885E+02  0.7816164E-02  0.1300439E+00
        -11   -1    0    0    0    0  0.00000000000E+00  0.00000000000E+00  0.45593999997E+02  0.45594000000E+02  0.51100000000E-03 0.  1.
         11   -1    0    0    0    0 -0.00000000000E+00 -0.00000000000E+00 -0.45593999997E+02  0.45594000000E+02  0.51100000000E-03 0. -1.
    9900012    2    1    2    0    0  0.14117403756E+02  0.29588038580E+02  0.24050218520E+02  0.50528854329E+02  0.29999983218E+02 0.  0.
         12    1    1    2    0    0 -0.14117403756E+02 -0.29588038580E+02 -0.24050218520E+02  0.40659145671E+02  0.00000000000E+00 0. -1.
         11    1    3    3    0    0  0.36114151354E+01  0.29024931320E+02  0.18869079222E+02  0.34807055439E+02  0.51100000000E-03 0. -1.
        -11    1    3    3    0    0  0.46811553907E+01 -0.43821305712E+01  0.49097938515E+01  0.80760361602E+01  0.51100000000E-03 0.  1.
         12    1    3    3    0    0  0.58248332299E+01  0.49452378314E+01  0.27134544731E+00  0.76457627296E+01  0.00000000000E+00 0. -1.
</event>
<event>
 7    1  0.2991278E-011  0.5052885E+02  0.7816164E-02  0.1300439E+00
        -11   -1    0    0    0    0  0.00000000000E+00  0.00000000000E+00  0.45593999997E+02  0.45594000000E+02  0.51100000000E-03 0.  1.
         11   -1    0    0    0    0 -0.00000000000E+00 -0.00000000000E+00 -0.45593999997E+02  0.45594000000E+02  0.51100000000E-03 0. -1.
    9900012    2    1    2    0    0 -0.30185254035E+01  0.10582034149E+02  0.39141741002E+02  0.50528845668E+02  0.29999956891E+02 0.  0.
         12    1    1    2    0    0  0.30185254035E+01 -0.10582034149E+02 -0.39141741002E+02  0.40659154332E+02  0.00000000000E+00 0. -1.
         11    1    3    3    0    0 -0.12644593491E+02  0.54101545716E+01  0.70645174749E+01  0.15461659822E+02  0.51100000000E-03 0. -1.
        -11    1    3    3    0    0  0.27855916343E+01  0.65912694058E+01  0.17312923930E+02  0.18733437709E+02  0.51100000000E-03 0.  1.
         12    1    3    3    0    0  0.68404764531E+01 -0.14193898283E+01  0.14764299597E+02  0.16333748136E+02  0.00000000000E+00 0. -1.
</event>
<event>
 7    1  0.2991278E-011  0.5052888E+02  0.7816164E-02  0.1300439E+00
        -11   -1    0    0    0    0  0.00000000000E+00  0.00000000000E+00  0.45593999997E+02  0.45594000000E+02  0.51100000000E-03 0. -1.
         11   -1    0    0    0    0 -0.00000000000E+00 -0.00000000000E+00 -0.45593999997E+02  0.45594000000E+02  0.51100000000E-03 0.  1.
    9900012    2    1    2    0    0  0.34651348475E+02  0.13361253530E+02 -0.16550684759E+02  0.50528877862E+02  0.30000054749E+02 0.  0.
         12    1    1    2    0    0 -0.34651348475E+02 -0.13361253530E+02  0.16550684759E+02  0.40659122138E+02  0.00000000000E+00 0. -1.
         11    1    3    3    0    0  0.15414084871E+02  0.87432843698E+01 -0.44771576141E-01  0.17721203083E+02  0.51100000000E-03 0. -1.
        -11    1    3    3    0    0  0.43204780971E+01  0.45589857575E+01 -0.16749850860E+02  0.17888778220E+02  0.51100000000E-03 0.  1.
         12    1    3    3    0    0  0.14916785508E+02  0.58983402914E-01  0.24393767724E+00  0.14918896558E+02  0.00000000000E+00 0. -1.
</event>
<event>
 7    1  0.2991278E-011  0.5052886E+02  0.7816164E-02  0.1300439E+00
        -11   -1    0    0    0    0  0.00000000000E+00  0.00000000000E+00  0.45593999997E+02  0.45594000000E+02  0.51100000000E-03 0. -1.
         11   -1    0    0    0    0 -0.00000000000E+00 -0.00000000000E+00 -0.45593999997E+02  0.45594000000E+02  0.51100000000E-03 0.  1.
    9900012    2    1    2    0    0 -0.22419495160E+00 -0.40161214291E+02  0.63397663359E+01  0.50528855470E+02  0.29999986687E+02 0.  0.
         12    1    1    2    0    0  0.22419495160E+00  0.40161214291E+02 -0.63397663359E+01  0.40659144530E+02  0.00000000000E+00 0. -1.
         11    1    3    3    0    0 -0.15220941218E+01 -0.13535635733E+02  0.10896236107E+02  0.17442997643E+02  0.51100000000E-03 0. -1.
        -11    1    3    3    0    0  0.75648352254E+00 -0.29534833512E+02 -0.53433392328E+01  0.30023822746E+02  0.51100000000E-03 0.  1.
        -12    1    3    3    0    0  0.54141564769E+00  0.29092549534E+01  0.78686946169E+00  0.30620350810E+01  0.00000000000E+00 0.  1.
</event>
<event>
 7    1  0.2991278E-011  0.5052886E+02  0.7816164E-02  0.1300439E+00
        -11   -1    0    0    0    0  0.00000000000E+00  0.00000000000E+00  0.45593999997E+02  0.45594000000E+02  0.51100000000E-03 0.  1.
         11   -1    0    0    0    0 -0.00000000000E+00 -0.00000000000E+00 -0.45593999997E+02  0.45594000000E+02  0.51100000000E-03 0. -1.
    9900012    2    1    2    0    0 -0.39730304875E+02 -0.36168518840E+01  0.78477361851E+01  0.50528859499E+02  0.29999998934E+02 0.  0.
         12    1    1    2    0    0  0.39730304875E+02  0.36168518840E+01 -0.78477361851E+01  0.40659140501E+02  0.00000000000E+00 0. -1.
         11    1    3    3    0    0  0.29752550397E+01  0.39556185380E+01 -0.19034394404E+01  0.53030314475E+01  0.51100000000E-03 0. -1.
        -11    1    3    3    0    0 -0.21024517211E+02 -0.37825755563E+01  0.90635328202E+01  0.23205297439E+02  0.51100000000E-03 0.  1.
        -12    1    3    3    0    0 -0.21681042704E+02 -0.37898948657E+01  0.68764280530E+00  0.22020530613E+02  0.00000000000E+00 0.  1.
</event>
<event>
 7    1  0.2991278E-011  0.5052886E+02  0.7816164E-02  0.1300439E+00
        -11   -1    0    0    0    0  0.00000000000E+00  0.00000000000E+00  0.45593999997E+02  0.45594000000E+02  0.51100000000E-03 0. -1.
         11   -1    0    0    0    0 -0.00000000000E+00 -0.00000000000E+00 -0.45593999997E+02  0.45594000000E+02  0.51100000000E-03 0.  1.
    9900012    2    1    2    0    0 -0.19974603623E+01  0.16316912082E+02 -0.37187817807E+02  0.50528864974E+02  0.30000015575E+02 0.  0.
         12    1    1    2    0    0  0.19974603623E+01 -0.16316912082E+02  0.37187817807E+02  0.40659135026E+02  0.00000000000E+00 0. -1.
         11    1    3    3    0    0 -0.10152396066E+01 -0.26929063609E+01  0.68214389757E+00  0.29576640589E+01  0.51100000000E-03 0. -1.
        -11    1    3    3    0    0 -0.99211556513E+01  0.14994102308E+02 -0.30117877503E+02  0.35076188205E+02  0.51100000000E-03 0.  1.
        -12    1    3    3    0    0  0.89389348955E+01  0.40157161346E+01 -0.77520842021E+01  0.12495012710E+02  0.00000000000E+00 0.  1.
</event>
<event>
 7    1  0.2991278E-011  0.5052887E+02  0.7816164E-02  0.1300439E+00
        -11   -1    0    0    0    0  0.00000000000E+00  0.00000000000E+00  0.45593999997E+02  0.45594000000E+02  0.51100000000E-03 0. -1.
         11   -1    0    0    0    0 -0.00000000000E+00 -0.00000000000E+00 -0.45593999997E+02  0.45594000000E+02  0.51100000000E-03 0.  1.
    9900012    2    1    2    0    0 -0.19043162570E+02 -0.19105730395E+02 -0.30421929395E+02  0.50528871103E+02  0.30000034204E+02 0.  0.
         12    1    1    2    0    0  0.19043162570E+02  0.19105730395E+02  0.30421929395E+02  0.40659128897E+02  0.00000000000E+00 0. -1.
         11    1    3    3    0    0  0.17495401838E+01 -0.10314638796E+02 -0.60757774377E+01  0.12098253431E+02  0.51100000000E-03 0. -1.
        -11    1    3    3    0    0 -0.16503454312E+02 -0.36417403403E+01 -0.26465783473E+02  0.31401655562E+02  0.51100000000E-03 0.  1.
        -12    1    3    3    0    0 -0.42892484420E+01 -0.51493512587E+01  0.21196315158E+01  0.70289621101E+01  0.00000000000E+00 0.  1.
</event>
<event>
 7    1  0.2991278E-011  0.5052885E+02  0.7816164E-02  0.1300439E+00
        -11   -1    0    0    0    0  0.00000000000E+00  0.00000000000E+00  0.45593999997E+02  0.45594000000E+02  0.51100000000E-03 0.  1.
         11   -1    0    0    0    0 -0.00000000000E+00 -0.00000000000E+00 -0.45593999997E+02  0.45594000000E+02  0.51100000000E-03 0. -1.
    9900012    2    1    2    0    0  0.17858276157E+02 -0.28266206496E+01  0.36417829335E+02  0.50528854595E+02  0.29999984026E+02 0.  0.
         12    1    1    2    0    0 -0.17858276157E+02  0.28266206496E+01 -0.36417829335E+02  0.40659145405E+02  0.00000000000E+00 0. -1.
         11    1    3    3    0    0 -0.29656944723E+01  0.39285459327E+01  0.49938670209E+01  0.70119558564E+01  0.51100000000E-03 0. -1.
        -11    1    3    3    0    0  0.17929628410E+02  0.41723022202E+01  0.15974581183E+02  0.24373488157E+02  0.51100000000E-03 0.  1.
        -12    1    3    3    0    0  0.28943422191E+01 -0.10927468803E+02  0.15449381132E+02  0.19143410581E+02  0.00000000000E+00 0.  1.
</event>
<event>
 7    1  0.2991278E-011  0.5052886E+02  0.7816164E-02  0.1300439E+00
        -11   -1    0    0    0    0  0.00000000000E+00  0.00000000000E+00  0.45593999997E+02  0.45594000000E+02  0.51100000000E-03 0.  1.
         11   -1    0    0    0    0 -0.00000000000E+00 -0.00000000000E+00 -0.45593999997E+02  0.45594000000E+02  0.51100000000E-03 0. -1.
    9900012    2    1    2    0    0  0.34711666585E+02  0.59359247644E+01 -0.20323150061E+02  0.50528862918E+02  0.30000009325E+02 0.  0.
         12    1    1    2    0    0 -0.34711666585E+02 -0.59359247644E+01  0.20323150061E+02  0.40659137082E+02  0.00000000000E+00 0. -1.
         11    1    3    3    0    0 -0.38387870932E+01  0.14260378699E+01  0.14435453913E+01  0.43420840516E+01  0.51100000000E-03 0. -1.
        -11    1    3    3    0    0  0.15728999188E+02  0.15954115689E+01 -0.15946432403E+02  0.22455187823E+02  0.51100000000E-03 0.  1.
         12    1    3    3    0    0  0.22821454490E+02  0.29144753256E+01 -0.58202630483E+01  0.23731591043E+02  0.00000000000E+00 0. -1.
</event>
<event>
 7    1  0.2991278E-011  0.5052886E+02  0.7816164E-02  0.1300439E+00
        -11   -1    0    0    0    0  0.00000000000E+00  0.00000000000E+00  0.45593999997E+02  0.45594000000E+02  0.51100000000E-03 0.  1.
         11   -1    0    0    0    0 -0.00000000000E+00 -0.00000000000E+00 -0.45593999997E+02  0.45594000000E+02  0.51100000000E-03 0. -1.
    9900012    2    1    2    0    0  0.60427413546E+01  0.36585545586E+02 -0.16677793877E+02  0.50528859853E+02  0.30000000010E+02 0.  0.
         12    1    1    2    0    0 -0.60427413546E+01 -0.36585545586E+02  0.16677793877E+02  0.40659140147E+02  0.00000000000E+00 0. -1.
         11    1    3    3    0    0 -0.66607906054E+01  0.13199453015E+00 -0.31442881126E+01  0.73668244204E+01  0.51100000000E-03 0. -1.
        -11    1    3    3    0    0  0.10347529498E+02  0.25893438900E+02 -0.15882249383E+02  0.32090300567E+02  0.51100000000E-03 0.  1.
         12    1    3    3    0    0  0.23560024617E+01  0.10560112156E+02  0.23487436187E+01  0.11071734866E+02  0.00000000000E+00 0. -1.
</event>
<event>
 7    1  0.2991278E-011  0.5052887E+02  0.7816164E-02  0.1300439E+00
        -11   -1    0    0    0    0  0.00000000000E+00  0.00000000000E+00  0.45593999997E+02  0.45594000000E+02  0.51100000000E-03 0.  1.
         11   -1    0    0    0    0 -0.00000000000E+00 -0.00000000000E+00 -0.45593999997E+02  0.45594000000E+02  0.51100000000E-03 0. -1.
    9900012    2    1    2    0    0 -0.18153245106E+02  0.70341773874E+01  0.35695170111E+02  0.50528866603E+02  0.30000020525E+02 0.  0.
         12    1    1    2    0    0  0.18153245106E+02 -0.70341773874E+01 -0.35695170111E+02  0.40659133397E+02  0.00000000000E+00 0. -1.
         11    1    3    3    0    0  0.29759931961E+01  0.38685492104E+00  0.22660397256E+02  0.22858254445E+02  0.51100000000E-03 0. -1.
        -11    1    3    3    0    0 -0.12864771469E+02  0.33355525530E+01  0.13247175471E+02  0.18764751903E+02  0.51100000000E-03 0.  1.
         12    1    3    3    0    0 -0.82644668331E+01  0.33117699133E+01 -0.21240261581E+00  0.89058602540E+01  0.00000000000E+00 0. -1.
</event>
<event>
 7    1  0.2991278E-011  0.5052886E+02  0.7816164E-02  0.1300439E+00
        -11   -1    0    0    0    0  0.00000000000E+00  0.00000000000E+00  0.45593999997E+02  0.45594000000E+02  0.51100000000E-03 0. -1.
         11   -1    0    0    0    0 -0.00000000000E+00 -0.00000000000E+00 -0.45593999997E+02  0.45594000000E+02  0.51100000000E-03 0.  1.
    9900012    2    1    2    0    0 -0.96086587218E+01  0.35877663958E+02 -0.16541835944E+02  0.50528862897E+02  0.30000009262E+02 0.  0.
         12    1    1    2    0    0  0.96086587218E+01 -0.35877663958E+02  0.16541835944E+02  0.40659137103E+02  0.00000000000E+00 0. -1.
         11    1    3    3    0    0 -0.43432777787E+01  0.30258975477E+02 -0.77583227371E+00  0.30578940053E+02  0.51100000000E-03 0. -1.
        -11    1    3    3    0    0 -0.31643905499E+01  0.81469608028E+01 -0.12938996259E+02  0.15614223078E+02  0.51100000000E-03 0.  1.
        -12    1    3    3    0    0 -0.21009903932E+01 -0.25282723210E+01 -0.28270074119E+01  0.43356997668E+01  0.00000000000E+00 0.  1.
</event>
<event>
 7    1  0.2991278E-011  0.5052888E+02  0.7816164E-02  0.1300439E+00
        -11   -1    0    0    0    0  0.00000000000E+00  0.00000000000E+00  0.45593999997E+02  0.45594000000E+02  0.51100000000E-03 0.  1.
         11   -1    0    0    0    0 -0.00000000000E+00 -0.00000000000E+00 -0.45593999997E+02  0.45594000000E+02  0.51100000000E-03 0. -1.
    9900012    2    1    2    0    0  0.28870558434E+02 -0.11666317300E+01  0.28605843142E+02  0.50528875123E+02  0.30000046425E+02 0.  0.
         12    1    1    2    0    0 -0.28870558434E+02  0.11666317300E+01 -0.28605843142E+02  0.40659124877E+02  0.00000000000E+00 0. -1.
         11    1    3    3    0    0  0.10682614234E+02 -0.54643539760E+01  0.25429500793E+02  0.28118266698E+02  0.51100000000E-03 0.  1.
        -11    1    3    3    0    0  0.91927684921E+01  0.16290221379E+01 -0.44284288539E+01  0.10333038665E+02  0.51100000000E-03 0. -1.
        -12    1    3    3    0    0  0.89951757074E+01  0.26687001081E+01  0.76047712031E+01  0.12077569761E+02  0.00000000000E+00 0.  1.
</event>
<event>
 7    1  0.2991278E-011  0.5052887E+02  0.7816164E-02  0.1300439E+00
        -11   -1    0    0    0    0  0.00000000000E+00  0.00000000000E+00  0.45593999997E+02  0.45594000000E+02  0.51100000000E-03 0.  1.
         11   -1    0    0    0    0 -0.00000000000E+00 -0.00000000000E+00 -0.45593999997E+02  0.45594000000E+02  0.51100000000E-03 0. -1.
    9900012    2    1    2    0    0  0.34176402379E+02  0.19285401505E+02  0.10640114809E+02  0.50528865308E+02  0.30000016589E+02 0.  0.
         12    1    1    2    0    0 -0.34176402379E+02 -0.19285401505E+02 -0.10640114809E+02  0.40659134692E+02  0.00000000000E+00 0. -1.
         11    1    3    3    0    0  0.16102435700E+02  0.22263878501E+02 -0.18316159129E+01  0.27537674893E+02  0.51100000000E-03 0. -1.
        -11    1    3    3    0    0  0.49371413120E+01 -0.69974671916E-03  0.67340188848E+01  0.83499925405E+01  0.51100000000E-03 0.  1.
         12    1    3    3    0    0  0.13136825367E+02 -0.29777772494E+01  0.57377118375E+01  0.14641197874E+02  0.00000000000E+00 0. -1.
</event>
<event>
 7    1  0.2991278E-011  0.5052887E+02  0.7816164E-02  0.1300439E+00
        -11   -1    0    0    0    0  0.00000000000E+00  0.00000000000E+00  0.45593999997E+02  0.45594000000E+02  0.51100000000E-03 0.  1.
         11   -1    0    0    0    0 -0.00000000000E+00 -0.00000000000E+00 -0.45593999997E+02  0.45594000000E+02  0.51100000000E-03 0. -1.
    9900012    2    1    2    0    0  0.16534637954E+02  0.50963571962E+01  0.36793993379E+02  0.50528867475E+02  0.30000023176E+02 0.  0.
         12    1    1    2    0    0 -0.16534637954E+02 -0.50963571962E+01 -0.36793993379E+02  0.40659132525E+02  0.00000000000E+00 0. -1.
         11    1    3    3    0    0 -0.29609396018E+01 -0.33648616444E+01 -0.98725467928E+00  0.45895674387E+01  0.51100000000E-03 0. -1.
        -11    1    3    3    0    0  0.65638548925E+01  0.10792238467E+02  0.14716369698E+02  0.19394023294E+02  0.51100000000E-03 0.  1.
         12    1    3    3    0    0  0.12931722663E+02 -0.23310196263E+01  0.23064878360E+02  0.26545276742E+02  0.00000000000E+00 0. -1.
</event>
<event>
 7    1  0.2991278E-011  0.5052886E+02  0.7816164E-02  0.1300439E+00
        -11   -1    0    0    0    0  0.00000000000E+00  0.00000000000E+00  0.45593999997E+02  0.45594000000E+02  0.51100000000E-03 0.  1.
         11   -1    0    0    0    0 -0.00000000000E+00 -0.00000000000E+00 -0.45593999997E+02  0.45594000000E+02  0.51100000000E-03 0. -1.
    9900012    2    1    2    0    0  0.18153225762E+02  0.38893136122E+01  0.36173185438E+02  0.50528859444E+02  0.29999998767E+02 0.  0.
         12    1    1    2    0    0 -0.18153225762E+02 -0.38893136122E+01 -0.36173185438E+02  0.40659140556E+02  0.00000000000E+00 0. -1.
         11    1    3    3    0    0  0.66766577380E+01  0.11976702737E+02  0.73283500265E+01  0.15547471864E+02  0.51100000000E-03 0. -1.
        -11    1    3    3    0    0  0.10154432331E+02 -0.17412556604E+00  0.89765474649E+01  0.13554380116E+02  0.51100000000E-03 0.  1.
         12    1    3    3    0    0  0.13221356936E+01 -0.79132635585E+01  0.19868287947E+02  0.21427007464E+02  0.00000000000E+00 0. -1.
</event>
<event>
 7    1  0.2991278E-011  0.5052889E+02  0.7816164E-02  0.1300439E+00
        -11   -1    0    0    0    0  0.00000000000E+00  0.00000000000E+00  0.45593999997E+02  0.45594000000E+02  0.51100000000E-03 0.  1.
         11   -1    0    0    0    0 -0.00000000000E+00 -0.00000000000E+00 -0.45593999997E+02  0.45594000000E+02  0.51100000000E-03 0. -1.
    9900012    2    1    2    0    0  0.36419657381E+02  0.57523290214E+01  0.17137163176E+02  0.50528891615E+02  0.30000096554E+02 0.  0.
         12    1    1    2    0    0 -0.36419657381E+02 -0.57523290214E+01 -0.17137163176E+02  0.40659108385E+02  0.00000000000E+00 0. -1.
         11    1    3    3    0    0  0.14032011397E+02 -0.56153137903E+01 -0.22295151686E+01  0.15277428808E+02  0.51100000000E-03 0. -1.
        -11    1    3    3    0    0  0.21059487018E+02  0.14095688295E+02  0.13660831324E+02  0.28789038447E+02  0.51100000000E-03 0.  1.
        -12    1    3    3    0    0  0.13281589655E+01 -0.27280454834E+01  0.57058470202E+01  0.64624243605E+01  0.00000000000E+00 0.  1.
</event>
<event>
 7    1  0.2991278E-011  0.5052885E+02  0.7816164E-02  0.1300439E+00
        -11   -1    0    0    0    0  0.00000000000E+00  0.00000000000E+00  0.45593999997E+02  0.45594000000E+02  0.51100000000E-03 0.  1.
         11   -1    0    0    0    0 -0.00000000000E+00 -0.00000000000E+00 -0.45593999997E+02  0.45594000000E+02  0.51100000000E-03 0. -1.
    9900012    2    1    2    0    0  0.54963889795E+01  0.30498734732E+02  0.26320775619E+02  0.50528851691E+02  0.29999975200E+02 0.  0.
         12    1    1    2    0    0 -0.54963889795E+01 -0.30498734732E+02 -0.26320775619E+02  0.40659148309E+02  0.00000000000E+00 0. -1.
         11    1    3    3    0    0 -0.69507456647E+00 -0.55191992040E+01  0.57368497074E+01  0.79910032745E+01  0.51100000000E-03 0. -1.
        -11    1    3    3    0    0  0.16309947074E+01  0.73329999538E+01  0.11722558004E+01  0.76031056800E+01  0.51100000000E-03 0.  1.
         12    1    3    3    0    0  0.45604688386E+01  0.28684933982E+02  0.19411670111E+02  0.34934742736E+02  0.00000000000E+00 0. -1.
</event>
<event>
 7    1  0.2991278E-011  0.5052887E+02  0.7816164E-02  0.1300439E+00
        -11   -1    0    0    0    0  0.00000000000E+00  0.00000000000E+00  0.45593999997E+02  0.45594000000E+02  0.51100000000E-03 0.  1.
         11   -1    0    0    0    0 -0.00000000000E+00 -0.00000000000E+00 -0.45593999997E+02  0.45594000000E+02  0.51100000000E-03 0. -1.
    9900012    2    1    2    0    0  0.22752412940E+01  0.31513352220E+02  0.25590955706E+02  0.50528866892E+02  0.30000021406E+02 0.  0.
         12    1    1    2    0    0 -0.22752412940E+01 -0.31513352220E+02 -0.25590955706E+02  0.40659133108E+02  0.00000000000E+00 0. -1.
         11    1    3    3    0    0 -0.85676519778E+01  0.17232500722E+01  0.12163329490E+02  0.14977344082E+02  0.51100000000E-03 0. -1.
        -11    1    3    3    0    0  0.82609570053E+01  0.10069841455E+02  0.50150486507E+01  0.13956927699E+02  0.51100000000E-03 0.  1.
         12    1    3    3    0    0  0.25819362664E+01  0.19720260694E+02  0.84125775654E+01  0.21594595111E+02  0.00000000000E+00 0. -1.
</event>
<event>
 7    1  0.2991278E-011  0.5052886E+02  0.7816164E-02  0.1300439E+00
        -11   -1    0    0    0    0  0.00000000000E+00  0.00000000000E+00  0.45593999997E+02  0.45594000000E+02  0.51100000000E-03 0.  1.
         11   -1    0    0    0    0 -0.00000000000E+00 -0.00000000000E+00 -0.45593999997E+02  0.45594000000E+02  0.51100000000E-03 0. -1.
    9900012    2    1    2    0    0  0.27852516599E+02 -0.22487955394E+02  0.19279391979E+02  0.50528858669E+02  0.29999996410E+02 0.  0.
         12    1    1    2    0    0 -0.27852516599E+02  0.22487955394E+02 -0.19279391979E+02  0.40659141331E+02  0.00000000000E+00 0. -1.
         11    1    3    3    0    0  0.45740889523E+01 -0.88558614047E+01  0.43694289827E+01  0.10883036381E+02  0.51100000000E-03 0.  1.
        -11    1    3    3    0    0  0.75439632850E+01 -0.51517407330E+01 -0.68992313617E+01  0.11447759967E+02  0.51100000000E-03 0. -1.
        -12    1    3    3    0    0  0.15734464362E+02 -0.84803532563E+01  0.21809194358E+02  0.28198062321E+02  0.00000000000E+00 0.  1.
</event>
<event>
 7    1  0.2991278E-011  0.5052886E+02  0.7816164E-02  0.1300439E+00
        -11   -1    0    0    0    0  0.00000000000E+00  0.00000000000E+00  0.45593999997E+02  0.45594000000E+02  0.51100000000E-03 0.  1.
         11   -1    0    0    0    0 -0.00000000000E+00 -0.00000000000E+00 -0.45593999997E+02  0.45594000000E+02  0.51100000000E-03 0. -1.
    9900012    2    1    2    0    0  0.18904091119E+02 -0.32392374639E+02  0.15701425881E+02  0.50528863628E+02  0.30000011484E+02 0.  0.
         12    1    1    2    0    0 -0.18904091119E+02  0.32392374639E+02 -0.15701425881E+02  0.40659136372E+02  0.00000000000E+00 0. -1.
         11    1    3    3    0    0  0.19226941866E+02 -0.27734505608E+02  0.18508267666E+02  0.38489402010E+02  0.51100000000E-03 0. -1.
        -11    1    3    3    0    0  0.44140973542E+01 -0.53116841674E+01 -0.19987862353E+01  0.71898115985E+01  0.51100000000E-03 0.  1.
         12    1    3    3    0    0 -0.47369481010E+01  0.65381513635E+00 -0.80805554935E+00  0.48496500198E+01  0.00000000000E+00 0. -1.
</event>
<event>
 7    1  0.2991278E-011  0.5052889E+02  0.7816164E-02  0.1300439E+00
        -11   -1    0    0    0    0  0.00000000000E+00  0.00000000000E+00  0.45593999997E+02  0.45594000000E+02  0.51100000000E-03 0.  1.
         11   -1    0    0    0    0 -0.00000000000E+00 -0.00000000000E+00 -0.45593999997E+02  0.45594000000E+02  0.51100000000E-03 0. -1.
    9900012    2    1    2    0    0 -0.83970539879E-01 -0.27982342350E+01  0.40562619804E+02  0.50528889197E+02  0.30000089204E+02 0.  0.
         12    1    1    2    0    0  0.83970539879E-01  0.27982342350E+01 -0.40562619804E+02  0.40659110803E+02  0.00000000000E+00 0. -1.
         11    1    3    3    0    0 -0.36020254940E+01  0.79289990825E+01  0.24525971194E+02  0.26026272829E+02  0.51100000000E-03 0.  1.
        -11    1    3    3    0    0 -0.54405328703E+00 -0.60190288153E+01 -0.12149907789E+01  0.61644873844E+01  0.51100000000E-03 0. -1.
        -12    1    3    3    0    0  0.40621082412E+01 -0.47082045022E+01  0.17251639390E+02  0.18338128984E+02  0.00000000000E+00 0.  1.
</event>
<event>
 7    1  0.2991278E-011  0.5052886E+02  0.7816164E-02  0.1300439E+00
        -11   -1    0    0    0    0  0.00000000000E+00  0.00000000000E+00  0.45593999997E+02  0.45594000000E+02  0.51100000000E-03 0.  1.
         11   -1    0    0    0    0 -0.00000000000E+00 -0.00000000000E+00 -0.45593999997E+02  0.45594000000E+02  0.51100000000E-03 0. -1.
    9900012    2    1    2    0    0  0.18267876518E+02  0.14085462302E+02  0.33482080306E+02  0.50528864957E+02  0.30000015525E+02 0.  0.
         12    1    1    2    0    0 -0.18267876518E+02 -0.14085462302E+02 -0.33482080306E+02  0.40659135043E+02  0.00000000000E+00 0. -1.
         11    1    3    3    0    0  0.43564133271E+01  0.19027962165E+01 -0.32123538225E+01  0.57374373948E+01  0.51100000000E-03 0. -1.
        -11    1    3    3    0    0  0.11620657457E+02  0.16147427470E+02  0.34230157885E+02  0.39591448606E+02  0.51100000000E-03 0.  1.
        -12    1    3    3    0    0  0.22908057343E+01 -0.39647613837E+01  0.24642762435E+01  0.51999789563E+01  0.00000000000E+00 0.  1.
</event>
<event>
 7    1  0.2991278E-011  0.5052887E+02  0.7816164E-02  0.1300439E+00
        -11   -1    0    0    0    0  0.00000000000E+00  0.00000000000E+00  0.45593999997E+02  0.45594000000E+02  0.51100000000E-03 0.  1.
         11   -1    0    0    0    0 -0.00000000000E+00 -0.00000000000E+00 -0.45593999997E+02  0.45594000000E+02  0.51100000000E-03 0. -1.
    9900012    2    1    2    0    0 -0.86655477549E+01 -0.39189044081E+02  0.65032329965E+01  0.50528869005E+02  0.30000027828E+02 0.  0.
         12    1    1    2    0    0  0.86655477549E+01  0.39189044081E+02 -0.65032329965E+01  0.40659130995E+02  0.00000000000E+00 0. -1.
         11    1    3    3    0    0 -0.97995958049E+01 -0.96773469990E+01 -0.92708960421E+01  0.16602187704E+02  0.51100000000E-03 0. -1.
        -11    1    3    3    0    0  0.43208486339E+00 -0.77368841609E+01  0.69917824715E+01  0.10437006096E+02  0.51100000000E-03 0.  1.
         12    1    3    3    0    0  0.70196318656E+00 -0.21774812921E+02  0.87823465671E+01  0.23489675206E+02  0.00000000000E+00 0. -1.
</event>
<event>
 7    1  0.2991278E-011  0.5052886E+02  0.7816164E-02  0.1300439E+00
        -11   -1    0    0    0    0  0.00000000000E+00  0.00000000000E+00  0.45593999997E+02  0.45594000000E+02  0.51100000000E-03 0. -1.
         11   -1    0    0    0    0 -0.00000000000E+00 -0.00000000000E+00 -0.45593999997E+02  0.45594000000E+02  0.51100000000E-03 0.  1.
    9900012    2    1    2    0    0 -0.15056194762E+02 -0.37755448434E+02  0.10014622582E+01  0.50528858177E+02  0.29999994914E+02 0.  0.
         12    1    1    2    0    0  0.15056194762E+02  0.37755448434E+02 -0.10014622582E+01  0.40659141823E+02  0.00000000000E+00 0. -1.
         11    1    3    3    0    0 -0.10659272808E+02 -0.29374974992E+02  0.11388821268E+02  0.33259803107E+02  0.51100000000E-03 0. -1.
        -11    1    3    3    0    0 -0.62786122823E+01 -0.14858454981E+01 -0.63877591992E+01  0.90792167550E+01  0.51100000000E-03 0.  1.
         12    1    3    3    0    0  0.18816903289E+01 -0.68946279439E+01 -0.39995998106E+01  0.81898383148E+01  0.00000000000E+00 0. -1.
</event>
<event>
 7    1  0.2991278E-011  0.5052886E+02  0.7816164E-02  0.1300439E+00
        -11   -1    0    0    0    0  0.00000000000E+00  0.00000000000E+00  0.45593999997E+02  0.45594000000E+02  0.51100000000E-03 0.  1.
         11   -1    0    0    0    0 -0.00000000000E+00 -0.00000000000E+00 -0.45593999997E+02  0.45594000000E+02  0.51100000000E-03 0. -1.
    9900012    2    1    2    0    0  0.26705521504E+02  0.21470387696E+02  0.21886144096E+02  0.50528859207E+02  0.29999998046E+02 0.  0.
         12    1    1    2    0    0 -0.26705521504E+02 -0.21470387696E+02 -0.21886144096E+02  0.40659140793E+02  0.00000000000E+00 0. -1.
         11    1    3    3    0    0  0.18104377575E+02  0.21368975593E+02  0.52904233989E+01  0.28502459285E+02  0.51100000000E-03 0. -1.
        -11    1    3    3    0    0  0.46172882030E+01 -0.55697140282E+01  0.61761983096E+01  0.95124387265E+01  0.51100000000E-03 0.  1.
         12    1    3    3    0    0  0.39838557267E+01  0.56711261306E+01  0.10419522387E+02  0.12513961196E+02  0.00000000000E+00 0. -1.
</event>
<event>
 7    1  0.2991278E-011  0.5052885E+02  0.7816164E-02  0.1300439E+00
        -11   -1    0    0    0    0  0.00000000000E+00  0.00000000000E+00  0.45593999997E+02  0.45594000000E+02  0.51100000000E-03 0.  1.
         11   -1    0    0    0    0 -0.00000000000E+00 -0.00000000000E+00 -0.45593999997E+02  0.45594000000E+02  0.51100000000E-03 0. -1.
    9900012    2    1    2    0    0  0.26366596481E+02  0.19700307379E+02  0.23871890464E+02  0.50528847584E+02  0.29999962717E+02 0.  0.
         12    1    1    2    0    0 -0.26366596481E+02 -0.19700307379E+02 -0.23871890464E+02  0.40659152416E+02  0.00000000000E+00 0. -1.
         11    1    3    3    0    0 -0.60971653880E+01  0.27688325983E+01  0.48378119334E+01  0.82611309329E+01  0.51100000000E-03 0. -1.
        -11    1    3    3    0    0  0.17680941009E+01 -0.76088163269E+00  0.25402598968E+01  0.31871646040E+01  0.51100000000E-03 0.  1.
         12    1    3    3    0    0  0.30695667768E+02  0.17692356413E+02  0.16493818634E+02  0.39080552047E+02  0.00000000000E+00 0. -1.
</event>
<event>
 7    1  0.2991278E-011  0.5052885E+02  0.7816164E-02  0.1300439E+00
        -11   -1    0    0    0    0  0.00000000000E+00  0.00000000000E+00  0.45593999997E+02  0.45594000000E+02  0.51100000000E-03 0.  1.
         11   -1    0    0    0    0 -0.00000000000E+00 -0.00000000000E+00 -0.45593999997E+02  0.45594000000E+02  0.51100000000E-03 0. -1.
    9900012    2    1    2    0    0 -0.39813714800E+02  0.18167819013E+01 -0.80457280728E+01  0.50528851917E+02  0.29999975886E+02 0.  0.
         12    1    1    2    0    0  0.39813714800E+02 -0.18167819013E+01  0.80457280728E+01  0.40659148083E+02  0.00000000000E+00 0. -1.
         11    1    3    3    0    0  0.26609948712E+01 -0.95994358488E+00  0.61645065393E+00  0.28952369611E+01  0.51100000000E-03 0. -1.
        -11    1    3    3    0    0 -0.33917948369E+02  0.60032298102E+01 -0.13843548932E+02  0.37122901786E+02  0.51100000000E-03 0.  1.
        -12    1    3    3    0    0 -0.85567613024E+01 -0.32265043240E+01  0.51813702054E+01  0.10510713170E+02  0.00000000000E+00 0.  1.
</event>
<event>
 7    1  0.2991278E-011  0.5052886E+02  0.7816164E-02  0.1300439E+00
        -11   -1    0    0    0    0  0.00000000000E+00  0.00000000000E+00  0.45593999997E+02  0.45594000000E+02  0.51100000000E-03 0.  1.
         11   -1    0    0    0    0 -0.00000000000E+00 -0.00000000000E+00 -0.45593999997E+02  0.45594000000E+02  0.51100000000E-03 0. -1.
    9900012    2    1    2    0    0  0.13730626436E+02  0.13204416845E+01  0.38247775054E+02  0.50528856316E+02  0.29999989257E+02 0.  0.
         12    1    1    2    0    0 -0.13730626436E+02 -0.13204416845E+01 -0.38247775054E+02  0.40659143684E+02  0.00000000000E+00 0. -1.
         11    1    3    3    0    0  0.64110227051E+01 -0.32012513796E+00 -0.24773300685E+01  0.68804692252E+01  0.51100000000E-03 0. -1.
        -11    1    3    3    0    0  0.10352490505E+02 -0.10278792805E+01  0.35786689991E+02  0.37268187188E+02  0.51100000000E-03 0.  1.
         12    1    3    3    0    0 -0.30328867740E+01  0.26684461030E+01  0.49384151316E+01  0.63801999028E+01  0.00000000000E+00 0. -1.
</event>
<event>
 7    1  0.2991278E-011  0.5052886E+02  0.7816164E-02  0.1300439E+00
        -11   -1    0    0    0    0  0.00000000000E+00  0.00000000000E+00  0.45593999997E+02  0.45594000000E+02  0.51100000000E-03 0. -1.
         11   -1    0    0    0    0 -0.00000000000E+00 -0.00000000000E+00 -0.45593999997E+02  0.45594000000E+02  0.51100000000E-03 0.  1.
    9900012    2    1    2    0    0  0.52243335170E+01 -0.26346677493E+02  0.30524168383E+02  0.50528856734E+02  0.29999990530E+02 0.  0.
         12    1    1    2    0    0 -0.52243335170E+01  0.26346677493E+02 -0.30524168383E+02  0.40659143266E+02  0.00000000000E+00 0. -1.
         11    1    3    3    0    0 -0.60253032727E+01  0.14281334572E+01  0.11736438336E+02  0.13269808958E+02  0.51100000000E-03 0. -1.
        -11    1    3    3    0    0  0.47397733281E+01 -0.17189559091E+02  0.46324591649E+01  0.18422976717E+02  0.51100000000E-03 0.  1.
         12    1    3    3    0    0  0.65098634616E+01 -0.10585251860E+02  0.14155270882E+02  0.18836071059E+02  0.00000000000E+00 0. -1.
</event>
<event>
 7    1  0.2991278E-011  0.5052887E+02  0.7816164E-02  0.1300439E+00
        -11   -1    0    0    0    0  0.00000000000E+00  0.00000000000E+00  0.45593999997E+02  0.45594000000E+02  0.51100000000E-03 0.  1.
         11   -1    0    0    0    0 -0.00000000000E+00 -0.00000000000E+00 -0.45593999997E+02  0.45594000000E+02  0.51100000000E-03 0. -1.
    9900012    2    1    2    0    0  0.16438108606E+02  0.73604829276E+01  0.36452385655E+02  0.50528873800E+02  0.30000042401E+02 0.  0.
         12    1    1    2    0    0 -0.16438108606E+02 -0.73604829276E+01 -0.36452385655E+02  0.40659126200E+02  0.00000000000E+00 0. -1.
         11    1    3    3    0    0 -0.14477610927E+01  0.11955520524E+02  0.88513103891E+01  0.14945774622E+02  0.51100000000E-03 0. -1.
        -11    1    3    3    0    0  0.79573770092E+01 -0.64515413290E+01  0.63468690891E+01  0.12050932822E+02  0.51100000000E-03 0.  1.
         12    1    3    3    0    0  0.99284926892E+01  0.18565037324E+01  0.21254206177E+02  0.23532166356E+02  0.00000000000E+00 0. -1.
</event>
<event>
 7    1  0.2991278E-011  0.5052876E+02  0.7816164E-02  0.1300439E+00
        -11   -1    0    0    0    0  0.00000000000E+00  0.00000000000E+00  0.45593999997E+02  0.45594000000E+02  0.51100000000E-03 0.  1.
         11   -1    0    0    0    0 -0.00000000000E+00 -0.00000000000E+00 -0.45593999997E+02  0.45594000000E+02  0.51100000000E-03 0. -1.
    9900012    2    1    2    0    0 -0.27211984887E+02 -0.21104071947E+01  0.30136820662E+02  0.50528758742E+02  0.29999692671E+02 0.  0.
         12    1    1    2    0    0  0.27211984887E+02  0.21104071947E+01 -0.30136820662E+02  0.40659241258E+02  0.00000000000E+00 0. -1.
         11    1    3    3    0    0 -0.93280984947E+01 -0.11837101262E+02  0.28076739566E+01  0.15330147459E+02  0.51100000000E-03 0. -1.
        -11    1    3    3    0    0 -0.31160624810E+01  0.12461936066E+00  0.10053313622E+02  0.10525896181E+02  0.51100000000E-03 0.  1.
         12    1    3    3    0    0 -0.14767823912E+02  0.96020747069E+01  0.17275833083E+02  0.24672715102E+02  0.00000000000E+00 0. -1.
</event>
<event>
 7    1  0.2991278E-011  0.5052886E+02  0.7816164E-02  0.1300439E+00
        -11   -1    0    0    0    0  0.00000000000E+00  0.00000000000E+00  0.45593999997E+02  0.45594000000E+02  0.51100000000E-03 0. -1.
         11   -1    0    0    0    0 -0.00000000000E+00 -0.00000000000E+00 -0.45593999997E+02  0.45594000000E+02  0.51100000000E-03 0.  1.
    9900012    2    1    2    0    0  0.24494008826E+02  0.28677575701E+02  0.15192303183E+02  0.50528857209E+02  0.29999991973E+02 0.  0.
         12    1    1    2    0    0 -0.24494008826E+02 -0.28677575701E+02 -0.15192303183E+02  0.40659142791E+02  0.00000000000E+00 0. -1.
         11    1    3    3    0    0  0.52269232049E+01 -0.34492018818E+01  0.23299922047E+01  0.66818099154E+01  0.51100000000E-03 0. -1.
        -11    1    3    3    0    0  0.22714776722E+01  0.14104912968E+02 -0.27735669761E+01  0.14553379494E+02  0.51100000000E-03 0.  1.
        -12    1    3    3    0    0  0.16995607949E+02  0.18021864615E+02  0.15635877955E+02  0.29293667800E+02  0.00000000000E+00 0.  1.
</event>
<event>
 7    1  0.2991278E-011  0.5052886E+02  0.7816164E-02  0.1300439E+00
        -11   -1    0    0    0    0  0.00000000000E+00  0.00000000000E+00  0.45593999997E+02  0.45594000000E+02  0.51100000000E-03 0.  1.
         11   -1    0    0    0    0 -0.00000000000E+00 -0.00000000000E+00 -0.45593999997E+02  0.45594000000E+02  0.51100000000E-03 0. -1.
    9900012    2    1    2    0    0  0.36170589881E+02  0.54203744289E+01  0.17761567251E+02  0.50528864465E+02  0.30000014028E+02 0.  0.
         12    1    1    2    0    0 -0.36170589881E+02 -0.54203744289E+01 -0.17761567251E+02  0.40659135535E+02  0.00000000000E+00 0. -1.
         11    1    3    3    0    0 -0.24944276679E+01  0.38037894128E+01 -0.16509549832E+01  0.48390738685E+01  0.51100000000E-03 0. -1.
        -11    1    3    3    0    0  0.29018145166E+02 -0.45918273290E+01  0.10634379882E+02  0.31244642146E+02  0.51100000000E-03 0.  1.
        -12    1    3    3    0    0  0.96468723820E+01  0.62084123452E+01  0.87781423514E+01  0.14445148450E+02  0.00000000000E+00 0.  1.
</event>
<event>
 7    1  0.2991278E-011  0.5052886E+02  0.7816164E-02  0.1300439E+00
        -11   -1    0    0    0    0  0.00000000000E+00  0.00000000000E+00  0.45593999997E+02  0.45594000000E+02  0.51100000000E-03 0. -1.
         11   -1    0    0    0    0 -0.00000000000E+00 -0.00000000000E+00 -0.45593999997E+02  0.45594000000E+02  0.51100000000E-03 0.  1.
    9900012    2    1    2    0    0  0.52192090973E+01  0.12524191446E+02 -0.38328453010E+02  0.50528858038E+02  0.29999994492E+02 0.  0.
         12    1    1    2    0    0 -0.52192090973E+01 -0.12524191446E+02  0.38328453010E+02  0.40659141962E+02  0.00000000000E+00 0. -1.
         11    1    3    3    0    0  0.65038263170E+00  0.89689681090E+01 -0.37090069928E+01  0.97273901762E+01  0.51100000000E-03 0. -1.
        -11    1    3    3    0    0 -0.88352645415E+00 -0.20269132169E+01 -0.32688241918E+02  0.32762938759E+02  0.51100000000E-03 0.  1.
        -12    1    3    3    0    0  0.54523529197E+01  0.55821365537E+01 -0.19312040991E+01  0.80385291028E+01  0.00000000000E+00 0.  1.
</event>
<event>
 7    1  0.3397278E-011  0.5052883E+02  0.7816164E-02  0.1300439E+00
        -11   -1    0    0    0    0  0.00000000000E+00  0.00000000000E+00  0.45593999997E+02  0.45594000000E+02  0.51100000000E-03 0. -1.
         11   -1    0    0    0    0 -0.00000000000E+00 -0.00000000000E+00 -0.45593999997E+02  0.45594000000E+02  0.51100000000E-03 0.  1.
    9900012    2    1    2    0    0 -0.26273353209E+02 -0.14220769231E+02 -0.27579859938E+02  0.50528830794E+02  0.29999911681E+02 0.  0.
         12    1    1    2    0    0  0.26273353209E+02  0.14220769231E+02  0.27579859938E+02  0.40659169206E+02  0.00000000000E+00 0. -1.
         11    1    3    3    0    0  0.25607661004E+01 -0.52906826922E+01  0.51648708264E-01  0.58780536082E+01  0.51100000000E-03 0. -1.
        -11    1    3    3    0    0 -0.24120246880E+02 -0.48729024782E+01 -0.11113665052E+02  0.27000834048E+02  0.51100000000E-03 0.  1.
        -12    1    3    3    0    0 -0.47138724292E+01 -0.40571840601E+01 -0.16517843594E+02  0.17649943138E+02  0.00000000000E+00 0.  1.
</event>
<event>
 7    1  0.2991278E-011  0.5052886E+02  0.7816164E-02  0.1300439E+00
        -11   -1    0    0    0    0  0.00000000000E+00  0.00000000000E+00  0.45593999997E+02  0.45594000000E+02  0.51100000000E-03 0.  1.
         11   -1    0    0    0    0 -0.00000000000E+00 -0.00000000000E+00 -0.45593999997E+02  0.45594000000E+02  0.51100000000E-03 0. -1.
    9900012    2    1    2    0    0  0.18852395093E+02 -0.30975866254E+02  0.18391537181E+02  0.50528859197E+02  0.29999998016E+02 0.  0.
         12    1    1    2    0    0 -0.18852395093E+02  0.30975866254E+02 -0.18391537181E+02  0.40659140803E+02  0.00000000000E+00 0. -1.
         11    1    3    3    0    0  0.42143599965E+01 -0.27112921419E+01  0.10749742716E+02  0.11860392235E+02  0.51100000000E-03 0. -1.
        -11    1    3    3    0    0  0.11972468500E+02 -0.17266253727E+02 -0.51056618259E+01  0.21622472169E+02  0.51100000000E-03 0.  1.
        -12    1    3    3    0    0  0.26655665963E+01 -0.10998320385E+02  0.12747456291E+02  0.17045994792E+02  0.00000000000E+00 0.  1.
</event>
<event>
 7    1  0.2991278E-011  0.5052886E+02  0.7816164E-02  0.1300439E+00
        -11   -1    0    0    0    0  0.00000000000E+00  0.00000000000E+00  0.45593999997E+02  0.45594000000E+02  0.51100000000E-03 0.  1.
         11   -1    0    0    0    0 -0.00000000000E+00 -0.00000000000E+00 -0.45593999997E+02  0.45594000000E+02  0.51100000000E-03 0. -1.
    9900012    2    1    2    0    0  0.18179572437E+02 -0.74014276000E+00  0.36360978711E+02  0.50528862797E+02  0.30000008958E+02 0.  0.
         12    1    1    2    0    0 -0.18179572437E+02  0.74014276000E+00 -0.36360978711E+02  0.40659137203E+02  0.00000000000E+00 0. -1.
         11    1    3    3    0    0  0.22086445540E+02  0.64088275316E+01  0.16927487541E+02  0.28555629596E+02  0.51100000000E-03 0. -1.
        -11    1    3    3    0    0 -0.56807052771E+00  0.74028143879E+00  0.57793285374E+01  0.58541745223E+01  0.51100000000E-03 0.  1.
         12    1    3    3    0    0 -0.33388025751E+01 -0.78892517304E+01  0.13654162632E+02  0.16119058678E+02  0.00000000000E+00 0. -1.
</event>
<event>
 7    1  0.2991278E-011  0.5052885E+02  0.7816164E-02  0.1300439E+00
        -11   -1    0    0    0    0  0.00000000000E+00  0.00000000000E+00  0.45593999997E+02  0.45594000000E+02  0.51100000000E-03 0. -1.
         11   -1    0    0    0    0 -0.00000000000E+00 -0.00000000000E+00 -0.45593999997E+02  0.45594000000E+02  0.51100000000E-03 0.  1.
    9900012    2    1    2    0    0 -0.85597813390E+01 -0.11365932179E+02 -0.38088218529E+02  0.50528847751E+02  0.29999963225E+02 0.  0.
         12    1    1    2    0    0  0.85597813390E+01  0.11365932179E+02  0.38088218529E+02  0.40659152249E+02  0.00000000000E+00 0. -1.
         11    1    3    3    0    0 -0.96060373585E+01 -0.53628673548E+01 -0.16449029909E+02  0.19789059736E+02  0.51100000000E-03 0. -1.
        -11    1    3    3    0    0  0.69932124898E+01 -0.10264016987E+02 -0.19496817034E+02  0.23116680998E+02  0.51100000000E-03 0.  1.
        -12    1    3    3    0    0 -0.59469564703E+01  0.42609521629E+01 -0.21423715853E+01  0.76231070177E+01  0.00000000000E+00 0.  1.
</event>
<event>
 7    1  0.2991278E-011  0.5052887E+02  0.7816164E-02  0.1300439E+00
        -11   -1    0    0    0    0  0.00000000000E+00  0.00000000000E+00  0.45593999997E+02  0.45594000000E+02  0.51100000000E-03 0.  1.
         11   -1    0    0    0    0 -0.00000000000E+00 -0.00000000000E+00 -0.45593999997E+02  0.45594000000E+02  0.51100000000E-03 0. -1.
    9900012    2    1    2    0    0 -0.11340330119E+02 -0.21111470627E+02  0.32846117387E+02  0.50528871791E+02  0.30000036297E+02 0.  0.
         12    1    1    2    0    0  0.11340330119E+02  0.21111470627E+02 -0.32846117387E+02  0.40659128209E+02  0.00000000000E+00 0. -1.
         11    1    3    3    0    0 -0.94442792583E+01 -0.82424073629E+01  0.32029144624E+02  0.34394734996E+02  0.51100000000E-03 0. -1.
        -11    1    3    3    0    0 -0.52079465688E+00 -0.10196598776E+01  0.36904549226E+01  0.38639864308E+01  0.51100000000E-03 0.  1.
         12    1    3    3    0    0 -0.13752562040E+01 -0.11849403387E+02 -0.28734821593E+01  0.12270150364E+02  0.00000000000E+00 0. -1.
</event>
<event>
 7    1  0.2991278E-011  0.5052886E+02  0.7816164E-02  0.1300439E+00
        -11   -1    0    0    0    0  0.00000000000E+00  0.00000000000E+00  0.45593999997E+02  0.45594000000E+02  0.51100000000E-03 0. -1.
         11   -1    0    0    0    0 -0.00000000000E+00 -0.00000000000E+00 -0.45593999997E+02  0.45594000000E+02  0.51100000000E-03 0.  1.
    9900012    2    1    2    0    0 -0.68581579653E+01 -0.34278823457E+02 -0.20762789277E+02  0.50528862198E+02  0.30000007136E+02 0.  0.
         12    1    1    2    0    0  0.68581579653E+01  0.34278823457E+02  0.20762789277E+02  0.40659137802E+02  0.00000000000E+00 0. -1.
         11    1    3    3    0    0  0.10558974136E+02 -0.48355628201E+01 -0.56690070243E+01  0.12923321689E+02  0.51100000000E-03 0. -1.
        -11    1    3    3    0    0 -0.57458289313E+01 -0.65244524611E+01 -0.31356365584E+01  0.92420369460E+01  0.51100000000E-03 0.  1.
         12    1    3    3    0    0 -0.11671303170E+02 -0.22918808176E+02 -0.11958145695E+02  0.28363503562E+02  0.00000000000E+00 0. -1.
</event>
<event>
 7    1  0.2991278E-011  0.5052886E+02  0.7816164E-02  0.1300439E+00
        -11   -1    0    0    0    0  0.00000000000E+00  0.00000000000E+00  0.45593999997E+02  0.45594000000E+02  0.51100000000E-03 0.  1.
         11   -1    0    0    0    0 -0.00000000000E+00 -0.00000000000E+00 -0.45593999997E+02  0.45594000000E+02  0.51100000000E-03 0. -1.
    9900012    2    1    2    0    0  0.37364928366E+02 -0.13148735245E+02  0.91727087231E+01  0.50528859630E+02  0.29999999331E+02 0.  0.
         12    1    1    2    0    0 -0.37364928366E+02  0.13148735245E+02 -0.91727087231E+01  0.40659140370E+02  0.00000000000E+00 0. -1.
         11    1    3    3    0    0  0.25953268203E+02 -0.11292411546E+02 -0.46547664814E+01  0.28683750455E+02  0.51100000000E-03 0. -1.
        -11    1    3    3    0    0  0.13085560215E+02 -0.13842205042E+01  0.72130814815E+01  0.15005882088E+02  0.51100000000E-03 0.  1.
         12    1    3    3    0    0 -0.16739000519E+01 -0.47210319514E+00  0.66143937230E+01  0.68392270860E+01  0.00000000000E+00 0. -1.
</event>
<event>
 7    1  0.2991278E-011  0.5052886E+02  0.7816164E-02  0.1300439E+00
        -11   -1    0    0    0    0  0.00000000000E+00  0.00000000000E+00  0.45593999997E+02  0.45594000000E+02  0.51100000000E-03 0. -1.
         11   -1    0    0    0    0 -0.00000000000E+00 -0.00000000000E+00 -0.45593999997E+02  0.45594000000E+02  0.51100000000E-03 0.  1.
    9900012    2    1    2    0    0  0.28254303300E+02  0.27090051415E+02 -0.10999508341E+02  0.50528859276E+02  0.29999998256E+02 0.  0.
         12    1    1    2    0    0 -0.28254303300E+02 -0.27090051415E+02  0.10999508341E+02  0.40659140724E+02  0.00000000000E+00 0. -1.
         11    1    3    3    0    0  0.63320628131E+01  0.24646907253E+02 -0.45788031984E+00  0.25451418649E+02  0.51100000000E-03 0. -1.
        -11    1    3    3    0    0  0.70132920638E+01 -0.18146686562E+01 -0.35997820018E+01  0.80893583568E+01  0.51100000000E-03 0.  1.
         12    1    3    3    0    0  0.14908948423E+02  0.42578128187E+01 -0.69418460191E+01  0.16988082271E+02  0.00000000000E+00 0. -1.
</event>
<event>
 7    1  0.2991278E-011  0.5052888E+02  0.7816164E-02  0.1300439E+00
        -11   -1    0    0    0    0  0.00000000000E+00  0.00000000000E+00  0.45593999997E+02  0.45594000000E+02  0.51100000000E-03 0. -1.
         11   -1    0    0    0    0 -0.00000000000E+00 -0.00000000000E+00 -0.45593999997E+02  0.45594000000E+02  0.51100000000E-03 0.  1.
    9900012    2    1    2    0    0 -0.22018847876E+01 -0.33216473041E+02 -0.23344834842E+02  0.50528884273E+02  0.30000074237E+02 0.  0.
         12    1    1    2    0    0  0.22018847876E+01  0.33216473041E+02  0.23344834842E+02  0.40659115727E+02  0.00000000000E+00 0. -1.
         11    1    3    3    0    0  0.16861227466E+01  0.96740321112E+00  0.41765603994E+01  0.46067923678E+01  0.51100000000E-03 0. -1.
        -11    1    3    3    0    0  0.47520217460E+01 -0.10008665831E+02 -0.87732539258E+01  0.14132412642E+02  0.51100000000E-03 0.  1.
         12    1    3    3    0    0 -0.86400292802E+01 -0.24175210421E+02 -0.18748141315E+02  0.31789679263E+02  0.00000000000E+00 0. -1.
</event>
<event>
 7    1  0.2991278E-011  0.5052889E+02  0.7816164E-02  0.1300439E+00
        -11   -1    0    0    0    0  0.00000000000E+00  0.00000000000E+00  0.45593999997E+02  0.45594000000E+02  0.51100000000E-03 0. -1.
         11   -1    0    0    0    0 -0.00000000000E+00 -0.00000000000E+00 -0.45593999997E+02  0.45594000000E+02  0.51100000000E-03 0.  1.
    9900012    2    1    2    0    0  0.78524062878E+01  0.39363829979E+02  0.64801229855E+01  0.50528887995E+02  0.30000085549E+02 0.  0.
         12    1    1    2    0    0 -0.78524062878E+01 -0.39363829979E+02 -0.64801229855E+01  0.40659112005E+02  0.00000000000E+00 0. -1.
         11    1    3    3    0    0  0.52262278600E+01  0.18596587281E+02  0.12969207584E+02  0.23266861880E+02  0.51100000000E-03 0. -1.
        -11    1    3    3    0    0 -0.58688588544E+01  0.35127929392E+01 -0.38515828669E+01  0.78497075951E+01  0.51100000000E-03 0.  1.
         12    1    3    3    0    0  0.84950372822E+01  0.17254449759E+02 -0.26375017314E+01  0.19412318519E+02  0.00000000000E+00 0. -1.
</event>
<event>
 7    1  0.2991278E-011  0.5052886E+02  0.7816164E-02  0.1300439E+00
        -11   -1    0    0    0    0  0.00000000000E+00  0.00000000000E+00  0.45593999997E+02  0.45594000000E+02  0.51100000000E-03 0.  1.
         11   -1    0    0    0    0 -0.00000000000E+00 -0.00000000000E+00 -0.45593999997E+02  0.45594000000E+02  0.51100000000E-03 0. -1.
    9900012    2    1    2    0    0  0.32113157222E+02  0.11124167631E+01  0.24913323724E+02  0.50528855435E+02  0.29999986580E+02 0.  0.
         12    1    1    2    0    0 -0.32113157222E+02 -0.11124167631E+01 -0.24913323724E+02  0.40659144565E+02  0.00000000000E+00 0. -1.
         11    1    3    3    0    0 -0.19101088042E+01  0.55581559930E+00 -0.17580036329E+01  0.26548114168E+01  0.51100000000E-03 0. -1.
        -11    1    3    3    0    0  0.22777274507E+02  0.11061611593E+01  0.28464572106E+02  0.36472725315E+02  0.51100000000E-03 0.  1.
        -12    1    3    3    0    0  0.11245991520E+02 -0.54955999547E+00 -0.17932447490E+01  0.11401318703E+02  0.00000000000E+00 0.  1.
</event>
<event>
 7    1  0.2991278E-011  0.5052886E+02  0.7816164E-02  0.1300439E+00
        -11   -1    0    0    0    0  0.00000000000E+00  0.00000000000E+00  0.45593999997E+02  0.45594000000E+02  0.51100000000E-03 0.  1.
         11   -1    0    0    0    0 -0.00000000000E+00 -0.00000000000E+00 -0.45593999997E+02  0.45594000000E+02  0.51100000000E-03 0. -1.
    9900012    2    1    2    0    0 -0.34866543388E+02 -0.41716967828E+01  0.20496019817E+02  0.50528859205E+02  0.29999998039E+02 0.  0.
         12    1    1    2    0    0  0.34866543388E+02  0.41716967828E+01 -0.20496019817E+02  0.40659140795E+02  0.00000000000E+00 0. -1.
         11    1    3    3    0    0  0.17369069127E+01 -0.42882006628E+01 -0.32485538009E+01  0.56531949025E+01  0.51100000000E-03 0. -1.
        -11    1    3    3    0    0 -0.28342190269E+02 -0.42404619407E+01  0.19148187418E+02  0.34466133354E+02  0.51100000000E-03 0.  1.
        -12    1    3    3    0    0 -0.82612600311E+01  0.43569658207E+01  0.45963862004E+01  0.10409530948E+02  0.00000000000E+00 0.  1.
</event>
<event>
 7    1  0.2991278E-011  0.5052884E+02  0.7816164E-02  0.1300439E+00
        -11   -1    0    0    0    0  0.00000000000E+00  0.00000000000E+00  0.45593999997E+02  0.45594000000E+02  0.51100000000E-03 0.  1.
         11   -1    0    0    0    0 -0.00000000000E+00 -0.00000000000E+00 -0.45593999997E+02  0.45594000000E+02  0.51100000000E-03 0. -1.
    9900012    2    1    2    0    0 -0.31335303579E+02  0.23643490556E+02  0.10594874926E+02  0.50528840260E+02  0.29999940454E+02 0.  0.
         12    1    1    2    0    0  0.31335303579E+02 -0.23643490556E+02 -0.10594874926E+02  0.40659159740E+02  0.00000000000E+00 0. -1.
         11    1    3    3    0    0 -0.71317827274E+01  0.18476396847E+02 -0.20342399544E+01  0.19909236494E+02  0.51100000000E-03 0. -1.
        -11    1    3    3    0    0 -0.22160281247E+02  0.36856968545E+01  0.15115678792E+02  0.27076672097E+02  0.51100000000E-03 0.  1.
        -12    1    3    3    0    0 -0.20432396056E+01  0.14813968538E+01 -0.24865639115E+01  0.35429316688E+01  0.00000000000E+00 0.  1.
</event>
<event>
 7    1  0.2991278E-011  0.5052885E+02  0.7816164E-02  0.1300439E+00
        -11   -1    0    0    0    0  0.00000000000E+00  0.00000000000E+00  0.45593999997E+02  0.45594000000E+02  0.51100000000E-03 0.  1.
         11   -1    0    0    0    0 -0.00000000000E+00 -0.00000000000E+00 -0.45593999997E+02  0.45594000000E+02  0.51100000000E-03 0. -1.
    9900012    2    1    2    0    0 -0.19835063345E+02  0.48978736876E+01  0.35153196237E+02  0.50528854531E+02  0.29999983833E+02 0.  0.
         12    1    1    2    0    0  0.19835063345E+02 -0.48978736876E+01 -0.35153196237E+02  0.40659145469E+02  0.00000000000E+00 0. -1.
         11    1    3    3    0    0 -0.29090314419E+01  0.62271114433E+01  0.15016299496E+01  0.70352166721E+01  0.51100000000E-03 0. -1.
        -11    1    3    3    0    0 -0.76420988665E+01  0.50542326746E+01  0.30424008045E+02  0.31773687365E+02  0.51100000000E-03 0.  1.
        -12    1    3    3    0    0 -0.92839330368E+01 -0.63834704303E+01  0.32275582429E+01  0.11719950494E+02  0.00000000000E+00 0.  1.
</event>
<event>
 7    1  0.2991278E-011  0.5052889E+02  0.7816164E-02  0.1300439E+00
        -11   -1    0    0    0    0  0.00000000000E+00  0.00000000000E+00  0.45593999997E+02  0.45594000000E+02  0.51100000000E-03 0. -1.
         11   -1    0    0    0    0 -0.00000000000E+00 -0.00000000000E+00 -0.45593999997E+02  0.45594000000E+02  0.51100000000E-03 0.  1.
    9900012    2    1    2    0    0 -0.26043146150E+02 -0.13358442456E+02 -0.28221794881E+02  0.50528890903E+02  0.30000094390E+02 0.  0.
         12    1    1    2    0    0  0.26043146150E+02  0.13358442456E+02  0.28221794881E+02  0.40659109097E+02  0.00000000000E+00 0. -1.
         11    1    3    3    0    0 -0.86160989663E+01 -0.12678636374E+02 -0.45312356428E+01  0.15984901576E+02  0.51100000000E-03 0. -1.
        -11    1    3    3    0    0 -0.13126989269E+02  0.75742239296E+01 -0.18401726037E+02  0.23839258311E+02  0.51100000000E-03 0.  1.
         12    1    3    3    0    0 -0.43000579140E+01 -0.82540300117E+01 -0.52888332010E+01  0.10704731016E+02  0.00000000000E+00 0. -1.
</event>
<event>
 7    1  0.2991278E-011  0.5052886E+02  0.7816164E-02  0.1300439E+00
        -11   -1    0    0    0    0  0.00000000000E+00  0.00000000000E+00  0.45593999997E+02  0.45594000000E+02  0.51100000000E-03 0. -1.
         11   -1    0    0    0    0 -0.00000000000E+00 -0.00000000000E+00 -0.45593999997E+02  0.45594000000E+02  0.51100000000E-03 0.  1.
    9900012    2    1    2    0    0  0.34019869994E+02  0.15616777658E+01 -0.22212047082E+02  0.50528862929E+02  0.30000009358E+02 0.  0.
         12    1    1    2    0    0 -0.34019869994E+02 -0.15616777658E+01  0.22212047082E+02  0.40659137071E+02  0.00000000000E+00 0. -1.
         11    1    3    3    0    0  0.16218744502E+02 -0.11788317269E+02 -0.95751743833E+01  0.22219272310E+02  0.51100000000E-03 0. -1.
        -11    1    3    3    0    0  0.13046388125E+02  0.15010141645E+02 -0.79107950504E+01  0.21403113649E+02  0.51100000000E-03 0.  1.
         12    1    3    3    0    0  0.47547373669E+01 -0.16601466100E+01 -0.47260776482E+01  0.69064769697E+01  0.00000000000E+00 0. -1.
</event>
<event>
 7    1  0.2991278E-011  0.5052886E+02  0.7816164E-02  0.1300439E+00
        -11   -1    0    0    0    0  0.00000000000E+00  0.00000000000E+00  0.45593999997E+02  0.45594000000E+02  0.51100000000E-03 0.  1.
         11   -1    0    0    0    0 -0.00000000000E+00 -0.00000000000E+00 -0.45593999997E+02  0.45594000000E+02  0.51100000000E-03 0. -1.
    9900012    2    1    2    0    0 -0.24712675283E+02  0.32284839483E+02 -0.37222696135E+00  0.50528859170E+02  0.29999997934E+02 0.  0.
         12    1    1    2    0    0  0.24712675283E+02 -0.32284839483E+02  0.37222696135E+00  0.40659140830E+02  0.00000000000E+00 0. -1.
         11    1    3    3    0    0  0.45079015853E+01 -0.78148081813E+00  0.12827486078E+01  0.47515611354E+01  0.51100000000E-03 0. -1.
        -11    1    3    3    0    0 -0.15926004436E+02  0.15678294393E+02  0.49981313899E+01  0.22900389735E+02  0.51100000000E-03 0.  1.
         12    1    3    3    0    0 -0.13294572432E+02  0.17388025909E+02 -0.66531069591E+01  0.22876908300E+02  0.00000000000E+00 0. -1.
</event>
<event>
 7    1  0.2991278E-011  0.5052883E+02  0.7816164E-02  0.1300439E+00
        -11   -1    0    0    0    0  0.00000000000E+00  0.00000000000E+00  0.45593999997E+02  0.45594000000E+02  0.51100000000E-03 0. -1.
         11   -1    0    0    0    0 -0.00000000000E+00 -0.00000000000E+00 -0.45593999997E+02  0.45594000000E+02  0.51100000000E-03 0.  1.
    9900012    2    1    2    0    0 -0.39265672002E+02  0.10502109461E+02  0.10394619997E+01  0.50528833972E+02  0.29999921340E+02 0.  0.
         12    1    1    2    0    0  0.39265672002E+02 -0.10502109461E+02 -0.10394619997E+01  0.40659166028E+02  0.00000000000E+00 0. -1.
         11    1    3    3    0    0 -0.34395757024E+02  0.11453305310E+02  0.96073165889E+01  0.37503957605E+02  0.51100000000E-03 0. -1.
        -11    1    3    3    0    0 -0.52307445920E+01  0.28674913506E+01 -0.49362083167E+01  0.77426964579E+01  0.51100000000E-03 0.  1.
         12    1    3    3    0    0  0.36082961393E+00 -0.38186871997E+01 -0.36316462725E+01  0.52821799087E+01  0.00000000000E+00 0. -1.
</event>
<event>
 7    1  0.2991278E-011  0.5052887E+02  0.7816164E-02  0.1300439E+00
        -11   -1    0    0    0    0  0.00000000000E+00  0.00000000000E+00  0.45593999997E+02  0.45594000000E+02  0.51100000000E-03 0.  1.
         11   -1    0    0    0    0 -0.00000000000E+00 -0.00000000000E+00 -0.45593999997E+02  0.45594000000E+02  0.51100000000E-03 0. -1.
    9900012    2    1    2    0    0 -0.25396923373E+02  0.30507195599E+02  0.88018295555E+01  0.50528869369E+02  0.30000028934E+02 0.  0.
         12    1    1    2    0    0  0.25396923373E+02 -0.30507195599E+02 -0.88018295555E+01  0.40659130631E+02  0.00000000000E+00 0. -1.
         11    1    3    3    0    0  0.23774449684E+01  0.13790459106E+02 -0.45538185003E+01  0.14716190748E+02  0.51100000000E-03 0. -1.
        -11    1    3    3    0    0 -0.24810164192E+02  0.12127223752E+02  0.98421142210E+01  0.29316906654E+02  0.51100000000E-03 0.  1.
         12    1    3    3    0    0 -0.29642041488E+01  0.45895127410E+01  0.35135338348E+01  0.64957719668E+01  0.00000000000E+00 0. -1.
</event>
<event>
 7    1  0.2991278E-011  0.5052886E+02  0.7816164E-02  0.1300439E+00
        -11   -1    0    0    0    0  0.00000000000E+00  0.00000000000E+00  0.45593999997E+02  0.45594000000E+02  0.51100000000E-03 0.  1.
         11   -1    0    0    0    0 -0.00000000000E+00 -0.00000000000E+00 -0.45593999997E+02  0.45594000000E+02  0.51100000000E-03 0. -1.
    9900012    2    1    2    0    0 -0.27981824134E+00 -0.27950341025E+02  0.29527376471E+02  0.50528858065E+02  0.29999994574E+02 0.  0.
         12    1    1    2    0    0  0.27981824134E+00  0.27950341025E+02 -0.29527376471E+02  0.40659141935E+02  0.00000000000E+00 0. -1.
         11    1    3    3    0    0 -0.45922919629E+01 -0.29370863225E+01 -0.10951794371E+00  0.54523037314E+01  0.51100000000E-03 0. -1.
        -11    1    3    3    0    0  0.99925889097E+01 -0.23020721315E+01  0.11879485474E+02  0.15693105002E+02  0.51100000000E-03 0.  1.
        -12    1    3    3    0    0 -0.56801151882E+01 -0.22711182571E+02  0.17757408941E+02  0.29383449331E+02  0.00000000000E+00 0.  1.
</event>
<event>
 7    1  0.2991278E-011  0.5052883E+02  0.7816164E-02  0.1300439E+00
        -11   -1    0    0    0    0  0.00000000000E+00  0.00000000000E+00  0.45593999997E+02  0.45594000000E+02  0.51100000000E-03 0.  1.
         11   -1    0    0    0    0 -0.00000000000E+00 -0.00000000000E+00 -0.45593999997E+02  0.45594000000E+02  0.51100000000E-03 0. -1.
    9900012    2    1    2    0    0 -0.28881229104E+02 -0.26216041105E+02 -0.11478753786E+02  0.50528831363E+02  0.29999913411E+02 0.  0.
         12    1    1    2    0    0  0.28881229104E+02  0.26216041105E+02  0.11478753786E+02  0.40659168637E+02  0.00000000000E+00 0. -1.
         11    1    3    3    0    0 -0.53549077553E+01  0.11821199872E+01 -0.78519408809E+01  0.95773389096E+01  0.51100000000E-03 0. -1.
        -11    1    3    3    0    0 -0.24263298777E+02 -0.15757063600E+02 -0.43906796792E+01  0.29262105002E+02  0.51100000000E-03 0.  1.
         12    1    3    3    0    0  0.73697742823E+00 -0.11641097492E+02  0.76386677447E+00  0.11689387451E+02  0.00000000000E+00 0. -1.
</event>
<event>
 7    1  0.2991278E-011  0.5052886E+02  0.7816164E-02  0.1300439E+00
        -11   -1    0    0    0    0  0.00000000000E+00  0.00000000000E+00  0.45593999997E+02  0.45594000000E+02  0.51100000000E-03 0. -1.
         11   -1    0    0    0    0 -0.00000000000E+00 -0.00000000000E+00 -0.45593999997E+02  0.45594000000E+02  0.51100000000E-03 0.  1.
    9900012    2    1    2    0    0  0.12039239664E+02 -0.28861137936E+02 -0.25985714831E+02  0.50528856503E+02  0.29999989825E+02 0.  0.
         12    1    1    2    0    0 -0.12039239664E+02  0.28861137936E+02  0.25985714831E+02  0.40659143497E+02  0.00000000000E+00 0. -1.
         11    1    3    3    0    0 -0.70946781822E+01  0.30363144376E+00 -0.55455587782E+01  0.90099874021E+01  0.51100000000E-03 0. -1.
        -11    1    3    3    0    0  0.14081829603E+02 -0.15232607133E+02 -0.15506090664E+02  0.25899210277E+02  0.51100000000E-03 0.  1.
         12    1    3    3    0    0  0.50520882431E+01 -0.13932162247E+02 -0.49340653884E+01  0.15619658823E+02  0.00000000000E+00 0. -1.
</event>
<event>
 7    1  0.2991278E-011  0.5052888E+02  0.7816164E-02  0.1300439E+00
        -11   -1    0    0    0    0  0.00000000000E+00  0.00000000000E+00  0.45593999997E+02  0.45594000000E+02  0.51100000000E-03 0. -1.
         11   -1    0    0    0    0 -0.00000000000E+00 -0.00000000000E+00 -0.45593999997E+02  0.45594000000E+02  0.51100000000E-03 0.  1.
    9900012    2    1    2    0    0  0.20241164402E+01  0.58917646486E+00 -0.40604434070E+02  0.50528877501E+02  0.30000053651E+02 0.  0.
         12    1    1    2    0    0 -0.20241164402E+01 -0.58917646486E+00  0.40604434070E+02  0.40659122499E+02  0.00000000000E+00 0. -1.
         11    1    3    3    0    0 -0.10833548779E+02  0.66887819826E+00 -0.14542282881E+02  0.18146381701E+02  0.51100000000E-03 0. -1.
        -11    1    3    3    0    0  0.10437184094E+02 -0.40258750876E+01 -0.25337002501E+02  0.27696681715E+02  0.51100000000E-03 0.  1.
        -12    1    3    3    0    0  0.24204811247E+01  0.39461733542E+01 -0.72514868883E+00  0.46858140848E+01  0.00000000000E+00 0.  1.
</event>
<event>
 7    1  0.2991278E-011  0.5052886E+02  0.7816164E-02  0.1300439E+00
        -11   -1    0    0    0    0  0.00000000000E+00  0.00000000000E+00  0.45593999997E+02  0.45594000000E+02  0.51100000000E-03 0.  1.
         11   -1    0    0    0    0 -0.00000000000E+00 -0.00000000000E+00 -0.45593999997E+02  0.45594000000E+02  0.51100000000E-03 0. -1.
    9900012    2    1    2    0    0 -0.64327242929E+01  0.32554519062E+02  0.23494446844E+02  0.50528859752E+02  0.29999999703E+02 0.  0.
         12    1    1    2    0    0  0.64327242929E+01 -0.32554519062E+02 -0.23494446844E+02  0.40659140248E+02  0.00000000000E+00 0. -1.
         11    1    3    3    0    0  0.69639982996E+01  0.69708210980E+01  0.16709972110E+02  0.19398783139E+02  0.51100000000E-03 0. -1.
        -11    1    3    3    0    0 -0.97069201680E+01  0.17155107536E+02  0.21328892237E-01  0.19710973312E+02  0.51100000000E-03 0.  1.
         12    1    3    3    0    0 -0.36898024244E+01  0.84285904278E+01  0.67631458410E+01  0.11419103301E+02  0.00000000000E+00 0. -1.
</event>
<event>
 7    1  0.2991278E-011  0.5052886E+02  0.7816164E-02  0.1300439E+00
        -11   -1    0    0    0    0  0.00000000000E+00  0.00000000000E+00  0.45593999997E+02  0.45594000000E+02  0.51100000000E-03 0.  1.
         11   -1    0    0    0    0 -0.00000000000E+00 -0.00000000000E+00 -0.45593999997E+02  0.45594000000E+02  0.51100000000E-03 0. -1.
    9900012    2    1    2    0    0 -0.26346237087E+02  0.29106035673E+02  0.10577345775E+02  0.50528858778E+02  0.29999996743E+02 0.  0.
         12    1    1    2    0    0  0.26346237087E+02 -0.29106035673E+02 -0.10577345775E+02  0.40659141222E+02  0.00000000000E+00 0. -1.
         11    1    3    3    0    0 -0.72858530767E+01 -0.41050682495E+01  0.29194859079E+01  0.88576881078E+01  0.51100000000E-03 0. -1.
        -11    1    3    3    0    0 -0.18119990640E+02  0.20845001695E+02  0.93391367665E+01  0.29155919335E+02  0.51100000000E-03 0.  1.
        -12    1    3    3    0    0 -0.94039337034E+00  0.12366102227E+02 -0.16812768990E+01  0.12515251336E+02  0.00000000000E+00 0.  1.
</event>
<event>
 7    1  0.2991278E-011  0.5052884E+02  0.7816164E-02  0.1300439E+00
        -11   -1    0    0    0    0  0.00000000000E+00  0.00000000000E+00  0.45593999997E+02  0.45594000000E+02  0.51100000000E-03 0.  1.
         11   -1    0    0    0    0 -0.00000000000E+00 -0.00000000000E+00 -0.45593999997E+02  0.45594000000E+02  0.51100000000E-03 0. -1.
    9900012    2    1    2    0    0  0.27988829047E+02 -0.25999819899E+02  0.13921295029E+02  0.50528835701E+02  0.29999926598E+02 0.  0.
         12    1    1    2    0    0 -0.27988829047E+02  0.25999819899E+02 -0.13921295029E+02  0.40659164299E+02  0.00000000000E+00 0. -1.
         11    1    3    3    0    0 -0.19754703592E+01 -0.72288064885E+00 -0.14409620997E+01  0.25497865805E+01  0.51100000000E-03 0. -1.
        -11    1    3    3    0    0  0.31993179476E+02 -0.26340069126E+02  0.10724179597E+02  0.42806200519E+02  0.51100000000E-03 0.  1.
        -12    1    3    3    0    0 -0.20288800704E+01  0.10631298760E+01  0.46380775312E+01  0.51728486019E+01  0.00000000000E+00 0.  1.
</event>
<event>
 7    1  0.2991278E-011  0.5052886E+02  0.7816164E-02  0.1300439E+00
        -11   -1    0    0    0    0  0.00000000000E+00  0.00000000000E+00  0.45593999997E+02  0.45594000000E+02  0.51100000000E-03 0.  1.
         11   -1    0    0    0    0 -0.00000000000E+00 -0.00000000000E+00 -0.45593999997E+02  0.45594000000E+02  0.51100000000E-03 0. -1.
    9900012    2    1    2    0    0 -0.26261813113E+02  0.28477049198E+02  0.12350742423E+02  0.50528855919E+02  0.29999988052E+02 0.  0.
         12    1    1    2    0    0  0.26261813113E+02 -0.28477049198E+02 -0.12350742423E+02  0.40659144081E+02  0.00000000000E+00 0. -1.
         11    1    3    3    0    0 -0.25664505822E+00  0.12286713503E+02 -0.62370475554E-01  0.12289551893E+02  0.51100000000E-03 0. -1.
        -11    1    3    3    0    0 -0.24451161391E+02  0.20197666770E+02  0.97341336057E+01  0.33174664937E+02  0.51100000000E-03 0.  1.
        -12    1    3    3    0    0 -0.15540066631E+01 -0.40073310754E+01  0.26789792925E+01  0.50646390894E+01  0.00000000000E+00 0.  1.
</event>
<event>
 7    1  0.2991278E-011  0.5052885E+02  0.7816164E-02  0.1300439E+00
        -11   -1    0    0    0    0  0.00000000000E+00  0.00000000000E+00  0.45593999997E+02  0.45594000000E+02  0.51100000000E-03 0.  1.
         11   -1    0    0    0    0 -0.00000000000E+00 -0.00000000000E+00 -0.45593999997E+02  0.45594000000E+02  0.51100000000E-03 0. -1.
    9900012    2    1    2    0    0  0.34561949484E+01  0.36106577844E+02  0.18372167409E+02  0.50528846265E+02  0.29999958708E+02 0.  0.
         12    1    1    2    0    0 -0.34561949484E+01 -0.36106577844E+02 -0.18372167409E+02  0.40659153735E+02  0.00000000000E+00 0. -1.
         11    1    3    3    0    0  0.23736389225E+01  0.94371799292E+01 -0.62608144653E+00  0.97512309474E+01  0.51100000000E-03 0. -1.
        -11    1    3    3    0    0  0.99166592180E+01  0.23712109670E+01  0.61428807297E+01  0.11903686631E+02  0.51100000000E-03 0.  1.
        -12    1    3    3    0    0 -0.88341031920E+01  0.24298186948E+02  0.12855368126E+02  0.28873928687E+02  0.00000000000E+00 0.  1.
</event>
<event>
 7    1  0.2991278E-011  0.5052886E+02  0.7816164E-02  0.1300439E+00
        -11   -1    0    0    0    0  0.00000000000E+00  0.00000000000E+00  0.45593999997E+02  0.45594000000E+02  0.51100000000E-03 0.  1.
         11   -1    0    0    0    0 -0.00000000000E+00 -0.00000000000E+00 -0.45593999997E+02  0.45594000000E+02  0.51100000000E-03 0. -1.
    9900012    2    1    2    0    0  0.12272934670E+01 -0.22960666901E+02  0.33533081160E+02  0.50528855815E+02  0.29999987735E+02 0.  0.
         12    1    1    2    0    0 -0.12272934670E+01  0.22960666901E+02 -0.33533081160E+02  0.40659144185E+02  0.00000000000E+00 0. -1.
         11    1    3    3    0    0 -0.28295089859E+01 -0.27581075648E+02  0.20919734603E+02  0.34732652521E+02  0.51100000000E-03 0. -1.
        -11    1    3    3    0    0  0.98771166486E+00  0.22761846404E+01 -0.12589758677E+00  0.24844398390E+01  0.51100000000E-03 0.  1.
         12    1    3    3    0    0  0.30690907880E+01  0.23442241068E+01  0.12739244144E+02  0.13311763455E+02  0.00000000000E+00 0. -1.
</event>
<event>
 7    1  0.2991278E-011  0.5052874E+02  0.7816164E-02  0.1300439E+00
        -11   -1    0    0    0    0  0.00000000000E+00  0.00000000000E+00  0.45593999997E+02  0.45594000000E+02  0.51100000000E-03 0.  1.
         11   -1    0    0    0    0 -0.00000000000E+00 -0.00000000000E+00 -0.45593999997E+02  0.45594000000E+02  0.51100000000E-03 0. -1.
    9900012    2    1    2    0    0  0.27975636882E+01 -0.11942902846E+02  0.38764887747E+02  0.50528735213E+02  0.29999621150E+02 0.  0.
         12    1    1    2    0    0 -0.27975636882E+01  0.11942902846E+02 -0.38764887747E+02  0.40659264787E+02  0.00000000000E+00 0. -1.
         11    1    3    3    0    0 -0.43822427311E+00 -0.11083738367E+02  0.65361374821E+01  0.12874874374E+02  0.51100000000E-03 0. -1.
        -11    1    3    3    0    0  0.54213031283E+01 -0.26467991108E+01  0.33859844111E+02  0.34393096932E+02  0.51100000000E-03 0.  1.
        -12    1    3    3    0    0 -0.21855151670E+01  0.17876346315E+01 -0.16310938453E+01  0.32607639064E+01  0.00000000000E+00 0.  1.
</event>
<event>
 7    1  0.2991278E-011  0.5052886E+02  0.7816164E-02  0.1300439E+00
        -11   -1    0    0    0    0  0.00000000000E+00  0.00000000000E+00  0.45593999997E+02  0.45594000000E+02  0.51100000000E-03 0.  1.
         11   -1    0    0    0    0 -0.00000000000E+00 -0.00000000000E+00 -0.45593999997E+02  0.45594000000E+02  0.51100000000E-03 0. -1.
    9900012    2    1    2    0    0  0.33301349408E+02  0.20500767644E+02  0.11131224908E+02  0.50528861859E+02  0.30000006108E+02 0.  0.
         12    1    1    2    0    0 -0.33301349408E+02 -0.20500767644E+02 -0.11131224908E+02  0.40659138141E+02  0.00000000000E+00 0. -1.
         11    1    3    3    0    0  0.30645623949E+01 -0.33436669076E+01  0.45742313988E+01  0.64416802320E+01  0.51100000000E-03 0. -1.
        -11    1    3    3    0    0  0.31875412279E+02  0.25727726312E+02  0.69856669289E+01  0.41554269959E+02  0.51100000000E-03 0.  1.
        -12    1    3    3    0    0 -0.16386252659E+01 -0.18832917605E+01 -0.42867342014E+00  0.25329116681E+01  0.00000000000E+00 0.  1.
</event>
<event>
 7    1  0.2991278E-011  0.5052886E+02  0.7816164E-02  0.1300439E+00
        -11   -1    0    0    0    0  0.00000000000E+00  0.00000000000E+00  0.45593999997E+02  0.45594000000E+02  0.51100000000E-03 0.  1.
         11   -1    0    0    0    0 -0.00000000000E+00 -0.00000000000E+00 -0.45593999997E+02  0.45594000000E+02  0.51100000000E-03 0. -1.
    9900012    2    1    2    0    0  0.26603845465E+02  0.64280025953E+01  0.30067951553E+02  0.50528861772E+02  0.30000005841E+02 0.  0.
         12    1    1    2    0    0 -0.26603845465E+02 -0.64280025953E+01 -0.30067951553E+02  0.40659138228E+02  0.00000000000E+00 0. -1.
         11    1    3    3    0    0  0.70449105922E+01 -0.20315435263E+01 -0.32693014326E+01  0.80278432016E+01  0.51100000000E-03 0. -1.
        -11    1    3    3    0    0  0.12642372208E+02 -0.18055225749E+00  0.26835796840E+02  0.29665167562E+02  0.51100000000E-03 0.  1.
         12    1    3    3    0    0  0.69165626643E+01  0.86400983790E+01  0.65014561457E+01  0.12835851008E+02  0.00000000000E+00 0. -1.
</event>
<event>
 7    1  0.2991278E-011  0.5052888E+02  0.7816164E-02  0.1300439E+00
        -11   -1    0    0    0    0  0.00000000000E+00  0.00000000000E+00  0.45593999997E+02  0.45594000000E+02  0.51100000000E-03 0.  1.
         11   -1    0    0    0    0 -0.00000000000E+00 -0.00000000000E+00 -0.45593999997E+02  0.45594000000E+02  0.51100000000E-03 0. -1.
    9900012    2    1    2    0    0 -0.10700960152E+02 -0.31182965764E+02  0.23796557005E+02  0.50528880146E+02  0.30000061692E+02 0.  0.
         12    1    1    2    0    0  0.10700960152E+02  0.31182965764E+02 -0.23796557005E+02  0.40659119854E+02  0.00000000000E+00 0. -1.
         11    1    3    3    0    0  0.28777682734E+00  0.14116018086E+01  0.97183653343E+01  0.98245641227E+01  0.51100000000E-03 0. -1.
        -11    1    3    3    0    0 -0.52278966356E+01 -0.31640093900E+02  0.10037560919E+02  0.33603259882E+02  0.51100000000E-03 0.  1.
        -12    1    3    3    0    0 -0.57608403434E+01 -0.95447367268E+00  0.40406307514E+01  0.71010561414E+01  0.00000000000E+00 0.  1.
</event>
<event>
 7    1  0.2991278E-011  0.5052886E+02  0.7816164E-02  0.1300439E+00
        -11   -1    0    0    0    0  0.00000000000E+00  0.00000000000E+00  0.45593999997E+02  0.45594000000E+02  0.51100000000E-03 0.  1.
         11   -1    0    0    0    0 -0.00000000000E+00 -0.00000000000E+00 -0.45593999997E+02  0.45594000000E+02  0.51100000000E-03 0. -1.
    9900012    2    1    2    0    0 -0.33621853012E+02 -0.21966764719E+02  0.63401811329E+01  0.50528860204E+02  0.30000001075E+02 0.  0.
         12    1    1    2    0    0  0.33621853012E+02  0.21966764719E+02 -0.63401811329E+01  0.40659139796E+02  0.00000000000E+00 0. -1.
         11    1    3    3    0    0 -0.49226741807E+01  0.38304164180E-01 -0.80409814741E+01  0.94282326884E+01  0.51100000000E-03 0. -1.
        -11    1    3    3    0    0 -0.26317688920E+02 -0.15874565553E+02  0.15511858480E+02  0.34427319607E+02  0.51100000000E-03 0.  1.
        -12    1    3    3    0    0 -0.23814899112E+01 -0.61305033306E+01 -0.11306958726E+01  0.66733079084E+01  0.00000000000E+00 0.  1.
</event>
<event>
 7    1  0.2991278E-011  0.5052886E+02  0.7816164E-02  0.1300439E+00
        -11   -1    0    0    0    0  0.00000000000E+00  0.00000000000E+00  0.45593999997E+02  0.45594000000E+02  0.51100000000E-03 0. -1.
         11   -1    0    0    0    0 -0.00000000000E+00 -0.00000000000E+00 -0.45593999997E+02  0.45594000000E+02  0.51100000000E-03 0.  1.
    9900012    2    1    2    0    0  0.16992650357E+01 -0.31846916014E+02  0.25220072218E+02  0.50528860757E+02  0.30000002756E+02 0.  0.
         12    1    1    2    0    0 -0.16992650357E+01  0.31846916014E+02 -0.25220072218E+02  0.40659139243E+02  0.00000000000E+00 0. -1.
         11    1    3    3    0    0 -0.96970745460E+01 -0.79768938537E+01  0.95299209491E+01  0.15763358902E+02  0.51100000000E-03 0. -1.
        -11    1    3    3    0    0  0.48177073449E+01 -0.14847160606E+02  0.12569130335E+00  0.15609749540E+02  0.51100000000E-03 0.  1.
        -12    1    3    3    0    0  0.65786322368E+01 -0.90228615546E+01  0.15564459966E+02  0.19155752315E+02  0.00000000000E+00 0.  1.
</event>
<event>
 7    1  0.2991278E-011  0.5052886E+02  0.7816164E-02  0.1300439E+00
        -11   -1    0    0    0    0  0.00000000000E+00  0.00000000000E+00  0.45593999997E+02  0.45594000000E+02  0.51100000000E-03 0.  1.
         11   -1    0    0    0    0 -0.00000000000E+00 -0.00000000000E+00 -0.45593999997E+02  0.45594000000E+02  0.51100000000E-03 0. -1.
    9900012    2    1    2    0    0 -0.29067521603E+02  0.39578919926E+01  0.28152796284E+02  0.50528860071E+02  0.30000000672E+02 0.  0.
         12    1    1    2    0    0  0.29067521603E+02 -0.39578919926E+01 -0.28152796284E+02  0.40659139929E+02  0.00000000000E+00 0. -1.
         11    1    3    3    0    0 -0.67592481358E+01  0.93265301920E+01 -0.15991981146E+01  0.11628801987E+02  0.51100000000E-03 0. -1.
        -11    1    3    3    0    0 -0.14011201988E+02 -0.82152459552E+01  0.20435477042E+02  0.26103884183E+02  0.51100000000E-03 0.  1.
         12    1    3    3    0    0 -0.82970714791E+01  0.28466077558E+01  0.93165173569E+01  0.12796173901E+02  0.00000000000E+00 0. -1.
</event>
<event>
 7    1  0.2991278E-011  0.5052885E+02  0.7816164E-02  0.1300439E+00
        -11   -1    0    0    0    0  0.00000000000E+00  0.00000000000E+00  0.45593999997E+02  0.45594000000E+02  0.51100000000E-03 0. -1.
         11   -1    0    0    0    0 -0.00000000000E+00 -0.00000000000E+00 -0.45593999997E+02  0.45594000000E+02  0.51100000000E-03 0.  1.
    9900012    2    1    2    0    0 -0.23068880036E+02 -0.33269990386E+02  0.37550820517E+01  0.50528854317E+02  0.29999983183E+02 0.  0.
         12    1    1    2    0    0  0.23068880036E+02  0.33269990386E+02 -0.37550820517E+01  0.40659145683E+02  0.00000000000E+00 0. -1.
         11    1    3    3    0    0 -0.19995208181E+02 -0.15067309301E+02 -0.29639181232E+01  0.25211445231E+02  0.51100000000E-03 0. -1.
        -11    1    3    3    0    0  0.44277839684E+00 -0.19552207039E+02  0.25890428002E+01  0.19727848228E+02  0.51100000000E-03 0.  1.
        -12    1    3    3    0    0 -0.35164502521E+01  0.13495259533E+01  0.41299573747E+01  0.55895608585E+01  0.00000000000E+00 0.  1.
</event>
<event>
 7    1  0.2991278E-011  0.5052892E+02  0.7816164E-02  0.1300439E+00
        -11   -1    0    0    0    0  0.00000000000E+00  0.00000000000E+00  0.45593999997E+02  0.45594000000E+02  0.51100000000E-03 0.  1.
         11   -1    0    0    0    0 -0.00000000000E+00 -0.00000000000E+00 -0.45593999997E+02  0.45594000000E+02  0.51100000000E-03 0. -1.
    9900012    2    1    2    0    0  0.18160305688E+02  0.25093782559E+02  0.26337544650E+02  0.50528918801E+02  0.30000179186E+02 0.  0.
         12    1    1    2    0    0 -0.18160305688E+02 -0.25093782559E+02 -0.26337544650E+02  0.40659081199E+02  0.00000000000E+00 0. -1.
         11    1    3    3    0    0  0.16702107943E+01  0.18280944616E+02  0.46501711312E+01  0.18936911891E+02  0.51100000000E-03 0. -1.
        -11    1    3    3    0    0  0.14600894928E+02  0.11050742392E+02  0.16752055747E+02  0.24818066245E+02  0.51100000000E-03 0.  1.
        -12    1    3    3    0    0  0.18891999653E+01 -0.42379044490E+01  0.49353177717E+01  0.67739406652E+01  0.00000000000E+00 0.  1.
</event>
<event>
 7    1  0.2991278E-011  0.5052886E+02  0.7816164E-02  0.1300439E+00
        -11   -1    0    0    0    0  0.00000000000E+00  0.00000000000E+00  0.45593999997E+02  0.45594000000E+02  0.51100000000E-03 0.  1.
         11   -1    0    0    0    0 -0.00000000000E+00 -0.00000000000E+00 -0.45593999997E+02  0.45594000000E+02  0.51100000000E-03 0. -1.
    9900012    2    1    2    0    0 -0.35699661392E+02 -0.11814913442E+02  0.15463095176E+02  0.50528864304E+02  0.30000013539E+02 0.  0.
         12    1    1    2    0    0  0.35699661392E+02  0.11814913442E+02 -0.15463095176E+02  0.40659135696E+02  0.00000000000E+00 0. -1.
         11    1    3    3    0    0 -0.56411050285E+01 -0.75389769830E+01  0.70466253570E+00  0.94421813922E+01  0.51100000000E-03 0. -1.
        -11    1    3    3    0    0 -0.16879408567E+02  0.35749374994E+01  0.18499496517E+02  0.25296758357E+02  0.51100000000E-03 0.  1.
        -12    1    3    3    0    0 -0.13179147796E+02 -0.78508739586E+01 -0.37410638768E+01  0.15789924555E+02  0.00000000000E+00 0.  1.
</event>
<event>
 7    1  0.2991278E-011  0.5052885E+02  0.7816164E-02  0.1300439E+00
        -11   -1    0    0    0    0  0.00000000000E+00  0.00000000000E+00  0.45593999997E+02  0.45594000000E+02  0.51100000000E-03 0.  1.
         11   -1    0    0    0    0 -0.00000000000E+00 -0.00000000000E+00 -0.45593999997E+02  0.45594000000E+02  0.51100000000E-03 0. -1.
    9900012    2    1    2    0    0  0.23504750457E+02  0.13735921644E+02  0.30199625875E+02  0.50528852931E+02  0.29999978968E+02 0.  0.
         12    1    1    2    0    0 -0.23504750457E+02 -0.13735921644E+02 -0.30199625875E+02  0.40659147069E+02  0.00000000000E+00 0. -1.
         11    1    3    3    0    0  0.29696844256E+01  0.23768575228E+01  0.11635881502E+01  0.39777399256E+01  0.51100000000E-03 0. -1.
        -11    1    3    3    0    0  0.17117373825E+02  0.17325963143E+02  0.30977830540E+02  0.39405830415E+02  0.51100000000E-03 0.  1.
        -12    1    3    3    0    0  0.34176922057E+01 -0.59668990218E+01 -0.19417928151E+01  0.71452825896E+01  0.00000000000E+00 0.  1.
</event>
<event>
 7    1  0.2991278E-011  0.5052886E+02  0.7816164E-02  0.1300439E+00
        -11   -1    0    0    0    0  0.00000000000E+00  0.00000000000E+00  0.45593999997E+02  0.45594000000E+02  0.51100000000E-03 0.  1.
         11   -1    0    0    0    0 -0.00000000000E+00 -0.00000000000E+00 -0.45593999997E+02  0.45594000000E+02  0.51100000000E-03 0. -1.
    9900012    2    1    2    0    0  0.91667274858E+01 -0.54429188015E+01  0.39236605992E+02  0.50528861941E+02  0.30000006356E+02 0.  0.
         12    1    1    2    0    0 -0.91667274858E+01  0.54429188015E+01 -0.39236605992E+02  0.40659138059E+02  0.00000000000E+00 0. -1.
         11    1    3    3    0    0  0.69693798261E+01  0.23568912536E+01  0.40735279381E+01  0.84095672698E+01  0.51100000000E-03 0. -1.
        -11    1    3    3    0    0 -0.74365688170E+01 -0.79481926327E+00  0.26104330870E+02  0.27154564696E+02  0.51100000000E-03 0.  1.
        -12    1    3    3    0    0  0.96339164767E+01 -0.70049907918E+01  0.90587471848E+01  0.14964729975E+02  0.00000000000E+00 0.  1.
</event>
<event>
 7    1  0.2991278E-011  0.5052884E+02  0.7816164E-02  0.1300439E+00
        -11   -1    0    0    0    0  0.00000000000E+00  0.00000000000E+00  0.45593999997E+02  0.45594000000E+02  0.51100000000E-03 0.  1.
         11   -1    0    0    0    0 -0.00000000000E+00 -0.00000000000E+00 -0.45593999997E+02  0.45594000000E+02  0.51100000000E-03 0. -1.
    9900012    2    1    2    0    0 -0.37629769381E+02 -0.11204960751E+02  0.10564858694E+02  0.50528844471E+02  0.29999953255E+02 0.  0.
         12    1    1    2    0    0  0.37629769381E+02  0.11204960751E+02 -0.10564858694E+02  0.40659155529E+02  0.00000000000E+00 0. -1.
         11    1    3    3    0    0 -0.28987129513E+01  0.12372553707E+01  0.12024711111E+01  0.33733180492E+01  0.51100000000E-03 0. -1.
        -11    1    3    3    0    0 -0.24892248107E+02  0.11385022428E+01 -0.45933397763E+01  0.25338093333E+02  0.51100000000E-03 0.  1.
        -12    1    3    3    0    0 -0.98388083226E+01 -0.13580718364E+02  0.13955727359E+02  0.21817433089E+02  0.00000000000E+00 0.  1.
</event>
<event>
 7    1  0.2991278E-011  0.5052886E+02  0.7816164E-02  0.1300439E+00
        -11   -1    0    0    0    0  0.00000000000E+00  0.00000000000E+00  0.45593999997E+02  0.45594000000E+02  0.51100000000E-03 0. -1.
         11   -1    0    0    0    0 -0.00000000000E+00 -0.00000000000E+00 -0.45593999997E+02  0.45594000000E+02  0.51100000000E-03 0.  1.
    9900012    2    1    2    0    0 -0.23394860769E+02  0.14236107207E+02 -0.30052943187E+02  0.50528860154E+02  0.30000000924E+02 0.  0.
         12    1    1    2    0    0  0.23394860769E+02 -0.14236107207E+02  0.30052943187E+02  0.40659139846E+02  0.00000000000E+00 0. -1.
         11    1    3    3    0    0  0.89472721548E+00  0.13152455100E+02 -0.68517109241E+01  0.14857104523E+02  0.51100000000E-03 0. -1.
        -11    1    3    3    0    0 -0.49138038952E+01  0.18019581830E+01 -0.12440841921E+02  0.13496928168E+02  0.51100000000E-03 0.  1.
         12    1    3    3    0    0 -0.19375784090E+02 -0.71830607618E+00 -0.10760390342E+02  0.22174827463E+02  0.00000000000E+00 0. -1.
</event>
<event>
 7    1  0.2991278E-011  0.5052885E+02  0.7816164E-02  0.1300439E+00
        -11   -1    0    0    0    0  0.00000000000E+00  0.00000000000E+00  0.45593999997E+02  0.45594000000E+02  0.51100000000E-03 0.  1.
         11   -1    0    0    0    0 -0.00000000000E+00 -0.00000000000E+00 -0.45593999997E+02  0.45594000000E+02  0.51100000000E-03 0. -1.
    9900012    2    1    2    0    0 -0.96109003454E+01 -0.55837190447E+01  0.39110341205E+02  0.50528854497E+02  0.29999983729E+02 0.  0.
         12    1    1    2    0    0  0.96109003454E+01  0.55837190447E+01 -0.39110341205E+02  0.40659145503E+02  0.00000000000E+00 0. -1.
         11    1    3    3    0    0 -0.48960758507E+01 -0.30285731968E+00  0.13013743204E+01  0.50751213458E+01  0.51100000000E-03 0. -1.
        -11    1    3    3    0    0  0.43552220856E+01  0.60761352127E+00  0.33541101302E+02  0.33828133712E+02  0.51100000000E-03 0.  1.
        -12    1    3    3    0    0 -0.90700465804E+01 -0.58884752463E+01  0.42678655831E+01  0.11625599440E+02  0.00000000000E+00 0.  1.
</event>
<event>
 7    1  0.2991278E-011  0.5052886E+02  0.7816164E-02  0.1300439E+00
        -11   -1    0    0    0    0  0.00000000000E+00  0.00000000000E+00  0.45593999997E+02  0.45594000000E+02  0.51100000000E-03 0. -1.
         11   -1    0    0    0    0 -0.00000000000E+00 -0.00000000000E+00 -0.45593999997E+02  0.45594000000E+02  0.51100000000E-03 0.  1.
    9900012    2    1    2    0    0 -0.15658000824E+02  0.26631648526E+02 -0.26433836499E+02  0.50528863203E+02  0.30000010192E+02 0.  0.
         12    1    1    2    0    0  0.15658000824E+02 -0.26631648526E+02  0.26433836499E+02  0.40659136797E+02  0.00000000000E+00 0. -1.
         11    1    3    3    0    0 -0.22516317897E+01 -0.89242674229E+00  0.15887199646E+01  0.28966019046E+01  0.51100000000E-03 0. -1.
        -11    1    3    3    0    0 -0.11889165683E+02  0.29812365384E+02 -0.17093633205E+02  0.36363741375E+02  0.51100000000E-03 0.  1.
        -12    1    3    3    0    0 -0.15172033509E+01 -0.22882901152E+01 -0.10928923259E+02  0.11268519923E+02  0.00000000000E+00 0.  1.
</event>
<event>
 7    1  0.2991278E-011  0.5052886E+02  0.7816164E-02  0.1300439E+00
        -11   -1    0    0    0    0  0.00000000000E+00  0.00000000000E+00  0.45593999997E+02  0.45594000000E+02  0.51100000000E-03 0. -1.
         11   -1    0    0    0    0 -0.00000000000E+00 -0.00000000000E+00 -0.45593999997E+02  0.45594000000E+02  0.51100000000E-03 0.  1.
    9900012    2    1    2    0    0 -0.33632978095E+01  0.21508179908E+02 -0.34340238270E+02  0.50528861549E+02  0.30000005166E+02 0.  0.
         12    1    1    2    0    0  0.33632978095E+01 -0.21508179908E+02  0.34340238270E+02  0.40659138451E+02  0.00000000000E+00 0. -1.
         11    1    3    3    0    0 -0.80415436656E+00 -0.25849015583E+01 -0.17559691799E+02  0.17767136985E+02  0.51100000000E-03 0. -1.
        -11    1    3    3    0    0 -0.54928551047E+01  0.21154482308E+02 -0.84106442747E+01  0.23418422584E+02  0.51100000000E-03 0.  1.
        -12    1    3    3    0    0  0.29337116618E+01  0.29385991581E+01 -0.83699021959E+01  0.93433019804E+01  0.00000000000E+00 0.  1.
</event>
<event>
 7    1  0.2991278E-011  0.5052886E+02  0.7816164E-02  0.1300439E+00
        -11   -1    0    0    0    0  0.00000000000E+00  0.00000000000E+00  0.45593999997E+02  0.45594000000E+02  0.51100000000E-03 0.  1.
         11   -1    0    0    0    0 -0.00000000000E+00 -0.00000000000E+00 -0.45593999997E+02  0.45594000000E+02  0.51100000000E-03 0. -1.
    9900012    2    1    2    0    0 -0.11734971405E+02  0.10644123795E+02  0.37445407347E+02  0.50528862569E+02  0.30000008264E+02 0.  0.
         12    1    1    2    0    0  0.11734971405E+02 -0.10644123795E+02 -0.37445407347E+02  0.40659137431E+02  0.00000000000E+00 0. -1.
         11    1    3    3    0    0  0.36285448790E+01  0.24090442851E+00  0.22677708539E+02  0.22967429933E+02  0.51100000000E-03 0. -1.
        -11    1    3    3    0    0 -0.91278403641E+01  0.12028815502E+01  0.13548076989E+02  0.16380316972E+02  0.51100000000E-03 0.  1.
         12    1    3    3    0    0 -0.62356759194E+01  0.92003378160E+01  0.12196218187E+01  0.11181115663E+02  0.00000000000E+00 0. -1.
</event>
<event>
 7    1  0.2991278E-011  0.5052885E+02  0.7816164E-02  0.1300439E+00
        -11   -1    0    0    0    0  0.00000000000E+00  0.00000000000E+00  0.45593999997E+02  0.45594000000E+02  0.51100000000E-03 0. -1.
         11   -1    0    0    0    0 -0.00000000000E+00 -0.00000000000E+00 -0.45593999997E+02  0.45594000000E+02  0.51100000000E-03 0.  1.
    9900012    2    1    2    0    0  0.10488729563E+02  0.79150275874E+01 -0.38477331782E+02  0.50528853789E+02  0.29999981576E+02 0.  0.
         12    1    1    2    0    0 -0.10488729563E+02 -0.79150275874E+01  0.38477331782E+02  0.40659146211E+02  0.00000000000E+00 0. -1.
         11    1    3    3    0    0 -0.64682844045E+00  0.11166301855E+02 -0.34561477282E+01  0.11706820300E+02  0.51100000000E-03 0. -1.
        -11    1    3    3    0    0  0.32987631159E+01 -0.67526467402E+01 -0.21799042104E+02  0.23058150685E+02  0.51100000000E-03 0.  1.
         12    1    3    3    0    0  0.78367948876E+01  0.35013724721E+01 -0.13222141950E+02  0.15763882803E+02  0.00000000000E+00 0. -1.
</event>
<event>
 7    1  0.2991278E-011  0.5052886E+02  0.7816164E-02  0.1300439E+00
        -11   -1    0    0    0    0  0.00000000000E+00  0.00000000000E+00  0.45593999997E+02  0.45594000000E+02  0.51100000000E-03 0. -1.
         11   -1    0    0    0    0 -0.00000000000E+00 -0.00000000000E+00 -0.45593999997E+02  0.45594000000E+02  0.51100000000E-03 0.  1.
    9900012    2    1    2    0    0  0.21565363766E+02  0.29240568056E+02 -0.18250755711E+02  0.50528858117E+02  0.29999994734E+02 0.  0.
         12    1    1    2    0    0 -0.21565363766E+02 -0.29240568056E+02  0.18250755711E+02  0.40659141883E+02  0.00000000000E+00 0. -1.
         11    1    3    3    0    0  0.13266971651E+01 -0.48646946983E+01 -0.54231823183E+01  0.74051527057E+01  0.51100000000E-03 0. -1.
        -11    1    3    3    0    0  0.14665952664E+02  0.14706604360E+02 -0.87248373516E+01  0.22527697761E+02  0.51100000000E-03 0.  1.
         12    1    3    3    0    0  0.55727139372E+01  0.19398658394E+02 -0.41027360410E+01  0.20596007650E+02  0.00000000000E+00 0. -1.
</event>
<event>
 7    1  0.2991278E-011  0.5052886E+02  0.7816164E-02  0.1300439E+00
        -11   -1    0    0    0    0  0.00000000000E+00  0.00000000000E+00  0.45593999997E+02  0.45594000000E+02  0.51100000000E-03 0.  1.
         11   -1    0    0    0    0 -0.00000000000E+00 -0.00000000000E+00 -0.45593999997E+02  0.45594000000E+02  0.51100000000E-03 0. -1.
    9900012    2    1    2    0    0 -0.38182997339E+02 -0.38978373083E+01  0.13417573914E+02  0.50528859438E+02  0.29999998749E+02 0.  0.
         12    1    1    2    0    0  0.38182997339E+02  0.38978373083E+01 -0.13417573914E+02  0.40659140562E+02  0.00000000000E+00 0. -1.
         11    1    3    3    0    0 -0.19711522596E+02 -0.65006138591E+01  0.38116286818E+01  0.21102858031E+02  0.51100000000E-03 0.  1.
        -11    1    3    3    0    0 -0.69625804268E+01  0.91634921031E+01  0.11229354160E+02  0.16079350386E+02  0.51100000000E-03 0. -1.
         12    1    3    3    0    0 -0.11508894316E+02 -0.65607155522E+01 -0.16234089277E+01  0.13346651021E+02  0.00000000000E+00 0. -1.
</event>
<event>
 7    1  0.2991278E-011  0.5052886E+02  0.7816164E-02  0.1300439E+00
        -11   -1    0    0    0    0  0.00000000000E+00  0.00000000000E+00  0.45593999997E+02  0.45594000000E+02  0.51100000000E-03 0.  1.
         11   -1    0    0    0    0 -0.00000000000E+00 -0.00000000000E+00 -0.45593999997E+02  0.45594000000E+02  0.51100000000E-03 0. -1.
    9900012    2    1    2    0    0 -0.12104743519E+02 -0.20123193211E+02  0.33191830693E+02  0.50528863936E+02  0.30000012421E+02 0.  0.
         12    1    1    2    0    0  0.12104743519E+02  0.20123193211E+02 -0.33191830693E+02  0.40659136064E+02  0.00000000000E+00 0. -1.
         11    1    3    3    0    0 -0.91172337342E+01 -0.11288649166E+02  0.35055088866E+01  0.14928032147E+02  0.51100000000E-03 0. -1.
        -11    1    3    3    0    0 -0.80138183850E+01 -0.98864744417E+01  0.26899572581E+02  0.29758203361E+02  0.51100000000E-03 0.  1.
         12    1    3    3    0    0  0.50263085999E+01  0.10519303967E+01  0.27867492255E+01  0.58426284280E+01  0.00000000000E+00 0. -1.
</event>
<event>
 7    1  0.2991278E-011  0.5052885E+02  0.7816164E-02  0.1300439E+00
        -11   -1    0    0    0    0  0.00000000000E+00  0.00000000000E+00  0.45593999997E+02  0.45594000000E+02  0.51100000000E-03 0.  1.
         11   -1    0    0    0    0 -0.00000000000E+00 -0.00000000000E+00 -0.45593999997E+02  0.45594000000E+02  0.51100000000E-03 0. -1.
    9900012    2    1    2    0    0  0.29207625328E+02  0.33571146174E+01  0.28085779892E+02  0.50528848164E+02  0.29999964480E+02 0.  0.
         12    1    1    2    0    0 -0.29207625328E+02 -0.33571146174E+01 -0.28085779892E+02  0.40659151836E+02  0.00000000000E+00 0. -1.
         11    1    3    3    0    0  0.30124027349E+02  0.32089301502E+01  0.13965726505E+02  0.33358593698E+02  0.51100000000E-03 0. -1.
        -11    1    3    3    0    0 -0.32687536460E+01 -0.38012462499E+01  0.58143629676E+01  0.76773068475E+01  0.51100000000E-03 0.  1.
        -12    1    3    3    0    0  0.23523516250E+01  0.39494307171E+01  0.83056904188E+01  0.94929476186E+01  0.00000000000E+00 0.  1.
</event>
<event>
 7    1  0.2991278E-011  0.5052886E+02  0.7816164E-02  0.1300439E+00
        -11   -1    0    0    0    0  0.00000000000E+00  0.00000000000E+00  0.45593999997E+02  0.45594000000E+02  0.51100000000E-03 0. -1.
         11   -1    0    0    0    0 -0.00000000000E+00 -0.00000000000E+00 -0.45593999997E+02  0.45594000000E+02  0.51100000000E-03 0.  1.
    9900012    2    1    2    0    0  0.27812495616E+01 -0.34727502744E+02 -0.20962612221E+02  0.50528857029E+02  0.29999991427E+02 0.  0.
         12    1    1    2    0    0 -0.27812495616E+01  0.34727502744E+02  0.20962612221E+02  0.40659142971E+02  0.00000000000E+00 0. -1.
         11    1    3    3    0    0  0.74794337086E+01 -0.10978588542E+02 -0.19953759367E+01  0.13433274373E+02  0.51100000000E-03 0. -1.
        -11    1    3    3    0    0 -0.30472752214E+01 -0.81139517760E+01 -0.19526594340E+02  0.21363754035E+02  0.51100000000E-03 0.  1.
        -12    1    3    3    0    0 -0.16509089256E+01 -0.15634962426E+02  0.55935805556E+00  0.15731828622E+02  0.00000000000E+00 0.  1.
</event>
<event>
 7    1  0.2991278E-011  0.5052885E+02  0.7816164E-02  0.1300439E+00
        -11   -1    0    0    0    0  0.00000000000E+00  0.00000000000E+00  0.45593999997E+02  0.45594000000E+02  0.51100000000E-03 0.  1.
         11   -1    0    0    0    0 -0.00000000000E+00 -0.00000000000E+00 -0.45593999997E+02  0.45594000000E+02  0.51100000000E-03 0. -1.
    9900012    2    1    2    0    0 -0.19674904760E+02 -0.27296351777E+02  0.22824852448E+02  0.50528848670E+02  0.29999966017E+02 0.  0.
         12    1    1    2    0    0  0.19674904760E+02  0.27296351777E+02 -0.22824852448E+02  0.40659151330E+02  0.00000000000E+00 0. -1.
         11    1    3    3    0    0 -0.46593832252E+01 -0.14188369055E+02  0.19657061451E+02  0.24686428126E+02  0.51100000000E-03 0. -1.
        -11    1    3    3    0    0 -0.13806361153E+02 -0.27444626731E+01  0.55652518017E+01  0.15136700814E+02  0.51100000000E-03 0.  1.
        -12    1    3    3    0    0 -0.12091603816E+01 -0.10363520048E+02 -0.23974608051E+01  0.10705719730E+02  0.00000000000E+00 0.  1.
</event>
<event>
 7    1  0.2991278E-011  0.5052886E+02  0.7816164E-02  0.1300439E+00
        -11   -1    0    0    0    0  0.00000000000E+00  0.00000000000E+00  0.45593999997E+02  0.45594000000E+02  0.51100000000E-03 0.  1.
         11   -1    0    0    0    0 -0.00000000000E+00 -0.00000000000E+00 -0.45593999997E+02  0.45594000000E+02  0.51100000000E-03 0. -1.
    9900012    2    1    2    0    0  0.20396453631E+02  0.16181036180E+02  0.31230186983E+02  0.50528857958E+02  0.29999994250E+02 0.  0.
         12    1    1    2    0    0 -0.20396453631E+02 -0.16181036180E+02 -0.31230186983E+02  0.40659142042E+02  0.00000000000E+00 0. -1.
         11    1    3    3    0    0 -0.16711140309E+01  0.21122428695E+01  0.84997049774E+01  0.89162310989E+01  0.51100000000E-03 0. -1.
        -11    1    3    3    0    0  0.13221819937E+02 -0.28858646257E+01  0.24778637589E+01  0.13758072037E+02  0.51100000000E-03 0.  1.
        -12    1    3    3    0    0  0.88457477245E+01  0.16954657937E+02  0.20252618246E+02  0.27854554823E+02  0.00000000000E+00 0.  1.
</event>
<event>
 7    1  0.2991278E-011  0.5052885E+02  0.7816164E-02  0.1300439E+00
        -11   -1    0    0    0    0  0.00000000000E+00  0.00000000000E+00  0.45593999997E+02  0.45594000000E+02  0.51100000000E-03 0.  1.
         11   -1    0    0    0    0 -0.00000000000E+00 -0.00000000000E+00 -0.45593999997E+02  0.45594000000E+02  0.51100000000E-03 0. -1.
    9900012    2    1    2    0    0 -0.35751676045E+01  0.39299311163E+02  0.97953323708E+01  0.50528853212E+02  0.29999979822E+02 0.  0.
         12    1    1    2    0    0  0.35751676045E+01 -0.39299311163E+02 -0.97953323708E+01  0.40659146788E+02  0.00000000000E+00 0. -1.
         11    1    3    3    0    0 -0.19368180515E+01  0.13216200947E+02 -0.20779749186E+01  0.13518032832E+02  0.51100000000E-03 0. -1.
        -11    1    3    3    0    0 -0.99804414738E+01  0.20741663947E+02  0.13914837350E+02  0.26896998606E+02  0.51100000000E-03 0.  1.
        -12    1    3    3    0    0  0.83420919208E+01  0.53414462699E+01 -0.20415300608E+01  0.10113821773E+02  0.00000000000E+00 0.  1.
</event>
<event>
 7    1  0.2991278E-011  0.5052886E+02  0.7816164E-02  0.1300439E+00
        -11   -1    0    0    0    0  0.00000000000E+00  0.00000000000E+00  0.45593999997E+02  0.45594000000E+02  0.51100000000E-03 0. -1.
         11   -1    0    0    0    0 -0.00000000000E+00 -0.00000000000E+00 -0.45593999997E+02  0.45594000000E+02  0.51100000000E-03 0.  1.
    9900012    2    1    2    0    0 -0.62162259052E+00 -0.38939198632E+02 -0.11684083529E+02  0.50528863109E+02  0.30000009907E+02 0.  0.
         12    1    1    2    0    0  0.62162259052E+00  0.38939198632E+02  0.11684083529E+02  0.40659136891E+02  0.00000000000E+00 0. -1.
         11    1    3    3    0    0  0.54557500798E+01 -0.15842209274E+02  0.87382431246E+01  0.18897028782E+02  0.51100000000E-03 0. -1.
        -11    1    3    3    0    0 -0.41010927322E+01 -0.20063196894E+02 -0.16542541434E+02  0.26325016781E+02  0.51100000000E-03 0.  1.
         12    1    3    3    0    0 -0.19762799381E+01 -0.30337924646E+01 -0.38797852200E+01  0.53068175459E+01  0.00000000000E+00 0. -1.
</event>
<event>
 7    1  0.2991278E-011  0.5052886E+02  0.7816164E-02  0.1300439E+00
        -11   -1    0    0    0    0  0.00000000000E+00  0.00000000000E+00  0.45593999997E+02  0.45594000000E+02  0.51100000000E-03 0.  1.
         11   -1    0    0    0    0 -0.00000000000E+00 -0.00000000000E+00 -0.45593999997E+02  0.45594000000E+02  0.51100000000E-03 0. -1.
    9900012    2    1    2    0    0 -0.16928761778E+02 -0.10431711031E+02  0.35464940335E+02  0.50528861257E+02  0.30000004276E+02 0.  0.
         12    1    1    2    0    0  0.16928761778E+02  0.10431711031E+02 -0.35464940335E+02  0.40659138743E+02  0.00000000000E+00 0. -1.
         11    1    3    3    0    0  0.14119803534E+01 -0.68275590915E+01 -0.16349854204E+01  0.71611751307E+01  0.51100000000E-03 0. -1.
        -11    1    3    3    0    0 -0.18165704358E+02 -0.37168298848E+01  0.24301049484E+02  0.30567117062E+02  0.51100000000E-03 0.  1.
        -12    1    3    3    0    0 -0.17503777306E+00  0.11267794487E+00  0.12798876272E+02  0.12800569064E+02  0.00000000000E+00 0.  1.
</event>
<event>
 7    1  0.2991278E-011  0.5052887E+02  0.7816164E-02  0.1300439E+00
        -11   -1    0    0    0    0  0.00000000000E+00  0.00000000000E+00  0.45593999997E+02  0.45594000000E+02  0.51100000000E-03 0.  1.
         11   -1    0    0    0    0 -0.00000000000E+00 -0.00000000000E+00 -0.45593999997E+02  0.45594000000E+02  0.51100000000E-03 0. -1.
    9900012    2    1    2    0    0  0.13442172436E+02 -0.15610319962E+02  0.35054110502E+02  0.50528871231E+02  0.30000034595E+02 0.  0.
         12    1    1    2    0    0 -0.13442172436E+02  0.15610319962E+02 -0.35054110502E+02  0.40659128769E+02  0.00000000000E+00 0. -1.
         11    1    3    3    0    0 -0.20825141345E+01 -0.13444940410E+01 -0.84427518332E+00  0.26186504526E+01  0.51100000000E-03 0. -1.
        -11    1    3    3    0    0  0.85753523072E+01 -0.15751239600E+02  0.36611589543E+02  0.40768207040E+02  0.51100000000E-03 0.  1.
        -12    1    3    3    0    0  0.69493342636E+01  0.14854136791E+01 -0.71320385728E+00  0.71420137390E+01  0.00000000000E+00 0.  1.
</event>
<event>
 7    1  0.3095249E-011  0.5052886E+02  0.7816164E-02  0.1300439E+00
        -11   -1    0    0    0    0  0.00000000000E+00  0.00000000000E+00  0.45593999997E+02  0.45594000000E+02  0.51100000000E-03 0.  1.
         11   -1    0    0    0    0 -0.00000000000E+00 -0.00000000000E+00 -0.45593999997E+02  0.45594000000E+02  0.51100000000E-03 0. -1.
    9900012    2    1    2    0    0 -0.46961031177E+01 -0.40352933858E+02 -0.16592268572E+01  0.50528859709E+02  0.29999999570E+02 0.  0.
         12    1    1    2    0    0  0.46961031177E+01  0.40352933858E+02  0.16592268572E+01  0.40659140291E+02  0.00000000000E+00 0. -1.
         11    1    3    3    0    0  0.74229758491E+00  0.19458125730E+01 -0.45740976595E+01  0.50258891684E+01  0.51100000000E-03 0. -1.
        -11    1    3    3    0    0 -0.52630919922E+01 -0.16705334242E+02  0.82472425818E+01  0.19359373438E+02  0.51100000000E-03 0.  1.
        -12    1    3    3    0    0 -0.17530871041E+00 -0.25593412190E+02 -0.53323717795E+01  0.26143597102E+02  0.00000000000E+00 0.  1.
</event>
<event>
 7    1  0.3006988E-011  0.5052887E+02  0.7816164E-02  0.1300439E+00
        -11   -1    0    0    0    0  0.00000000000E+00  0.00000000000E+00  0.45593999997E+02  0.45594000000E+02  0.51100000000E-03 0. -1.
         11   -1    0    0    0    0 -0.00000000000E+00 -0.00000000000E+00 -0.45593999997E+02  0.45594000000E+02  0.51100000000E-03 0.  1.
    9900012    2    1    2    0    0  0.37636228818E+02 -0.15384237585E+02  0.67283017343E-01  0.50528868028E+02  0.30000024857E+02 0.  0.
         12    1    1    2    0    0 -0.37636228818E+02  0.15384237585E+02 -0.67283017343E-01  0.40659131972E+02  0.00000000000E+00 0. -1.
         11    1    3    3    0    0  0.22084422809E+01 -0.26065536068E+01  0.90008730462E+01  0.96274116391E+01  0.51100000000E-03 0. -1.
        -11    1    3    3    0    0  0.14455093159E+02 -0.15027171774E+01 -0.89923612303E+01  0.17090068400E+02  0.51100000000E-03 0.  1.
        -12    1    3    3    0    0  0.20972693378E+02 -0.11274966801E+02  0.58771201441E-01  0.23811387989E+02  0.00000000000E+00 0.  1.
</event>
<event>
 7    1  0.2991278E-011  0.5052886E+02  0.7816164E-02  0.1300439E+00
        -11   -1    0    0    0    0  0.00000000000E+00  0.00000000000E+00  0.45593999997E+02  0.45594000000E+02  0.51100000000E-03 0.  1.
         11   -1    0    0    0    0 -0.00000000000E+00 -0.00000000000E+00 -0.45593999997E+02  0.45594000000E+02  0.51100000000E-03 0. -1.
    9900012    2    1    2    0    0  0.35699619988E+02 -0.65549823553E+01  0.18323066600E+02  0.50528862890E+02  0.30000009239E+02 0.  0.
         12    1    1    2    0    0 -0.35699619988E+02  0.65549823553E+01 -0.18323066600E+02  0.40659137110E+02  0.00000000000E+00 0. -1.
         11    1    3    3    0    0  0.40147832887E+02 -0.59125873476E+01  0.17671467651E+02  0.44261585420E+02  0.51100000000E-03 0. -1.
        -11    1    3    3    0    0 -0.34596851810E+01  0.15036964574E+01  0.93789543441E+00  0.38871805585E+01  0.51100000000E-03 0.  1.
         12    1    3    3    0    0 -0.98852771869E+00 -0.21460914651E+01 -0.28629648568E+00  0.23800969108E+01  0.00000000000E+00 0. -1.
</event>
<event>
 7    1  0.2991278E-011  0.5052887E+02  0.7816164E-02  0.1300439E+00
        -11   -1    0    0    0    0  0.00000000000E+00  0.00000000000E+00  0.45593999997E+02  0.45594000000E+02  0.51100000000E-03 0. -1.
         11   -1    0    0    0    0 -0.00000000000E+00 -0.00000000000E+00 -0.45593999997E+02  0.45594000000E+02  0.51100000000E-03 0.  1.
    9900012    2    1    2    0    0  0.31810661056E+02  0.40369191800E+01 -0.24998997062E+02  0.50528871537E+02  0.30000035523E+02 0.  0.
         12    1    1    2    0    0 -0.31810661056E+02 -0.40369191800E+01  0.24998997062E+02  0.40659128463E+02  0.00000000000E+00 0. -1.
         11    1    3    3    0    0  0.17139808667E+01  0.63681999863E+01  0.33473797514E+01  0.73957185546E+01  0.51100000000E-03 0. -1.
        -11    1    3    3    0    0  0.19753353595E+02  0.39699222778E+01 -0.20241095835E+02  0.28559713269E+02  0.51100000000E-03 0.  1.
         12    1    3    3    0    0  0.10343326594E+02 -0.63012030841E+01 -0.81052809789E+01  0.14573439714E+02  0.00000000000E+00 0. -1.
</event>
<event>
 7    1  0.2991278E-011  0.5052886E+02  0.7816164E-02  0.1300439E+00
        -11   -1    0    0    0    0  0.00000000000E+00  0.00000000000E+00  0.45593999997E+02  0.45594000000E+02  0.51100000000E-03 0.  1.
         11   -1    0    0    0    0 -0.00000000000E+00 -0.00000000000E+00 -0.45593999997E+02  0.45594000000E+02  0.51100000000E-03 0. -1.
    9900012    2    1    2    0    0  0.24244571001E+02  0.12250083079E+02  0.30253958712E+02  0.50528858639E+02  0.29999996319E+02 0.  0.
         12    1    1    2    0    0 -0.24244571001E+02 -0.12250083079E+02 -0.30253958712E+02  0.40659141361E+02  0.00000000000E+00 0. -1.
         11    1    3    3    0    0  0.50565583635E+01 -0.44486672411E+00 -0.42509069223E+01  0.66209439515E+01  0.51100000000E-03 0. -1.
        -11    1    3    3    0    0  0.18195128120E+02  0.43447071749E+01  0.24858889536E+02  0.31111148435E+02  0.51100000000E-03 0.  1.
         12    1    3    3    0    0  0.99288451675E+00  0.83502426283E+01  0.96459760987E+01  0.12796766252E+02  0.00000000000E+00 0. -1.
</event>
<event>
 7    1  0.2991278E-011  0.5052887E+02  0.7816164E-02  0.1300439E+00
        -11   -1    0    0    0    0  0.00000000000E+00  0.00000000000E+00  0.45593999997E+02  0.45594000000E+02  0.51100000000E-03 0.  1.
         11   -1    0    0    0    0 -0.00000000000E+00 -0.00000000000E+00 -0.45593999997E+02  0.45594000000E+02  0.51100000000E-03 0. -1.
    9900012    2    1    2    0    0  0.31660065942E+02  0.13377882155E+02  0.21721818059E+02  0.50528869584E+02  0.30000029587E+02 0.  0.
         12    1    1    2    0    0 -0.31660065942E+02 -0.13377882155E+02 -0.21721818059E+02  0.40659130416E+02  0.00000000000E+00 0. -1.
         11    1    3    3    0    0  0.13103163713E+01  0.27856513774E+01 -0.13744497311E+01  0.33713342928E+01  0.51100000000E-03 0. -1.
        -11    1    3    3    0    0  0.28889234607E+02 -0.30173594747E+00  0.11267204252E+02  0.31010140481E+02  0.51100000000E-03 0.  1.
        -12    1    3    3    0    0  0.14605149645E+01  0.10893966725E+02  0.11829063538E+02  0.16147394810E+02  0.00000000000E+00 0.  1.
</event>
<event>
 7    1  0.2991278E-011  0.5052888E+02  0.7816164E-02  0.1300439E+00
        -11   -1    0    0    0    0  0.00000000000E+00  0.00000000000E+00  0.45593999997E+02  0.45594000000E+02  0.51100000000E-03 0.  1.
         11   -1    0    0    0    0 -0.00000000000E+00 -0.00000000000E+00 -0.45593999997E+02  0.45594000000E+02  0.51100000000E-03 0. -1.
    9900012    2    1    2    0    0 -0.59236626554E+01  0.39794821275E+02  0.58691417972E+01  0.50528875502E+02  0.30000047575E+02 0.  0.
         12    1    1    2    0    0  0.59236626554E+01 -0.39794821275E+02 -0.58691417972E+01  0.40659124498E+02  0.00000000000E+00 0. -1.
         11    1    3    3    0    0 -0.62231880338E+01  0.35594886428E+01  0.10235226531E+02  0.12496315101E+02  0.51100000000E-03 0. -1.
        -11    1    3    3    0    0  0.11060503773E+01  0.32577449612E+02 -0.43005005401E+00  0.32599056949E+02  0.51100000000E-03 0.  1.
         12    1    3    3    0    0 -0.80652499879E+00  0.36578830199E+01 -0.39360346795E+01  0.54335034516E+01  0.00000000000E+00 0. -1.
</event>
<event>
 7    1  0.2991278E-011  0.5052886E+02  0.7816164E-02  0.1300439E+00
        -11   -1    0    0    0    0  0.00000000000E+00  0.00000000000E+00  0.45593999997E+02  0.45594000000E+02  0.51100000000E-03 0.  1.
         11   -1    0    0    0    0 -0.00000000000E+00 -0.00000000000E+00 -0.45593999997E+02  0.45594000000E+02  0.51100000000E-03 0. -1.
    9900012    2    1    2    0    0 -0.21819916971E+02 -0.41992774417E+01  0.34050296478E+02  0.50528863291E+02  0.30000010460E+02 0.  0.
         12    1    1    2    0    0  0.21819916971E+02  0.41992774417E+01 -0.34050296478E+02  0.40659136709E+02  0.00000000000E+00 0. -1.
         11    1    3    3    0    0  0.13484993123E+01  0.17143262235E+00 -0.27936357010E+01  0.31068054703E+01  0.51100000000E-03 0. -1.
        -11    1    3    3    0    0 -0.17156067654E+02  0.27958198026E+00  0.35865361134E+02  0.39758432476E+02  0.51100000000E-03 0.  1.
        -12    1    3    3    0    0 -0.60123486293E+01 -0.46502920443E+01  0.97857104525E+00  0.76636253449E+01  0.00000000000E+00 0.  1.
</event>
<event>
 7    1  0.2991278E-011  0.5052886E+02  0.7816164E-02  0.1300439E+00
        -11   -1    0    0    0    0  0.00000000000E+00  0.00000000000E+00  0.45593999997E+02  0.45594000000E+02  0.51100000000E-03 0. -1.
         11   -1    0    0    0    0 -0.00000000000E+00 -0.00000000000E+00 -0.45593999997E+02  0.45594000000E+02  0.51100000000E-03 0.  1.
    9900012    2    1    2    0    0 -0.43827036688E+01 -0.40143770239E+02  0.47366001899E+01  0.50528858816E+02  0.29999996858E+02 0.  0.
         12    1    1    2    0    0  0.43827036688E+01  0.40143770239E+02 -0.47366001899E+01  0.40659141184E+02  0.00000000000E+00 0. -1.
         11    1    3    3    0    0 -0.86534673408E+01 -0.33090848337E+02  0.13658223905E+02  0.36829795291E+02  0.51100000000E-03 0. -1.
        -11    1    3    3    0    0  0.12582948099E+01 -0.71838296731E+01 -0.70875741216E+01  0.10169779830E+02  0.51100000000E-03 0.  1.
         12    1    3    3    0    0  0.30124688621E+01  0.13090777192E+00 -0.18340495932E+01  0.35292836951E+01  0.00000000000E+00 0. -1.
</event>
<event>
 7    1  0.2991278E-011  0.5052886E+02  0.7816164E-02  0.1300439E+00
        -11   -1    0    0    0    0  0.00000000000E+00  0.00000000000E+00  0.45593999997E+02  0.45594000000E+02  0.51100000000E-03 0.  1.
         11   -1    0    0    0    0 -0.00000000000E+00 -0.00000000000E+00 -0.45593999997E+02  0.45594000000E+02  0.51100000000E-03 0. -1.
    9900012    2    1    2    0    0 -0.20577184479E+02 -0.17184161987E+02  0.30568771953E+02  0.50528858802E+02  0.29999996814E+02 0.  0.
         12    1    1    2    0    0  0.20577184479E+02  0.17184161987E+02 -0.30568771953E+02  0.40659141198E+02  0.00000000000E+00 0. -1.
         11    1    3    3    0    0 -0.21792742668E+02 -0.92125891792E+01  0.82557440513E+01  0.25058985264E+02  0.51100000000E-03 0. -1.
        -11    1    3    3    0    0 -0.39342589213E+01 -0.48787469578E+01  0.11829480908E+02  0.13387202245E+02  0.51100000000E-03 0.  1.
         12    1    3    3    0    0  0.51498171095E+01 -0.30928258496E+01  0.10483546994E+02  0.12082671293E+02  0.00000000000E+00 0. -1.
</event>
<event>
 7    1  0.2991278E-011  0.5052879E+02  0.7816164E-02  0.1300439E+00
        -11   -1    0    0    0    0  0.00000000000E+00  0.00000000000E+00  0.45593999997E+02  0.45594000000E+02  0.51100000000E-03 0.  1.
         11   -1    0    0    0    0 -0.00000000000E+00 -0.00000000000E+00 -0.45593999997E+02  0.45594000000E+02  0.51100000000E-03 0. -1.
    9900012    2    1    2    0    0  0.12004823744E+02 -0.26381739335E+02  0.28514203105E+02  0.50528785273E+02  0.29999773316E+02 0.  0.
         12    1    1    2    0    0 -0.12004823744E+02  0.26381739335E+02 -0.28514203105E+02  0.40659214727E+02  0.00000000000E+00 0. -1.
         11    1    3    3    0    0  0.13823940040E+02 -0.84741536738E+00  0.14013540032E+02  0.19702759592E+02  0.51100000000E-03 0. -1.
        -11    1    3    3    0    0  0.20381195922E+01 -0.10779565259E+02  0.10202120407E+02  0.14981195536E+02  0.51100000000E-03 0.  1.
         12    1    3    3    0    0 -0.38572358882E+01 -0.14754758709E+02  0.42985426654E+01  0.15844830145E+02  0.00000000000E+00 0. -1.
</event>
<event>
 7    1  0.2991278E-011  0.5052886E+02  0.7816164E-02  0.1300439E+00
        -11   -1    0    0    0    0  0.00000000000E+00  0.00000000000E+00  0.45593999997E+02  0.45594000000E+02  0.51100000000E-03 0.  1.
         11   -1    0    0    0    0 -0.00000000000E+00 -0.00000000000E+00 -0.45593999997E+02  0.45594000000E+02  0.51100000000E-03 0. -1.
    9900012    2    1    2    0    0  0.24587803423E+02 -0.30712693862E+02  0.10263345991E+02  0.50528856965E+02  0.29999991231E+02 0.  0.
         12    1    1    2    0    0 -0.24587803423E+02  0.30712693862E+02 -0.10263345991E+02  0.40659143035E+02  0.00000000000E+00 0. -1.
         11    1    3    3    0    0  0.25597219615E+01 -0.58968517269E+01  0.99663737476E+01  0.11859748848E+02  0.51100000000E-03 0. -1.
        -11    1    3    3    0    0  0.14448524672E+02 -0.25852891012E+02 -0.40151363151E+01  0.29887341112E+02  0.51100000000E-03 0.  1.
        -12    1    3    3    0    0  0.75795567896E+01  0.10370488771E+01  0.43121085581E+01  0.87817670042E+01  0.00000000000E+00 0.  1.
</event>
<event>
 7    1  0.2991278E-011  0.5052879E+02  0.7816164E-02  0.1300439E+00
        -11   -1    0    0    0    0  0.00000000000E+00  0.00000000000E+00  0.45593999997E+02  0.45594000000E+02  0.51100000000E-03 0.  1.
         11   -1    0    0    0    0 -0.00000000000E+00 -0.00000000000E+00 -0.45593999997E+02  0.45594000000E+02  0.51100000000E-03 0. -1.
    9900012    2    1    2    0    0 -0.24453407037E+02 -0.17952893022E+02  0.27072057050E+02  0.50528785097E+02  0.29999772780E+02 0.  0.
         12    1    1    2    0    0  0.24453407037E+02  0.17952893022E+02 -0.27072057050E+02  0.40659214903E+02  0.00000000000E+00 0. -1.
         11    1    3    3    0    0  0.32499286307E+01 -0.98239780398E+01  0.95528500089E+01  0.14082951544E+02  0.51100000000E-03 0.  1.
        -11    1    3    3    0    0 -0.44331752809E+01  0.18104500355E+01 -0.12401045511E+01  0.49465778030E+01  0.51100000000E-03 0. -1.
         12    1    3    3    0    0 -0.23270160387E+02 -0.99393650179E+01  0.18759311592E+02  0.31499255750E+02  0.00000000000E+00 0. -1.
</event>
<event>
 7    1  0.2991278E-011  0.5052890E+02  0.7816164E-02  0.1300439E+00
        -11   -1    0    0    0    0  0.00000000000E+00  0.00000000000E+00  0.45593999997E+02  0.45594000000E+02  0.51100000000E-03 0.  1.
         11   -1    0    0    0    0 -0.00000000000E+00 -0.00000000000E+00 -0.45593999997E+02  0.45594000000E+02  0.51100000000E-03 0. -1.
    9900012    2    1    2    0    0  0.17112758195E+01 -0.12674571854E+02  0.38595193525E+02  0.50528902619E+02  0.30000130001E+02 0.  0.
         12    1    1    2    0    0 -0.17112758195E+01  0.12674571854E+02 -0.38595193525E+02  0.40659097381E+02  0.00000000000E+00 0. -1.
         11    1    3    3    0    0 -0.56031510656E+01  0.28235607930E+01  0.62749482976E+00  0.63056758114E+01  0.51100000000E-03 0. -1.
        -11    1    3    3    0    0  0.51224336750E+01 -0.50282476878E+01  0.30101309823E+02  0.30945297784E+02  0.51100000000E-03 0.  1.
         12    1    3    3    0    0  0.21919932102E+01 -0.10469884959E+02  0.78663888717E+01  0.13277929024E+02  0.00000000000E+00 0. -1.
</event>
<event>
 7    1  0.2991278E-011  0.5052892E+02  0.7816164E-02  0.1300439E+00
        -11   -1    0    0    0    0  0.00000000000E+00  0.00000000000E+00  0.45593999997E+02  0.45594000000E+02  0.51100000000E-03 0.  1.
         11   -1    0    0    0    0 -0.00000000000E+00 -0.00000000000E+00 -0.45593999997E+02  0.45594000000E+02  0.51100000000E-03 0. -1.
    9900012    2    1    2    0    0 -0.11201166042E+02  0.12754472106E+00  0.39085526807E+02  0.50528919906E+02  0.30000182545E+02 0.  0.
         12    1    1    2    0    0  0.11201166042E+02 -0.12754472106E+00 -0.39085526807E+02  0.40659080094E+02  0.00000000000E+00 0. -1.
         11    1    3    3    0    0 -0.20813672761E+01 -0.60369445022E+01  0.11654039882E+02  0.13288846244E+02  0.51100000000E-03 0.  1.
        -11    1    3    3    0    0 -0.14024837713E+02 -0.68843871964E+00  0.82428043568E+01  0.16282316932E+02  0.51100000000E-03 0. -1.
        -12    1    3    3    0    0  0.49050389467E+01  0.68529279429E+01  0.19188682567E+02  0.20957756729E+02  0.00000000000E+00 0.  1.
</event>
<event>
 7    1  0.2991278E-011  0.5052886E+02  0.7816164E-02  0.1300439E+00
        -11   -1    0    0    0    0  0.00000000000E+00  0.00000000000E+00  0.45593999997E+02  0.45594000000E+02  0.51100000000E-03 0. -1.
         11   -1    0    0    0    0 -0.00000000000E+00 -0.00000000000E+00 -0.45593999997E+02  0.45594000000E+02  0.51100000000E-03 0.  1.
    9900012    2    1    2    0    0  0.14224814256E+00  0.38642402978E+02 -0.12645542790E+02  0.50528864558E+02  0.30000014311E+02 0.  0.
         12    1    1    2    0    0 -0.14224814256E+00 -0.38642402978E+02  0.12645542790E+02  0.40659135442E+02  0.00000000000E+00 0. -1.
         11    1    3    3    0    0 -0.48376954351E+01  0.18048020938E+01 -0.32487857956E+00  0.51736016539E+01  0.51100000000E-03 0. -1.
        -11    1    3    3    0    0  0.19027883544E+01  0.34857971630E+02 -0.17470938708E+02  0.39037577912E+02  0.51100000000E-03 0.  1.
        -12    1    3    3    0    0  0.30771552233E+01  0.19796292546E+01  0.51502744980E+01  0.63176849921E+01  0.00000000000E+00 0.  1.
</event>
<event>
 7    1  0.2991278E-011  0.5052885E+02  0.7816164E-02  0.1300439E+00
        -11   -1    0    0    0    0  0.00000000000E+00  0.00000000000E+00  0.45593999997E+02  0.45594000000E+02  0.51100000000E-03 0. -1.
         11   -1    0    0    0    0 -0.00000000000E+00 -0.00000000000E+00 -0.45593999997E+02  0.45594000000E+02  0.51100000000E-03 0.  1.
    9900012    2    1    2    0    0  0.96975244026E+01  0.13658050833E+02 -0.37048371475E+02  0.50528853906E+02  0.29999981934E+02 0.  0.
         12    1    1    2    0    0 -0.96975244026E+01 -0.13658050833E+02  0.37048371475E+02  0.40659146094E+02  0.00000000000E+00 0. -1.
         11    1    3    3    0    0 -0.74651420446E+01  0.85400111801E+01 -0.56284488299E+01  0.12662526335E+02  0.51100000000E-03 0. -1.
        -11    1    3    3    0    0  0.12446372204E+02  0.70768630806E+01 -0.28716830529E+02  0.32088168037E+02  0.51100000000E-03 0.  1.
         12    1    3    3    0    0  0.47162942435E+01 -0.19588234274E+01 -0.27030921163E+01  0.57781595340E+01  0.00000000000E+00 0. -1.
</event>
<event>
 7    1  0.2991278E-011  0.5052886E+02  0.7816164E-02  0.1300439E+00
        -11   -1    0    0    0    0  0.00000000000E+00  0.00000000000E+00  0.45593999997E+02  0.45594000000E+02  0.51100000000E-03 0. -1.
         11   -1    0    0    0    0 -0.00000000000E+00 -0.00000000000E+00 -0.45593999997E+02  0.45594000000E+02  0.51100000000E-03 0.  1.
    9900012    2    1    2    0    0  0.22227339072E+02  0.66163117395E+01 -0.33396641326E+02  0.50528857915E+02  0.29999994119E+02 0.  0.
         12    1    1    2    0    0 -0.22227339072E+02 -0.66163117395E+01  0.33396641326E+02  0.40659142085E+02  0.00000000000E+00 0. -1.
         11    1    3    3    0    0  0.36818869038E+01 -0.69315023051E+01 -0.83343399332E+01  0.11448285363E+02  0.51100000000E-03 0. -1.
        -11    1    3    3    0    0  0.99140270055E+01  0.11998167550E+02 -0.25956964567E+02  0.30265623500E+02  0.51100000000E-03 0.  1.
        -12    1    3    3    0    0  0.86314251622E+01  0.15496464942E+01  0.89466317501E+00  0.88149490518E+01  0.00000000000E+00 0.  1.
</event>
<event>
 7    1  0.2991278E-011  0.5052886E+02  0.7816164E-02  0.1300439E+00
        -11   -1    0    0    0    0  0.00000000000E+00  0.00000000000E+00  0.45593999997E+02  0.45594000000E+02  0.51100000000E-03 0.  1.
         11   -1    0    0    0    0 -0.00000000000E+00 -0.00000000000E+00 -0.45593999997E+02  0.45594000000E+02  0.51100000000E-03 0. -1.
    9900012    2    1    2    0    0 -0.39396270491E+02 -0.14703622978E+01 -0.99467192806E+01  0.50528864270E+02  0.30000013434E+02 0.  0.
         12    1    1    2    0    0  0.39396270491E+02  0.14703622978E+01  0.99467192806E+01  0.40659135730E+02  0.00000000000E+00 0. -1.
         11    1    3    3    0    0  0.59531346512E+00  0.61138138533E+01  0.29185232053E+01  0.68008011231E+01  0.51100000000E-03 0. -1.
        -11    1    3    3    0    0 -0.23530943916E+02 -0.90163183819E+01 -0.90091096026E+01  0.26761228949E+02  0.51100000000E-03 0.  1.
         12    1    3    3    0    0 -0.16460640040E+02  0.14321422308E+01 -0.38561328833E+01  0.16966834198E+02  0.00000000000E+00 0. -1.
</event>
<event>
 7    1  0.2991278E-011  0.5052886E+02  0.7816164E-02  0.1300439E+00
        -11   -1    0    0    0    0  0.00000000000E+00  0.00000000000E+00  0.45593999997E+02  0.45594000000E+02  0.51100000000E-03 0.  1.
         11   -1    0    0    0    0 -0.00000000000E+00 -0.00000000000E+00 -0.45593999997E+02  0.45594000000E+02  0.51100000000E-03 0. -1.
    9900012    2    1    2    0    0  0.25819876632E+02  0.27756209845E+02  0.14700096651E+02  0.50528855200E+02  0.29999985867E+02 0.  0.
         12    1    1    2    0    0 -0.25819876632E+02 -0.27756209845E+02 -0.14700096651E+02  0.40659144800E+02  0.00000000000E+00 0. -1.
         11    1    3    3    0    0  0.60929095225E+01 -0.92580346844E+00 -0.40265010217E+01  0.73616145817E+01  0.51100000000E-03 0. -1.
        -11    1    3    3    0    0  0.17475761051E+02  0.23190588138E+02  0.21961808784E+02  0.36407782792E+02  0.51100000000E-03 0.  1.
        -12    1    3    3    0    0  0.22512060587E+01  0.54914251756E+01 -0.32352111107E+01  0.67594578266E+01  0.00000000000E+00 0.  1.
</event>
<event>
 7    1  0.2991278E-011  0.5052888E+02  0.7816164E-02  0.1300439E+00
        -11   -1    0    0    0    0  0.00000000000E+00  0.00000000000E+00  0.45593999997E+02  0.45594000000E+02  0.51100000000E-03 0.  1.
         11   -1    0    0    0    0 -0.00000000000E+00 -0.00000000000E+00 -0.45593999997E+02  0.45594000000E+02  0.51100000000E-03 0. -1.
    9900012    2    1    2    0    0  0.10130098095E+02 -0.11164371216E+02  0.37761115714E+02  0.50528881318E+02  0.30000065253E+02 0.  0.
         12    1    1    2    0    0 -0.10130098095E+02  0.11164371216E+02 -0.37761115714E+02  0.40659118682E+02  0.00000000000E+00 0. -1.
         11    1    3    3    0    0  0.34436314942E+01 -0.11578477536E+02  0.10168214010E+02  0.15789626859E+02  0.51100000000E-03 0. -1.
        -11    1    3    3    0    0  0.99986130393E+01  0.77761296257E+01  0.19892180301E+02  0.23582605710E+02  0.51100000000E-03 0.  1.
        -12    1    3    3    0    0 -0.33121464389E+01 -0.73620233051E+01  0.77007214034E+01  0.11156648749E+02  0.00000000000E+00 0.  1.
</event>
<event>
 7    1  0.2991278E-011  0.5052884E+02  0.7816164E-02  0.1300439E+00
        -11   -1    0    0    0    0  0.00000000000E+00  0.00000000000E+00  0.45593999997E+02  0.45594000000E+02  0.51100000000E-03 0. -1.
         11   -1    0    0    0    0 -0.00000000000E+00 -0.00000000000E+00 -0.45593999997E+02  0.45594000000E+02  0.51100000000E-03 0.  1.
    9900012    2    1    2    0    0 -0.19846708486E+02 -0.27623070591E+02 -0.22276479660E+02  0.50528838515E+02  0.29999935150E+02 0.  0.
         12    1    1    2    0    0  0.19846708486E+02  0.27623070591E+02  0.22276479660E+02  0.40659161485E+02  0.00000000000E+00 0. -1.
         11    1    3    3    0    0 -0.97363310209E+00 -0.26129075709E+01  0.56859077541E+00  0.28457939354E+01  0.51100000000E-03 0. -1.
        -11    1    3    3    0    0 -0.15627481632E+02 -0.20075903401E+02 -0.29386882190E+02  0.38869640140E+02  0.51100000000E-03 0.  1.
        -12    1    3    3    0    0 -0.32455937512E+01 -0.49342596197E+01  0.65418117538E+01  0.88134044396E+01  0.00000000000E+00 0.  1.
</event>
<event>
 7    1  0.2991278E-011  0.5052884E+02  0.7816164E-02  0.1300439E+00
        -11   -1    0    0    0    0  0.00000000000E+00  0.00000000000E+00  0.45593999997E+02  0.45594000000E+02  0.51100000000E-03 0.  1.
         11   -1    0    0    0    0 -0.00000000000E+00 -0.00000000000E+00 -0.45593999997E+02  0.45594000000E+02  0.51100000000E-03 0. -1.
    9900012    2    1    2    0    0  0.36373117173E+02  0.52440348376E+01  0.17397224666E+02  0.50528843831E+02  0.29999951310E+02 0.  0.
         12    1    1    2    0    0 -0.36373117173E+02 -0.52440348376E+01 -0.17397224666E+02  0.40659156169E+02  0.00000000000E+00 0. -1.
         11    1    3    3    0    0 -0.19914985375E+01  0.50441124341E+00  0.59240190896E+01  0.62701275556E+01  0.51100000000E-03 0. -1.
        -11    1    3    3    0    0  0.37935548641E+02  0.79473053095E+01  0.12716515542E+02  0.40791853110E+02  0.51100000000E-03 0.  1.
         12    1    3    3    0    0  0.42906706963E+00 -0.32076817153E+01 -0.12433099659E+01  0.34668631654E+01  0.00000000000E+00 0. -1.
</event>
<event>
 7    1  0.2991278E-011  0.5052886E+02  0.7816164E-02  0.1300439E+00
        -11   -1    0    0    0    0  0.00000000000E+00  0.00000000000E+00  0.45593999997E+02  0.45594000000E+02  0.51100000000E-03 0.  1.
         11   -1    0    0    0    0 -0.00000000000E+00 -0.00000000000E+00 -0.45593999997E+02  0.45594000000E+02  0.51100000000E-03 0. -1.
    9900012    2    1    2    0    0  0.37575550954E+02 -0.45860133300E+00  0.15525238227E+02  0.50528863675E+02  0.30000011627E+02 0.  0.
         12    1    1    2    0    0 -0.37575550954E+02  0.45860133300E+00 -0.15525238227E+02  0.40659136325E+02  0.00000000000E+00 0. -1.
         11    1    3    3    0    0  0.15938348555E+02 -0.35757764135E+01 -0.61753957976E+01  0.17462893378E+02  0.51100000000E-03 0. -1.
        -11    1    3    3    0    0  0.11892957263E+02 -0.42818250414E+01  0.97582363883E+01  0.15968708019E+02  0.51100000000E-03 0.  1.
         12    1    3    3    0    0  0.97442451361E+01  0.73990001219E+01  0.11942397637E+02  0.17097262277E+02  0.00000000000E+00 0. -1.
</event>
<event>
 7    1  0.2991278E-011  0.5052878E+02  0.7816164E-02  0.1300439E+00
        -11   -1    0    0    0    0  0.00000000000E+00  0.00000000000E+00  0.45593999997E+02  0.45594000000E+02  0.51100000000E-03 0. -1.
         11   -1    0    0    0    0 -0.00000000000E+00 -0.00000000000E+00 -0.45593999997E+02  0.45594000000E+02  0.51100000000E-03 0.  1.
    9900012    2    1    2    0    0 -0.84802747710E+01 -0.21956167608E+02 -0.33153937420E+02  0.50528783053E+02  0.29999766568E+02 0.  0.
         12    1    1    2    0    0  0.84802747710E+01  0.21956167608E+02  0.33153937420E+02  0.40659216947E+02  0.00000000000E+00 0. -1.
         11    1    3    3    0    0 -0.25124331920E+01  0.35278443466E+01 -0.17715369151E+02  0.18237113551E+02  0.51100000000E-03 0. -1.
        -11    1    3    3    0    0  0.86441674862E+00 -0.14719349334E+02 -0.12198482337E+02  0.19136599299E+02  0.51100000000E-03 0.  1.
         12    1    3    3    0    0 -0.68322583277E+01 -0.10764662621E+02 -0.32400859328E+01  0.13155070203E+02  0.00000000000E+00 0. -1.
</event>
<event>
 7    1  0.2991278E-011  0.5052887E+02  0.7816164E-02  0.1300439E+00
        -11   -1    0    0    0    0  0.00000000000E+00  0.00000000000E+00  0.45593999997E+02  0.45594000000E+02  0.51100000000E-03 0.  1.
         11   -1    0    0    0    0 -0.00000000000E+00 -0.00000000000E+00 -0.45593999997E+02  0.45594000000E+02  0.51100000000E-03 0. -1.
    9900012    2    1    2    0    0 -0.22159691285E+02  0.11150467174E+02  0.32214598026E+02  0.50528866192E+02  0.30000019277E+02 0.  0.
         12    1    1    2    0    0  0.22159691285E+02 -0.11150467174E+02 -0.32214598026E+02  0.40659133808E+02  0.00000000000E+00 0. -1.
         11    1    3    3    0    0 -0.62681940325E+01  0.28434330033E-05  0.23643240523E+01  0.66992749544E+01  0.51100000000E-03 0. -1.
        -11    1    3    3    0    0 -0.28405639172E+01  0.66948958526E+01  0.29125798292E+02  0.30020035981E+02  0.51100000000E-03 0.  1.
        -12    1    3    3    0    0 -0.13050933335E+02  0.44555684782E+01  0.72447568148E+00  0.13809555257E+02  0.00000000000E+00 0.  1.
</event>
<event>
 7    1  0.2991278E-011  0.5052886E+02  0.7816164E-02  0.1300439E+00
        -11   -1    0    0    0    0  0.00000000000E+00  0.00000000000E+00  0.45593999997E+02  0.45594000000E+02  0.51100000000E-03 0. -1.
         11   -1    0    0    0    0 -0.00000000000E+00 -0.00000000000E+00 -0.45593999997E+02  0.45594000000E+02  0.51100000000E-03 0.  1.
    9900012    2    1    2    0    0  0.16730866678E+02 -0.37632123450E+01 -0.36865732155E+02  0.50528857433E+02  0.29999992654E+02 0.  0.
         12    1    1    2    0    0 -0.16730866678E+02  0.37632123450E+01  0.36865732155E+02  0.40659142567E+02  0.00000000000E+00 0. -1.
         11    1    3    3    0    0  0.13199666118E+02 -0.29032647014E+00 -0.31739196051E+01  0.13579000000E+02  0.51100000000E-03 0. -1.
        -11    1    3    3    0    0  0.61996543508E+01  0.37310638720E+01 -0.19715218308E+02  0.21001104372E+02  0.51100000000E-03 0.  1.
         12    1    3    3    0    0 -0.26684537903E+01 -0.72039497469E+01 -0.13976594242E+02  0.15948753061E+02  0.00000000000E+00 0. -1.
</event>
<event>
 7    1  0.2991278E-011  0.5052886E+02  0.7816164E-02  0.1300439E+00
        -11   -1    0    0    0    0  0.00000000000E+00  0.00000000000E+00  0.45593999997E+02  0.45594000000E+02  0.51100000000E-03 0.  1.
         11   -1    0    0    0    0 -0.00000000000E+00 -0.00000000000E+00 -0.45593999997E+02  0.45594000000E+02  0.51100000000E-03 0. -1.
    9900012    2    1    2    0    0  0.26853809379E+02 -0.28612685496E+02  0.10646728058E+02  0.50528859972E+02  0.30000000370E+02 0.  0.
         12    1    1    2    0    0 -0.26853809379E+02  0.28612685496E+02 -0.10646728058E+02  0.40659140028E+02  0.00000000000E+00 0. -1.
         11    1    3    3    0    0  0.46628776361E+01 -0.10245849606E+02  0.11589550673E+02  0.16156656432E+02  0.51100000000E-03 0.  1.
        -11    1    3    3    0    0  0.91718988314E+01  0.83605875675E+00 -0.55021626957E+01  0.10728304480E+02  0.51100000000E-03 0. -1.
         12    1    3    3    0    0  0.13019032912E+02 -0.19202894647E+02  0.45593400814E+01  0.23643899060E+02  0.00000000000E+00 0. -1.
</event>
<event>
 7    1  0.2991278E-011  0.5052885E+02  0.7816164E-02  0.1300439E+00
        -11   -1    0    0    0    0  0.00000000000E+00  0.00000000000E+00  0.45593999997E+02  0.45594000000E+02  0.51100000000E-03 0. -1.
         11   -1    0    0    0    0 -0.00000000000E+00 -0.00000000000E+00 -0.45593999997E+02  0.45594000000E+02  0.51100000000E-03 0.  1.
    9900012    2    1    2    0    0 -0.23944087281E+02  0.17210809880E+02 -0.27993486667E+02  0.50528848654E+02  0.29999965968E+02 0.  0.
         12    1    1    2    0    0  0.23944087281E+02 -0.17210809880E+02  0.27993486667E+02  0.40659151346E+02  0.00000000000E+00 0. -1.
         11    1    3    3    0    0 -0.54610741056E+01 -0.79189824609E+00 -0.11774188862E+02  0.13003151804E+02  0.51100000000E-03 0. -1.
        -11    1    3    3    0    0 -0.13669887051E+01  0.57636741296E+01  0.49191376380E+01  0.76997735651E+01  0.51100000000E-03 0.  1.
        -12    1    3    3    0    0 -0.17116024470E+02  0.12239033996E+02 -0.21138435442E+02  0.29825923285E+02  0.00000000000E+00 0.  1.
</event>
<event>
 7    1  0.2991278E-011  0.5052886E+02  0.7816164E-02  0.1300439E+00
        -11   -1    0    0    0    0  0.00000000000E+00  0.00000000000E+00  0.45593999997E+02  0.45594000000E+02  0.51100000000E-03 0. -1.
         11   -1    0    0    0    0 -0.00000000000E+00 -0.00000000000E+00 -0.45593999997E+02  0.45594000000E+02  0.51100000000E-03 0.  1.
    9900012    2    1    2    0    0 -0.90852549863E+00 -0.33391113787E+02 -0.23181328013E+02  0.50528857523E+02  0.29999992926E+02 0.  0.
         12    1    1    2    0    0  0.90852549863E+00  0.33391113787E+02  0.23181328013E+02  0.40659142477E+02  0.00000000000E+00 0. -1.
         11    1    3    3    0    0 -0.13349525845E+02 -0.17013349972E+02 -0.14294149668E+02  0.25922704962E+02  0.51100000000E-03 0.  1.
        -11    1    3    3    0    0  0.10721401989E+02 -0.17468715535E+02 -0.93332367871E+01  0.22521407421E+02  0.51100000000E-03 0. -1.
         12    1    3    3    0    0  0.17195983566E+01  0.10909517201E+01  0.44605844162E+00  0.20847451396E+01  0.00000000000E+00 0. -1.
</event>
<event>
 7    1  0.2991278E-011  0.5052886E+02  0.7816164E-02  0.1300439E+00
        -11   -1    0    0    0    0  0.00000000000E+00  0.00000000000E+00  0.45593999997E+02  0.45594000000E+02  0.51100000000E-03 0.  1.
         11   -1    0    0    0    0 -0.00000000000E+00 -0.00000000000E+00 -0.45593999997E+02  0.45594000000E+02  0.51100000000E-03 0. -1.
    9900012    2    1    2    0    0  0.18102219381E+01 -0.34700267735E+02  0.21113511398E+02  0.50528857757E+02  0.29999993638E+02 0.  0.
         12    1    1    2    0    0 -0.18102219381E+01  0.34700267735E+02 -0.21113511398E+02  0.40659142243E+02  0.00000000000E+00 0. -1.
         11    1    3    3    0    0 -0.65866086684E+01 -0.11113615122E+00  0.13794171556E+01  0.67304202651E+01  0.51100000000E-03 0. -1.
        -11    1    3    3    0    0  0.24535731707E+01 -0.22993717618E+02  0.20279900570E+02  0.30757201410E+02  0.51100000000E-03 0.  1.
        -12    1    3    3    0    0  0.59432574358E+01 -0.11595413966E+02 -0.54580632685E+00  0.13041236082E+02  0.00000000000E+00 0.  1.
</event>
<event>
 7    1  0.2991278E-011  0.5052887E+02  0.7816164E-02  0.1300439E+00
        -11   -1    0    0    0    0  0.00000000000E+00  0.00000000000E+00  0.45593999997E+02  0.45594000000E+02  0.51100000000E-03 0.  1.
         11   -1    0    0    0    0 -0.00000000000E+00 -0.00000000000E+00 -0.45593999997E+02  0.45594000000E+02  0.51100000000E-03 0. -1.
    9900012    2    1    2    0    0 -0.78881627294E+01  0.19387185262E+02  0.34857985411E+02  0.50528865595E+02  0.30000017464E+02 0.  0.
         12    1    1    2    0    0  0.78881627294E+01 -0.19387185262E+02 -0.34857985411E+02  0.40659134405E+02  0.00000000000E+00 0. -1.
         11    1    3    3    0    0 -0.69178679237E+01  0.14790070427E+02  0.40337024669E+01  0.16818853579E+02  0.51100000000E-03 0. -1.
        -11    1    3    3    0    0 -0.11744498920E+00  0.77431933141E+01  0.28911339258E+02  0.29930525788E+02  0.51100000000E-03 0.  1.
         12    1    3    3    0    0 -0.85284981643E+00 -0.31460784792E+01  0.19129436864E+01  0.37794862288E+01  0.00000000000E+00 0. -1.
</event>
<event>
 7    1  0.2991278E-011  0.5052884E+02  0.7816164E-02  0.1300439E+00
        -11   -1    0    0    0    0  0.00000000000E+00  0.00000000000E+00  0.45593999997E+02  0.45594000000E+02  0.51100000000E-03 0. -1.
         11   -1    0    0    0    0 -0.00000000000E+00 -0.00000000000E+00 -0.45593999997E+02  0.45594000000E+02  0.51100000000E-03 0.  1.
    9900012    2    1    2    0    0 -0.23473127845E+02 -0.10342287565E+02 -0.31547050368E+02  0.50528843223E+02  0.29999949460E+02 0.  0.
         12    1    1    2    0    0  0.23473127845E+02  0.10342287565E+02  0.31547050368E+02  0.40659156777E+02  0.00000000000E+00 0. -1.
         11    1    3    3    0    0 -0.96987171083E+01 -0.12840142415E+02 -0.26267121064E+02  0.30804155889E+02  0.51100000000E-03 0.  1.
        -11    1    3    3    0    0 -0.50692585019E+01 -0.91444564668E+00  0.40223076776E+01  0.65354840612E+01  0.51100000000E-03 0. -1.
         12    1    3    3    0    0 -0.87051522346E+01  0.34123004961E+01 -0.93022369816E+01  0.13189203273E+02  0.00000000000E+00 0. -1.
</event>
<event>
 7    1  0.2991278E-011  0.5052891E+02  0.7816164E-02  0.1300439E+00
        -11   -1    0    0    0    0  0.00000000000E+00  0.00000000000E+00  0.45593999997E+02  0.45594000000E+02  0.51100000000E-03 0.  1.
         11   -1    0    0    0    0 -0.00000000000E+00 -0.00000000000E+00 -0.45593999997E+02  0.45594000000E+02  0.51100000000E-03 0. -1.
    9900012    2    1    2    0    0 -0.23483428980E+02 -0.99071917679E+01  0.31678667554E+02  0.50528906756E+02  0.30000142576E+02 0.  0.
         12    1    1    2    0    0  0.23483428980E+02  0.99071917679E+01 -0.31678667554E+02  0.40659093244E+02  0.00000000000E+00 0. -1.
         11    1    3    3    0    0 -0.10106197747E+02  0.51322188787E+01  0.19804076573E+02  0.22818333697E+02  0.51100000000E-03 0. -1.
        -11    1    3    3    0    0 -0.15891767461E+02 -0.85128137377E+01  0.81229146672E+01  0.19773669708E+02  0.51100000000E-03 0.  1.
         12    1    3    3    0    0  0.25145362276E+01 -0.65265969090E+01  0.37516763138E+01  0.79369033518E+01  0.00000000000E+00 0. -1.
</event>
<event>
 7    1  0.2991278E-011  0.5052888E+02  0.7816164E-02  0.1300439E+00
        -11   -1    0    0    0    0  0.00000000000E+00  0.00000000000E+00  0.45593999997E+02  0.45594000000E+02  0.51100000000E-03 0.  1.
         11   -1    0    0    0    0 -0.00000000000E+00 -0.00000000000E+00 -0.45593999997E+02  0.45594000000E+02  0.51100000000E-03 0. -1.
    9900012    2    1    2    0    0  0.23002258811E+02  0.18952458521E+02  0.27656175845E+02  0.50528884702E+02  0.30000075541E+02 0.  0.
         12    1    1    2    0    0 -0.23002258811E+02 -0.18952458521E+02 -0.27656175845E+02  0.40659115298E+02  0.00000000000E+00 0. -1.
         11    1    3    3    0    0  0.49035786101E+01 -0.53575215746E+01  0.13099329556E+02  0.14978002393E+02  0.51100000000E-03 0. -1.
        -11    1    3    3    0    0  0.14641214280E+02  0.10137807290E+02  0.88532263028E+01  0.19887682331E+02  0.51100000000E-03 0.  1.
         12    1    3    3    0    0  0.34574659210E+01  0.14172172805E+02  0.57036199863E+01  0.15663199979E+02  0.00000000000E+00 0. -1.
</event>
<event>
 7    1  0.2991278E-011  0.5052886E+02  0.7816164E-02  0.1300439E+00
        -11   -1    0    0    0    0  0.00000000000E+00  0.00000000000E+00  0.45593999997E+02  0.45594000000E+02  0.51100000000E-03 0.  1.
         11   -1    0    0    0    0 -0.00000000000E+00 -0.00000000000E+00 -0.45593999997E+02  0.45594000000E+02  0.51100000000E-03 0. -1.
    9900012    2    1    2    0    0  0.24036214037E+02  0.29613540763E+02  0.14087727349E+02  0.50528862729E+02  0.30000008751E+02 0.  0.
         12    1    1    2    0    0 -0.24036214037E+02 -0.29613540763E+02 -0.14087727349E+02  0.40659137271E+02  0.00000000000E+00 0. -1.
         11    1    3    3    0    0  0.89436563598E+01  0.37393750217E+01 -0.71018791951E+01  0.12017013065E+02  0.51100000000E-03 0. -1.
        -11    1    3    3    0    0  0.58069797636E+01  0.20661676921E+02  0.15138905402E+02  0.26264279244E+02  0.51100000000E-03 0.  1.
        -12    1    3    3    0    0  0.92855779135E+01  0.52124888208E+01  0.60507011424E+01  0.12247570421E+02  0.00000000000E+00 0.  1.
</event>
<event>
 7    1  0.2991278E-011  0.5052886E+02  0.7816164E-02  0.1300439E+00
        -11   -1    0    0    0    0  0.00000000000E+00  0.00000000000E+00  0.45593999997E+02  0.45594000000E+02  0.51100000000E-03 0.  1.
         11   -1    0    0    0    0 -0.00000000000E+00 -0.00000000000E+00 -0.45593999997E+02  0.45594000000E+02  0.51100000000E-03 0. -1.
    9900012    2    1    2    0    0 -0.11808599992E+02 -0.15598270293E+02  0.35642902583E+02  0.50528861120E+02  0.30000003862E+02 0.  0.
         12    1    1    2    0    0  0.11808599992E+02  0.15598270293E+02 -0.35642902583E+02  0.40659138880E+02  0.00000000000E+00 0. -1.
         11    1    3    3    0    0  0.34265497059E+01  0.23526754632E+01  0.24543870538E+01  0.48270426549E+01  0.51100000000E-03 0. -1.
        -11    1    3    3    0    0 -0.73958043039E+01 -0.20547032992E+02  0.29382621084E+02  0.36608973054E+02  0.51100000000E-03 0.  1.
        -12    1    3    3    0    0 -0.78393453943E+01  0.25960872356E+01  0.38058944448E+01  0.90928454111E+01  0.00000000000E+00 0.  1.
</event>
<event>
 7    1  0.2991278E-011  0.5052886E+02  0.7816164E-02  0.1300439E+00
        -11   -1    0    0    0    0  0.00000000000E+00  0.00000000000E+00  0.45593999997E+02  0.45594000000E+02  0.51100000000E-03 0. -1.
         11   -1    0    0    0    0 -0.00000000000E+00 -0.00000000000E+00 -0.45593999997E+02  0.45594000000E+02  0.51100000000E-03 0.  1.
    9900012    2    1    2    0    0  0.18976995003E+02  0.35136354864E+02  0.76469292427E+01  0.50528864504E+02  0.30000014145E+02 0.  0.
         12    1    1    2    0    0 -0.18976995003E+02 -0.35136354864E+02 -0.76469292427E+01  0.40659135496E+02  0.00000000000E+00 0. -1.
         11    1    3    3    0    0 -0.96238454185E+00 -0.75572263151E+00  0.10663511169E-02  0.12236429628E+01  0.51100000000E-03 0. -1.
        -11    1    3    3    0    0  0.81685894233E+01  0.28650481014E+02 -0.54261794301E+01  0.30282327173E+02  0.51100000000E-03 0.  1.
        -12    1    3    3    0    0  0.11770790122E+02  0.72415964810E+01  0.13072042322E+02  0.19022894368E+02  0.00000000000E+00 0.  1.
</event>
<event>
 7    1  0.2991278E-011  0.5052886E+02  0.7816164E-02  0.1300439E+00
        -11   -1    0    0    0    0  0.00000000000E+00  0.00000000000E+00  0.45593999997E+02  0.45594000000E+02  0.51100000000E-03 0.  1.
         11   -1    0    0    0    0 -0.00000000000E+00 -0.00000000000E+00 -0.45593999997E+02  0.45594000000E+02  0.51100000000E-03 0. -1.
    9900012    2    1    2    0    0  0.15378655417E+02  0.21175101523E+02  0.31117159683E+02  0.50528860884E+02  0.30000003142E+02 0.  0.
         12    1    1    2    0    0 -0.15378655417E+02 -0.21175101523E+02 -0.31117159683E+02  0.40659139116E+02  0.00000000000E+00 0. -1.
         11    1    3    3    0    0 -0.53174762811E+01  0.22376291614E+00  0.82746924479E+01  0.98385039112E+01  0.51100000000E-03 0. -1.
        -11    1    3    3    0    0  0.20828647178E+02  0.22690261750E+02  0.18305525129E+02  0.35829774937E+02  0.51100000000E-03 0.  1.
        -12    1    3    3    0    0 -0.13251547966E+00 -0.17389231428E+01  0.45369421064E+01  0.48605820357E+01  0.00000000000E+00 0.  1.
</event>
<event>
 7    1  0.2991278E-011  0.5052886E+02  0.7816164E-02  0.1300439E+00
        -11   -1    0    0    0    0  0.00000000000E+00  0.00000000000E+00  0.45593999997E+02  0.45594000000E+02  0.51100000000E-03 0.  1.
         11   -1    0    0    0    0 -0.00000000000E+00 -0.00000000000E+00 -0.45593999997E+02  0.45594000000E+02  0.51100000000E-03 0. -1.
    9900012    2    1    2    0    0 -0.30534506959E+02 -0.81981656988E+01  0.25565592492E+02  0.50528861352E+02  0.30000004566E+02 0.  0.
         12    1    1    2    0    0  0.30534506959E+02  0.81981656988E+01 -0.25565592492E+02  0.40659138648E+02  0.00000000000E+00 0. -1.
         11    1    3    3    0    0  0.46589708576E+01 -0.53708520462E+01  0.34220215440E+01  0.78906459091E+01  0.51100000000E-03 0. -1.
        -11    1    3    3    0    0 -0.30440151408E+02  0.81106086884E+00  0.18430567096E+02  0.35594191116E+02  0.51100000000E-03 0.  1.
        -12    1    3    3    0    0 -0.47533264087E+01 -0.36383745214E+01  0.37130038527E+01  0.70440243268E+01  0.00000000000E+00 0.  1.
</event>
<event>
 7    1  0.2991278E-011  0.5052887E+02  0.7816164E-02  0.1300439E+00
        -11   -1    0    0    0    0  0.00000000000E+00  0.00000000000E+00  0.45593999997E+02  0.45594000000E+02  0.51100000000E-03 0. -1.
         11   -1    0    0    0    0 -0.00000000000E+00 -0.00000000000E+00 -0.45593999997E+02  0.45594000000E+02  0.51100000000E-03 0.  1.
    9900012    2    1    2    0    0 -0.49423033842E+00  0.12931122930E+02 -0.38544868322E+02  0.50528867227E+02  0.30000022424E+02 0.  0.
         12    1    1    2    0    0  0.49423033842E+00 -0.12931122930E+02  0.38544868322E+02  0.40659132773E+02  0.00000000000E+00 0. -1.
         11    1    3    3    0    0 -0.42547135311E+00  0.78797884052E+01 -0.36649731764E+02  0.37489664306E+02  0.51100000000E-03 0.  1.
        -11    1    3    3    0    0  0.48669437884E+01  0.33030613994E+01  0.23142310420E+01  0.63208402941E+01  0.51100000000E-03 0. -1.
         12    1    3    3    0    0 -0.49357027737E+01  0.17482731258E+01 -0.42093676002E+01  0.67183626269E+01  0.00000000000E+00 0. -1.
</event>
<event>
 7    1  0.2991278E-011  0.5052886E+02  0.7816164E-02  0.1300439E+00
        -11   -1    0    0    0    0  0.00000000000E+00  0.00000000000E+00  0.45593999997E+02  0.45594000000E+02  0.51100000000E-03 0. -1.
         11   -1    0    0    0    0 -0.00000000000E+00 -0.00000000000E+00 -0.45593999997E+02  0.45594000000E+02  0.51100000000E-03 0.  1.
    9900012    2    1    2    0    0 -0.20146378349E+02 -0.12248192888E+02 -0.33125074039E+02  0.50528864253E+02  0.30000013383E+02 0.  0.
         12    1    1    2    0    0  0.20146378349E+02  0.12248192888E+02  0.33125074039E+02  0.40659135747E+02  0.00000000000E+00 0. -1.
         11    1    3    3    0    0 -0.96480301117E+01  0.70988509640E+01 -0.15871765785E+02  0.19884444157E+02  0.51100000000E-03 0. -1.
        -11    1    3    3    0    0 -0.97908422898E+01 -0.79616030748E+01 -0.41793219567E+01  0.13293398683E+02  0.51100000000E-03 0.  1.
         12    1    3    3    0    0 -0.70750594780E+00 -0.11385440777E+02 -0.13073986297E+02  0.17351021413E+02  0.00000000000E+00 0. -1.
</event>
<event>
 7    1  0.2991278E-011  0.5052885E+02  0.7816164E-02  0.1300439E+00
        -11   -1    0    0    0    0  0.00000000000E+00  0.00000000000E+00  0.45593999997E+02  0.45594000000E+02  0.51100000000E-03 0. -1.
         11   -1    0    0    0    0 -0.00000000000E+00 -0.00000000000E+00 -0.45593999997E+02  0.45594000000E+02  0.51100000000E-03 0.  1.
    9900012    2    1    2    0    0  0.12289510850E+02  0.18172808674E+02 -0.34232783865E+02  0.50528849208E+02  0.29999967652E+02 0.  0.
         12    1    1    2    0    0 -0.12289510850E+02 -0.18172808674E+02  0.34232783865E+02  0.40659150792E+02  0.00000000000E+00 0. -1.
         11    1    3    3    0    0  0.33493732971E+01  0.25519328628E+01  0.21518214912E+01  0.47287417788E+01  0.51100000000E-03 0. -1.
        -11    1    3    3    0    0  0.11215152071E+02  0.34723931007E+00 -0.22000017502E+02  0.24696173417E+02  0.51100000000E-03 0.  1.
        -12    1    3    3    0    0 -0.22750145190E+01  0.15273636501E+02 -0.14384587854E+02  0.21103934012E+02  0.00000000000E+00 0.  1.
</event>
<event>
 7    1  0.2991278E-011  0.5052886E+02  0.7816164E-02  0.1300439E+00
        -11   -1    0    0    0    0  0.00000000000E+00  0.00000000000E+00  0.45593999997E+02  0.45594000000E+02  0.51100000000E-03 0.  1.
         11   -1    0    0    0    0 -0.00000000000E+00 -0.00000000000E+00 -0.45593999997E+02  0.45594000000E+02  0.51100000000E-03 0. -1.
    9900012    2    1    2    0    0  0.14983713201E+02 -0.23304046774E+02  0.29758617802E+02  0.50528860919E+02  0.30000003250E+02 0.  0.
         12    1    1    2    0    0 -0.14983713201E+02  0.23304046774E+02 -0.29758617802E+02  0.40659139081E+02  0.00000000000E+00 0. -1.
         11    1    3    3    0    0  0.88978148007E+01 -0.15973002342E+02  0.43936088429E+01  0.18804566227E+02  0.51100000000E-03 0. -1.
        -11    1    3    3    0    0  0.47744489022E+01 -0.25231285490E+01  0.26130158610E+02  0.26682329906E+02  0.51100000000E-03 0.  1.
        -12    1    3    3    0    0  0.13114494976E+01 -0.48079158821E+01 -0.76514965066E+00  0.50419647859E+01  0.00000000000E+00 0.  1.
</event>
<event>
 7    1  0.2991278E-011  0.5052886E+02  0.7816164E-02  0.1300439E+00
        -11   -1    0    0    0    0  0.00000000000E+00  0.00000000000E+00  0.45593999997E+02  0.45594000000E+02  0.51100000000E-03 0.  1.
         11   -1    0    0    0    0 -0.00000000000E+00 -0.00000000000E+00 -0.45593999997E+02  0.45594000000E+02  0.51100000000E-03 0. -1.
    9900012    2    1    2    0    0  0.34234981371E+02  0.47237749114E+01  0.21420027717E+02  0.50528860975E+02  0.30000003419E+02 0.  0.
         12    1    1    2    0    0 -0.34234981371E+02 -0.47237749114E+01 -0.21420027717E+02  0.40659139025E+02  0.00000000000E+00 0. -1.
         11    1    3    3    0    0  0.57363820098E+01 -0.60421306539E+01 -0.25833204990E+00  0.83354758179E+01  0.51100000000E-03 0. -1.
        -11    1    3    3    0    0  0.30723525363E+02  0.12404380108E+02  0.18376789301E+02  0.37888125341E+02  0.51100000000E-03 0.  1.
        -12    1    3    3    0    0 -0.22249260018E+01 -0.16384745429E+01  0.33015704655E+01  0.43052598156E+01  0.00000000000E+00 0.  1.
</event>
<event>
 7    1  0.2991278E-011  0.5052886E+02  0.7816164E-02  0.1300439E+00
        -11   -1    0    0    0    0  0.00000000000E+00  0.00000000000E+00  0.45593999997E+02  0.45594000000E+02  0.51100000000E-03 0.  1.
         11   -1    0    0    0    0 -0.00000000000E+00 -0.00000000000E+00 -0.45593999997E+02  0.45594000000E+02  0.51100000000E-03 0. -1.
    9900012    2    1    2    0    0  0.29866014446E+02  0.13245341810E+02  0.24202231005E+02  0.50528857311E+02  0.29999992282E+02 0.  0.
         12    1    1    2    0    0 -0.29866014446E+02 -0.13245341810E+02 -0.24202231005E+02  0.40659142689E+02  0.00000000000E+00 0. -1.
         11    1    3    3    0    0 -0.26259604062E+01  0.69107431075E+01  0.52300619399E+01  0.90558040234E+01  0.51100000000E-03 0. -1.
        -11    1    3    3    0    0  0.31624979244E+02  0.17199488916E+01  0.13980631040E+02  0.34620161480E+02  0.51100000000E-03 0.  1.
        -12    1    3    3    0    0  0.86699560894E+00  0.46146498114E+01  0.49915380256E+01  0.68528918078E+01  0.00000000000E+00 0.  1.
</event>
<event>
 7    1  0.2991278E-011  0.5052885E+02  0.7816164E-02  0.1300439E+00
        -11   -1    0    0    0    0  0.00000000000E+00  0.00000000000E+00  0.45593999997E+02  0.45594000000E+02  0.51100000000E-03 0.  1.
         11   -1    0    0    0    0 -0.00000000000E+00 -0.00000000000E+00 -0.45593999997E+02  0.45594000000E+02  0.51100000000E-03 0. -1.
    9900012    2    1    2    0    0 -0.16819904270E+02  0.29173545746E+02  0.22785121922E+02  0.50528846885E+02  0.29999960590E+02 0.  0.
         12    1    1    2    0    0  0.16819904270E+02 -0.29173545746E+02 -0.22785121922E+02  0.40659153115E+02  0.00000000000E+00 0. -1.
         11    1    3    3    0    0 -0.24540913386E+02  0.23056924914E+02  0.17615463057E+02  0.38002404598E+02  0.51100000000E-03 0.  1.
        -11    1    3    3    0    0  0.64911295056E+01  0.63140913545E+01  0.61456258735E+01  0.10944004273E+02  0.51100000000E-03 0. -1.
        -12    1    3    3    0    0  0.12298796105E+01 -0.19747052207E+00 -0.97596700847E+00  0.15824380130E+01  0.00000000000E+00 0.  1.
</event>
<event>
 7    1  0.2991278E-011  0.5052888E+02  0.7816164E-02  0.1300439E+00
        -11   -1    0    0    0    0  0.00000000000E+00  0.00000000000E+00  0.45593999997E+02  0.45594000000E+02  0.51100000000E-03 0.  1.
         11   -1    0    0    0    0 -0.00000000000E+00 -0.00000000000E+00 -0.45593999997E+02  0.45594000000E+02  0.51100000000E-03 0. -1.
    9900012    2    1    2    0    0 -0.46938890135E+01  0.38938228318E+02  0.10721297387E+02  0.50528875117E+02  0.30000046405E+02 0.  0.
         12    1    1    2    0    0  0.46938890135E+01 -0.38938228318E+02 -0.10721297387E+02  0.40659124883E+02  0.00000000000E+00 0. -1.
         11    1    3    3    0    0 -0.48713563072E+01  0.17403764448E+02  0.19098631970E+02  0.26294084365E+02  0.51100000000E-03 0. -1.
        -11    1    3    3    0    0 -0.21932229832E+00  0.72391396627E+00  0.11236734165E+01  0.13545463851E+01  0.51100000000E-03 0.  1.
         12    1    3    3    0    0  0.39678959202E+00  0.20810549904E+02 -0.95010079990E+01  0.22880244367E+02  0.00000000000E+00 0. -1.
</event>
<event>
 7    1  0.2991278E-011  0.5052884E+02  0.7816164E-02  0.1300439E+00
        -11   -1    0    0    0    0  0.00000000000E+00  0.00000000000E+00  0.45593999997E+02  0.45594000000E+02  0.51100000000E-03 0. -1.
         11   -1    0    0    0    0 -0.00000000000E+00 -0.00000000000E+00 -0.45593999997E+02  0.45594000000E+02  0.51100000000E-03 0.  1.
    9900012    2    1    2    0    0  0.10570124267E+02 -0.59441724432E+01 -0.38808586844E+02  0.50528842042E+02  0.29999945870E+02 0.  0.
         12    1    1    2    0    0 -0.10570124267E+02  0.59441724432E+01  0.38808586844E+02  0.40659157958E+02  0.00000000000E+00 0. -1.
         11    1    3    3    0    0  0.11556679783E+02  0.48770005911E+01 -0.29006656608E+02  0.31602659859E+02  0.51100000000E-03 0. -1.
        -11    1    3    3    0    0  0.26309207113E+01 -0.83376358067E+01 -0.11301993948E+02  0.14288911158E+02  0.51100000000E-03 0.  1.
         12    1    3    3    0    0 -0.36174762265E+01 -0.24835372275E+01  0.15000637118E+01  0.46372710239E+01  0.00000000000E+00 0. -1.
</event>
<event>
 7    1  0.2991278E-011  0.5052886E+02  0.7816164E-02  0.1300439E+00
        -11   -1    0    0    0    0  0.00000000000E+00  0.00000000000E+00  0.45593999997E+02  0.45594000000E+02  0.51100000000E-03 0. -1.
         11   -1    0    0    0    0 -0.00000000000E+00 -0.00000000000E+00 -0.45593999997E+02  0.45594000000E+02  0.51100000000E-03 0.  1.
    9900012    2    1    2    0    0 -0.26930122797E+02 -0.28458407499E+02  0.10865225920E+02  0.50528860738E+02  0.30000002700E+02 0.  0.
         12    1    1    2    0    0  0.26930122797E+02  0.28458407499E+02 -0.10865225920E+02  0.40659139262E+02  0.00000000000E+00 0. -1.
         11    1    3    3    0    0 -0.82482582718E+01 -0.11858517697E+02 -0.88077454451E+01  0.16918468801E+02  0.51100000000E-03 0. -1.
        -11    1    3    3    0    0 -0.25210358252E+01 -0.34009083887E+01 -0.87788503328E+00  0.43234802987E+01  0.51100000000E-03 0.  1.
         12    1    3    3    0    0 -0.16160828699E+02 -0.13198981413E+02  0.20550856399E+02  0.29286911638E+02  0.00000000000E+00 0. -1.
</event>
<event>
 7    1  0.2991278E-011  0.5052887E+02  0.7816164E-02  0.1300439E+00
        -11   -1    0    0    0    0  0.00000000000E+00  0.00000000000E+00  0.45593999997E+02  0.45594000000E+02  0.51100000000E-03 0. -1.
         11   -1    0    0    0    0 -0.00000000000E+00 -0.00000000000E+00 -0.45593999997E+02  0.45594000000E+02  0.51100000000E-03 0.  1.
    9900012    2    1    2    0    0 -0.37500208857E+02  0.12648622302E+02  0.93226472377E+01  0.50528867422E+02  0.30000023017E+02 0.  0.
         12    1    1    2    0    0  0.37500208857E+02 -0.12648622302E+02 -0.93226472377E+01  0.40659132578E+02  0.00000000000E+00 0. -1.
         11    1    3    3    0    0 -0.19154498021E+02  0.95110611716E+01  0.71608020229E+00  0.21397846858E+02  0.51100000000E-03 0. -1.
        -11    1    3    3    0    0 -0.16216344166E+02 -0.17788993820E+01  0.14023069771E+02  0.21512340346E+02  0.51100000000E-03 0.  1.
        -12    1    3    3    0    0 -0.21293666703E+01  0.49164605125E+01 -0.54165027351E+01  0.76186802182E+01  0.00000000000E+00 0.  1.
</event>
<event>
 7    1  0.2991278E-011  0.5052886E+02  0.7816164E-02  0.1300439E+00
        -11   -1    0    0    0    0  0.00000000000E+00  0.00000000000E+00  0.45593999997E+02  0.45594000000E+02  0.51100000000E-03 0.  1.
         11   -1    0    0    0    0 -0.00000000000E+00 -0.00000000000E+00 -0.45593999997E+02  0.45594000000E+02  0.51100000000E-03 0. -1.
    9900012    2    1    2    0    0  0.21433296119E+02 -0.26004415500E+02  0.22749716000E+02  0.50528863436E+02  0.30000010900E+02 0.  0.
         12    1    1    2    0    0 -0.21433296119E+02  0.26004415500E+02 -0.22749716000E+02  0.40659136564E+02  0.00000000000E+00 0. -1.
         11    1    3    3    0    0  0.40530393905E+01  0.20729228596E+00  0.64246718668E+01  0.75991122673E+01  0.51100000000E-03 0. -1.
        -11    1    3    3    0    0  0.32471442800E+01 -0.24690225592E+02  0.67857050126E+01  0.25810791901E+02  0.51100000000E-03 0.  1.
        -12    1    3    3    0    0  0.14133112449E+02 -0.15214821940E+01  0.95393391209E+01  0.17118959268E+02  0.00000000000E+00 0.  1.
</event>
<event>
 7    1  0.2991278E-011  0.5052885E+02  0.7816164E-02  0.1300439E+00
        -11   -1    0    0    0    0  0.00000000000E+00  0.00000000000E+00  0.45593999997E+02  0.45594000000E+02  0.51100000000E-03 0. -1.
         11   -1    0    0    0    0 -0.00000000000E+00 -0.00000000000E+00 -0.45593999997E+02  0.45594000000E+02  0.51100000000E-03 0.  1.
    9900012    2    1    2    0    0 -0.60593828223E+01 -0.15094797895E+02 -0.37263890452E+02  0.50528848812E+02  0.29999966450E+02 0.  0.
         12    1    1    2    0    0  0.60593828223E+01  0.15094797895E+02  0.37263890452E+02  0.40659151188E+02  0.00000000000E+00 0. -1.
         11    1    3    3    0    0 -0.55581327531E+00 -0.37757475217E+01 -0.20405573111E+01  0.43277098038E+01  0.51100000000E-03 0. -1.
        -11    1    3    3    0    0 -0.12799706234E+02 -0.16456499240E+01 -0.53609386782E+01  0.13974273044E+02  0.51100000000E-03 0.  1.
        -12    1    3    3    0    0  0.72961366870E+01 -0.96734004494E+01 -0.29862394463E+02  0.32226865964E+02  0.00000000000E+00 0.  1.
</event>
<event>
 7    1  0.2991278E-011  0.5052886E+02  0.7816164E-02  0.1300439E+00
        -11   -1    0    0    0    0  0.00000000000E+00  0.00000000000E+00  0.45593999997E+02  0.45594000000E+02  0.51100000000E-03 0.  1.
         11   -1    0    0    0    0 -0.00000000000E+00 -0.00000000000E+00 -0.45593999997E+02  0.45594000000E+02  0.51100000000E-03 0. -1.
    9900012    2    1    2    0    0 -0.34519890352E+02  0.25828153799E+01  0.21327729072E+02  0.50528858438E+02  0.29999995708E+02 0.  0.
         12    1    1    2    0    0  0.34519890352E+02 -0.25828153799E+01 -0.21327729072E+02  0.40659141562E+02  0.00000000000E+00 0. -1.
         11    1    3    3    0    0 -0.14125686773E+02  0.14263173176E+02  0.95424889293E+01  0.22226835831E+02  0.51100000000E-03 0. -1.
        -11    1    3    3    0    0 -0.11155894016E+02 -0.63040548456E+00  0.36198568641E+01  0.11745413844E+02  0.51100000000E-03 0.  1.
         12    1    3    3    0    0 -0.92383095625E+01 -0.11049952311E+02  0.81653832787E+01  0.16556608763E+02  0.00000000000E+00 0. -1.
</event>
<event>
 7    1  0.2991278E-011  0.5052886E+02  0.7816164E-02  0.1300439E+00
        -11   -1    0    0    0    0  0.00000000000E+00  0.00000000000E+00  0.45593999997E+02  0.45594000000E+02  0.51100000000E-03 0. -1.
         11   -1    0    0    0    0 -0.00000000000E+00 -0.00000000000E+00 -0.45593999997E+02  0.45594000000E+02  0.51100000000E-03 0.  1.
    9900012    2    1    2    0    0  0.96605465368E+01 -0.38080637785E+02  0.10473985163E+02  0.50528862051E+02  0.30000006691E+02 0.  0.
         12    1    1    2    0    0 -0.96605465368E+01  0.38080637785E+02 -0.10473985163E+02  0.40659137949E+02  0.00000000000E+00 0. -1.
         11    1    3    3    0    0  0.11927180984E+02 -0.71859012953E+01  0.10255797525E+01  0.13962329237E+02  0.51100000000E-03 0. -1.
        -11    1    3    3    0    0 -0.88987785201E+01 -0.17166505335E+02  0.15556377392E+01  0.19398380696E+02  0.51100000000E-03 0.  1.
         12    1    3    3    0    0  0.66321440733E+01 -0.13728231155E+02  0.78927676714E+01  0.17168152118E+02  0.00000000000E+00 0. -1.
</event>
<event>
 7    1  0.2991278E-011  0.5052887E+02  0.7816164E-02  0.1300439E+00
        -11   -1    0    0    0    0  0.00000000000E+00  0.00000000000E+00  0.45593999997E+02  0.45594000000E+02  0.51100000000E-03 0.  1.
         11   -1    0    0    0    0 -0.00000000000E+00 -0.00000000000E+00 -0.45593999997E+02  0.45594000000E+02  0.51100000000E-03 0. -1.
    9900012    2    1    2    0    0  0.40524738859E+02  0.12176720450E+01 -0.30704456463E+01  0.50528870383E+02  0.30000032016E+02 0.  0.
         12    1    1    2    0    0 -0.40524738859E+02 -0.12176720450E+01  0.30704456463E+01  0.40659129617E+02  0.00000000000E+00 0. -1.
         11    1    3    3    0    0  0.25576068330E+02 -0.65098241678E+01  0.30835168695E+01  0.26571058663E+02  0.51100000000E-03 0.  1.
        -11    1    3    3    0    0  0.88471946767E+01  0.22812509449E+01 -0.11118078048E+02  0.14390573973E+02  0.51100000000E-03 0. -1.
        -12    1    3    3    0    0  0.61014758517E+01  0.54462452680E+01  0.49641155324E+01  0.95672377470E+01  0.00000000000E+00 0.  1.
</event>
<event>
 7    1  0.2991278E-011  0.5052886E+02  0.7816164E-02  0.1300439E+00
        -11   -1    0    0    0    0  0.00000000000E+00  0.00000000000E+00  0.45593999997E+02  0.45594000000E+02  0.51100000000E-03 0.  1.
         11   -1    0    0    0    0 -0.00000000000E+00 -0.00000000000E+00 -0.45593999997E+02  0.45594000000E+02  0.51100000000E-03 0. -1.
    9900012    2    1    2    0    0  0.37886243029E+02 -0.64282226721E+01 -0.13284437973E+02  0.50528858964E+02  0.29999997306E+02 0.  0.
         12    1    1    2    0    0 -0.37886243029E+02  0.64282226721E+01  0.13284437973E+02  0.40659141036E+02  0.00000000000E+00 0. -1.
         11    1    3    3    0    0  0.26162136713E+02 -0.98744421120E+01 -0.17420528778E+02  0.32945968305E+02  0.51100000000E-03 0. -1.
        -11    1    3    3    0    0  0.96154835532E+01  0.74244871698E+01  0.11995012309E+01  0.12207347671E+02  0.51100000000E-03 0.  1.
        -12    1    3    3    0    0  0.21086227627E+01 -0.39782677299E+01  0.29365895737E+01  0.53755429875E+01  0.00000000000E+00 0.  1.
</event>
<event>
 7    1  0.2991278E-011  0.5052886E+02  0.7816164E-02  0.1300439E+00
        -11   -1    0    0    0    0  0.00000000000E+00  0.00000000000E+00  0.45593999997E+02  0.45594000000E+02  0.51100000000E-03 0.  1.
         11   -1    0    0    0    0 -0.00000000000E+00 -0.00000000000E+00 -0.45593999997E+02  0.45594000000E+02  0.51100000000E-03 0. -1.
    9900012    2    1    2    0    0  0.74051833331E+01 -0.28332742127E+00  0.39978099951E+02  0.50528862155E+02  0.30000007006E+02 0.  0.
         12    1    1    2    0    0 -0.74051833331E+01  0.28332742127E+00 -0.39978099951E+02  0.40659137845E+02  0.00000000000E+00 0. -1.
         11    1    3    3    0    0 -0.77913420541E+00 -0.32197030090E+00 -0.12201129632E+01  0.14830343519E+01  0.51100000000E-03 0. -1.
        -11    1    3    3    0    0  0.91134360650E+01 -0.99792841160E+01  0.34247072022E+02  0.36817153213E+02  0.51100000000E-03 0.  1.
        -12    1    3    3    0    0 -0.92911852640E+00  0.10017926996E+02  0.69511408923E+01  0.12228674590E+02  0.00000000000E+00 0.  1.
</event>
<event>
 7    1  0.2991278E-011  0.5052885E+02  0.7816164E-02  0.1300439E+00
        -11   -1    0    0    0    0  0.00000000000E+00  0.00000000000E+00  0.45593999997E+02  0.45594000000E+02  0.51100000000E-03 0. -1.
         11   -1    0    0    0    0 -0.00000000000E+00 -0.00000000000E+00 -0.45593999997E+02  0.45594000000E+02  0.51100000000E-03 0.  1.
    9900012    2    1    2    0    0  0.16506903643E+02 -0.95745611476E+01 -0.35902869497E+02  0.50528854324E+02  0.29999983202E+02 0.  0.
         12    1    1    2    0    0 -0.16506903643E+02  0.95745611476E+01  0.35902869497E+02  0.40659145676E+02  0.00000000000E+00 0. -1.
         11    1    3    3    0    0  0.10081665019E+02 -0.14877276414E+02 -0.83143099702E+01  0.19801542202E+02  0.51100000000E-03 0. -1.
        -11    1    3    3    0    0  0.40553396346E+01  0.24098206841E+01 -0.26378121196E+02  0.26796609737E+02  0.51100000000E-03 0.  1.
        -12    1    3    3    0    0  0.23698989896E+01  0.28928945821E+01 -0.12104383302E+01  0.39307023845E+01  0.00000000000E+00 0.  1.
</event>
<event>
 7    1  0.2991278E-011  0.5052886E+02  0.7816164E-02  0.1300439E+00
        -11   -1    0    0    0    0  0.00000000000E+00  0.00000000000E+00  0.45593999997E+02  0.45594000000E+02  0.51100000000E-03 0. -1.
         11   -1    0    0    0    0 -0.00000000000E+00 -0.00000000000E+00 -0.45593999997E+02  0.45594000000E+02  0.51100000000E-03 0.  1.
    9900012    2    1    2    0    0 -0.75255213379E+01  0.19834743340E+02 -0.34685949439E+02  0.50528860766E+02  0.30000002784E+02 0.  0.
         12    1    1    2    0    0  0.75255213379E+01 -0.19834743340E+02  0.34685949439E+02  0.40659139234E+02  0.00000000000E+00 0. -1.
         11    1    3    3    0    0  0.13127678752E+01  0.63479866841E+01 -0.39624305607E+01  0.75974436915E+01  0.51100000000E-03 0.  1.
        -11    1    3    3    0    0 -0.75479715139E+01 -0.15370564985E+01  0.10376573055E+01  0.77724609744E+01  0.51100000000E-03 0. -1.
        -12    1    3    3    0    0 -0.12903176992E+01  0.15023813154E+02 -0.31761176184E+02  0.35158956100E+02  0.00000000000E+00 0.  1.
</event>
<event>
 7    1  0.2991278E-011  0.5052886E+02  0.7816164E-02  0.1300439E+00
        -11   -1    0    0    0    0  0.00000000000E+00  0.00000000000E+00  0.45593999997E+02  0.45594000000E+02  0.51100000000E-03 0.  1.
         11   -1    0    0    0    0 -0.00000000000E+00 -0.00000000000E+00 -0.45593999997E+02  0.45594000000E+02  0.51100000000E-03 0. -1.
    9900012    2    1    2    0    0  0.28033864354E+02 -0.24634838766E+02 -0.16136691933E+02  0.50528860091E+02  0.30000000733E+02 0.  0.
         12    1    1    2    0    0 -0.28033864354E+02  0.24634838766E+02  0.16136691933E+02  0.40659139909E+02  0.00000000000E+00 0. -1.
         11    1    3    3    0    0 -0.17231901529E+01  0.38966154640E+01 -0.31790152050E-01  0.42607519586E+01  0.51100000000E-03 0. -1.
        -11    1    3    3    0    0  0.12401945119E+02 -0.14065377478E+02 -0.40720928033E+00  0.18756569675E+02  0.51100000000E-03 0.  1.
         12    1    3    3    0    0  0.17355109388E+02 -0.14466076752E+02 -0.15697692500E+02  0.27511538457E+02  0.00000000000E+00 0. -1.
</event>
<event>
 7    1  0.3878049E-011  0.5052886E+02  0.7816164E-02  0.1300439E+00
        -11   -1    0    0    0    0  0.00000000000E+00  0.00000000000E+00  0.45593999997E+02  0.45594000000E+02  0.51100000000E-03 0. -1.
         11   -1    0    0    0    0 -0.00000000000E+00 -0.00000000000E+00 -0.45593999997E+02  0.45594000000E+02  0.51100000000E-03 0.  1.
    9900012    2    1    2    0    0  0.11461689709E+02  0.30684992874E+01 -0.38889329216E+02  0.50528856554E+02  0.29999989982E+02 0.  0.
         12    1    1    2    0    0 -0.11461689709E+02 -0.30684992874E+01  0.38889329216E+02  0.40659143446E+02  0.00000000000E+00 0. -1.
         11    1    3    3    0    0  0.40692957900E+01 -0.33893616407E+01  0.15819627564E+01  0.55271644612E+01  0.51100000000E-03 0. -1.
        -11    1    3    3    0    0 -0.25344370664E+01  0.18636726948E+01 -0.28929603139E+02  0.29100147512E+02  0.51100000000E-03 0.  1.
        -12    1    3    3    0    0  0.99268309852E+01  0.45941882333E+01 -0.11541688834E+02  0.15901544581E+02  0.00000000000E+00 0.  1.
</event>
<event>
 7    1  0.2991278E-011  0.5052888E+02  0.7816164E-02  0.1300439E+00
        -11   -1    0    0    0    0  0.00000000000E+00  0.00000000000E+00  0.45593999997E+02  0.45594000000E+02  0.51100000000E-03 0.  1.
         11   -1    0    0    0    0 -0.00000000000E+00 -0.00000000000E+00 -0.45593999997E+02  0.45594000000E+02  0.51100000000E-03 0. -1.
    9900012    2    1    2    0    0 -0.26019599989E+02 -0.13018481144E+02  0.28401830324E+02  0.50528875555E+02  0.30000047736E+02 0.  0.
         12    1    1    2    0    0  0.26019599989E+02  0.13018481144E+02 -0.28401830324E+02  0.40659124445E+02  0.00000000000E+00 0. -1.
         11    1    3    3    0    0 -0.22305304963E+02 -0.29435109060E+01  0.88778184127E+01  0.24186908566E+02  0.51100000000E-03 0. -1.
        -11    1    3    3    0    0 -0.69730317602E+01 -0.11595101915E+02  0.17787667883E+02  0.22348840895E+02  0.51100000000E-03 0.  1.
         12    1    3    3    0    0  0.32587367341E+01  0.15201316771E+01  0.17363440282E+01  0.39931260939E+01  0.00000000000E+00 0. -1.
</event>
<event>
 7    1  0.2991278E-011  0.5052886E+02  0.7816164E-02  0.1300439E+00
        -11   -1    0    0    0    0  0.00000000000E+00  0.00000000000E+00  0.45593999997E+02  0.45594000000E+02  0.51100000000E-03 0.  1.
         11   -1    0    0    0    0 -0.00000000000E+00 -0.00000000000E+00 -0.45593999997E+02  0.45594000000E+02  0.51100000000E-03 0. -1.
    9900012    2    1    2    0    0  0.40465350816E+02 -0.29075210328E+01  0.26957507430E+01  0.50528863668E+02  0.30000011605E+02 0.  0.
         12    1    1    2    0    0 -0.40465350816E+02  0.29075210328E+01 -0.26957507430E+01  0.40659136332E+02  0.00000000000E+00 0. -1.
         11    1    3    3    0    0  0.20603918809E+02 -0.29112398557E+01 -0.44920733786E+01  0.21287919374E+02  0.51100000000E-03 0. -1.
        -11    1    3    3    0    0  0.48379839854E+01  0.27916053493E+01  0.11987470977E+02  0.13224923824E+02  0.51100000000E-03 0.  1.
        -12    1    3    3    0    0  0.15023448022E+02 -0.27878865265E+01 -0.47996468554E+01  0.16016020469E+02  0.00000000000E+00 0.  1.
</event>
<event>
 7    1  0.2991278E-011  0.5052886E+02  0.7816164E-02  0.1300439E+00
        -11   -1    0    0    0    0  0.00000000000E+00  0.00000000000E+00  0.45593999997E+02  0.45594000000E+02  0.51100000000E-03 0. -1.
         11   -1    0    0    0    0 -0.00000000000E+00 -0.00000000000E+00 -0.45593999997E+02  0.45594000000E+02  0.51100000000E-03 0.  1.
    9900012    2    1    2    0    0 -0.10037479879E+02 -0.36570499239E+02 -0.14663323444E+02  0.50528862388E+02  0.30000007716E+02 0.  0.
         12    1    1    2    0    0  0.10037479879E+02  0.36570499239E+02  0.14663323444E+02  0.40659137612E+02  0.00000000000E+00 0. -1.
         11    1    3    3    0    0 -0.79070254029E+01  0.21044853834E+01 -0.15599054918E+01  0.83296587478E+01  0.51100000000E-03 0. -1.
        -11    1    3    3    0    0 -0.25018557238E+00 -0.18025996016E+02 -0.11542160517E+02  0.21406087799E+02  0.51100000000E-03 0.  1.
         12    1    3    3    0    0 -0.18802689039E+01 -0.20648988606E+02 -0.15612574344E+01  0.20793115841E+02  0.00000000000E+00 0. -1.
</event>
<event>
 7    1  0.2991278E-011  0.5052886E+02  0.7816164E-02  0.1300439E+00
        -11   -1    0    0    0    0  0.00000000000E+00  0.00000000000E+00  0.45593999997E+02  0.45594000000E+02  0.51100000000E-03 0.  1.
         11   -1    0    0    0    0 -0.00000000000E+00 -0.00000000000E+00 -0.45593999997E+02  0.45594000000E+02  0.51100000000E-03 0. -1.
    9900012    2    1    2    0    0  0.25878393395E+02  0.20354062166E+02  0.23857639309E+02  0.50528855336E+02  0.29999986280E+02 0.  0.
         12    1    1    2    0    0 -0.25878393395E+02 -0.20354062166E+02 -0.23857639309E+02  0.40659144664E+02  0.00000000000E+00 0. -1.
         11    1    3    3    0    0  0.25107533558E+00  0.12692832669E+01 -0.54999824483E+01  0.56501261958E+01  0.51100000000E-03 0. -1.
        -11    1    3    3    0    0  0.49924099798E+01  0.64660748688E+01  0.14056294905E+02  0.16257727650E+02  0.51100000000E-03 0.  1.
         12    1    3    3    0    0  0.20634908080E+02  0.12618704030E+02  0.15301326853E+02  0.28621001491E+02  0.00000000000E+00 0. -1.
</event>
<event>
 7    1  0.2991278E-011  0.5052887E+02  0.7816164E-02  0.1300439E+00
        -11   -1    0    0    0    0  0.00000000000E+00  0.00000000000E+00  0.45593999997E+02  0.45594000000E+02  0.51100000000E-03 0.  1.
         11   -1    0    0    0    0 -0.00000000000E+00 -0.00000000000E+00 -0.45593999997E+02  0.45594000000E+02  0.51100000000E-03 0. -1.
    9900012    2    1    2    0    0 -0.91081728417E+00 -0.21099911500E+02  0.34743767404E+02  0.50528865395E+02  0.30000016854E+02 0.  0.
         12    1    1    2    0    0  0.91081728417E+00  0.21099911500E+02 -0.34743767404E+02  0.40659134605E+02  0.00000000000E+00 0. -1.
         11    1    3    3    0    0 -0.10857577118E+02 -0.35588868465E+01  0.78664232506E+01  0.13872031988E+02  0.51100000000E-03 0. -1.
        -11    1    3    3    0    0  0.26184788304E+01 -0.17364728407E+02  0.19833018336E+02  0.26490353727E+02  0.51100000000E-03 0.  1.
        -12    1    3    3    0    0  0.73282810039E+01 -0.17629624647E+00  0.70443258175E+01  0.10166479679E+02  0.00000000000E+00 0.  1.
</event>
<event>
 7    1  0.2991278E-011  0.5052889E+02  0.7816164E-02  0.1300439E+00
        -11   -1    0    0    0    0  0.00000000000E+00  0.00000000000E+00  0.45593999997E+02  0.45594000000E+02  0.51100000000E-03 0.  1.
         11   -1    0    0    0    0 -0.00000000000E+00 -0.00000000000E+00 -0.45593999997E+02  0.45594000000E+02  0.51100000000E-03 0. -1.
    9900012    2    1    2    0    0  0.20646612081E+02  0.17881414010E+02  0.30118698800E+02  0.50528885710E+02  0.30000078604E+02 0.  0.
         12    1    1    2    0    0 -0.20646612081E+02 -0.17881414010E+02 -0.30118698800E+02  0.40659114290E+02  0.00000000000E+00 0. -1.
         11    1    3    3    0    0 -0.20013953650E+01  0.67601522178E+01 -0.31897983308E+01  0.77382204070E+01  0.51100000000E-03 0. -1.
        -11    1    3    3    0    0  0.48699806293E+01  0.67128621426E+01  0.13214110805E+02  0.15601024136E+02  0.51100000000E-03 0.  1.
         12    1    3    3    0    0  0.17778026817E+02  0.44083996499E+01  0.20094386326E+02  0.27189641167E+02  0.00000000000E+00 0. -1.
</event>
<event>
 7    1  0.2991278E-011  0.5052887E+02  0.7816164E-02  0.1300439E+00
        -11   -1    0    0    0    0  0.00000000000E+00  0.00000000000E+00  0.45593999997E+02  0.45594000000E+02  0.51100000000E-03 0.  1.
         11   -1    0    0    0    0 -0.00000000000E+00 -0.00000000000E+00 -0.45593999997E+02  0.45594000000E+02  0.51100000000E-03 0. -1.
    9900012    2    1    2    0    0  0.18731824804E+02 -0.10514889418E+02  0.34521306275E+02  0.50528871297E+02  0.30000034794E+02 0.  0.
         12    1    1    2    0    0 -0.18731824804E+02  0.10514889418E+02 -0.34521306275E+02  0.40659128703E+02  0.00000000000E+00 0. -1.
         11    1    3    3    0    0 -0.60755452573E+01 -0.25529806022E+01  0.17926150184E+02  0.19099131415E+02  0.51100000000E-03 0. -1.
        -11    1    3    3    0    0  0.22184535351E+02 -0.55799157802E+01  0.15791277317E+02  0.27796645633E+02  0.51100000000E-03 0.  1.
         12    1    3    3    0    0  0.26228347100E+01 -0.23819930359E+01  0.80387877377E+00  0.36330942489E+01  0.00000000000E+00 0. -1.
</event>
<event>
 7    1  0.2991278E-011  0.5052888E+02  0.7816164E-02  0.1300439E+00
        -11   -1    0    0    0    0  0.00000000000E+00  0.00000000000E+00  0.45593999997E+02  0.45594000000E+02  0.51100000000E-03 0. -1.
         11   -1    0    0    0    0 -0.00000000000E+00 -0.00000000000E+00 -0.45593999997E+02  0.45594000000E+02  0.51100000000E-03 0.  1.
    9900012    2    1    2    0    0 -0.31414291266E+02  0.69146182067E+01 -0.24869541662E+02  0.50528883640E+02  0.30000072313E+02 0.  0.
         12    1    1    2    0    0  0.31414291266E+02 -0.69146182067E+01  0.24869541662E+02  0.40659116360E+02  0.00000000000E+00 0. -1.
         11    1    3    3    0    0 -0.13759245890E+02 -0.10822666810E+02 -0.49455745123E+01  0.18190812843E+02  0.51100000000E-03 0. -1.
        -11    1    3    3    0    0 -0.14365667776E+02  0.15597805821E+02 -0.18570183731E+02  0.28187154542E+02  0.51100000000E-03 0.  1.
         12    1    3    3    0    0 -0.32893775993E+01  0.21394791959E+01 -0.13537834184E+01  0.41509162560E+01  0.00000000000E+00 0. -1.
</event>
<event>
 7    1  0.2991278E-011  0.5052884E+02  0.7816164E-02  0.1300439E+00
        -11   -1    0    0    0    0  0.00000000000E+00  0.00000000000E+00  0.45593999997E+02  0.45594000000E+02  0.51100000000E-03 0. -1.
         11   -1    0    0    0    0 -0.00000000000E+00 -0.00000000000E+00 -0.45593999997E+02  0.45594000000E+02  0.51100000000E-03 0.  1.
    9900012    2    1    2    0    0 -0.83777503971E+01 -0.35314329154E+02 -0.18327002657E+02  0.50528836559E+02  0.29999929206E+02 0.  0.
         12    1    1    2    0    0  0.83777503971E+01  0.35314329154E+02  0.18327002657E+02  0.40659163441E+02  0.00000000000E+00 0. -1.
         11    1    3    3    0    0 -0.13888552319E+02 -0.15934307310E+02 -0.38991298994E+01  0.21494121270E+02  0.51100000000E-03 0. -1.
        -11    1    3    3    0    0  0.18588939528E+01 -0.15457672464E+02 -0.17032578678E+02  0.23076045186E+02  0.51100000000E-03 0.  1.
        -12    1    3    3    0    0  0.36519079688E+01 -0.39223493796E+01  0.26047059203E+01  0.59586701032E+01  0.00000000000E+00 0.  1.
</event>
<event>
 7    1  0.2991278E-011  0.5052886E+02  0.7816164E-02  0.1300439E+00
        -11   -1    0    0    0    0  0.00000000000E+00  0.00000000000E+00  0.45593999997E+02  0.45594000000E+02  0.51100000000E-03 0. -1.
         11   -1    0    0    0    0 -0.00000000000E+00 -0.00000000000E+00 -0.45593999997E+02  0.45594000000E+02  0.51100000000E-03 0.  1.
    9900012    2    1    2    0    0 -0.30549428619E+02  0.19316298732E+02 -0.18621998501E+02  0.50528858176E+02  0.29999994913E+02 0.  0.
         12    1    1    2    0    0  0.30549428619E+02 -0.19316298732E+02  0.18621998501E+02  0.40659141824E+02  0.00000000000E+00 0. -1.
         11    1    3    3    0    0 -0.40516688967E+00  0.35231900631E+01  0.20512848410E+01  0.40969254556E+01  0.51100000000E-03 0. -1.
        -11    1    3    3    0    0 -0.24826462380E+02  0.16844808115E+01 -0.64536397109E+01  0.25706811854E+02  0.51100000000E-03 0.  1.
        -12    1    3    3    0    0 -0.53177993495E+01  0.14108627858E+02 -0.14219643631E+02  0.20725120867E+02  0.00000000000E+00 0.  1.
</event>
<event>
 7    1  0.2991278E-011  0.5052885E+02  0.7816164E-02  0.1300439E+00
        -11   -1    0    0    0    0  0.00000000000E+00  0.00000000000E+00  0.45593999997E+02  0.45594000000E+02  0.51100000000E-03 0. -1.
         11   -1    0    0    0    0 -0.00000000000E+00 -0.00000000000E+00 -0.45593999997E+02  0.45594000000E+02  0.51100000000E-03 0.  1.
    9900012    2    1    2    0    0  0.37781769038E+02 -0.10519913570E+02 -0.10725457857E+02  0.50528854664E+02  0.29999984238E+02 0.  0.
         12    1    1    2    0    0 -0.37781769038E+02  0.10519913570E+02  0.10725457857E+02  0.40659145336E+02  0.00000000000E+00 0. -1.
         11    1    3    3    0    0  0.40438188795E+01 -0.10413216887E+02 -0.59845078719E+01  0.12672880170E+02  0.51100000000E-03 0. -1.
        -11    1    3    3    0    0  0.28303353327E+02  0.18080164352E+00 -0.10258922248E+02  0.30105779923E+02  0.51100000000E-03 0.  1.
         12    1    3    3    0    0  0.54345968313E+01 -0.28749832717E+00  0.55179722634E+01  0.77501945721E+01  0.00000000000E+00 0. -1.
</event>
<event>
 7    1  0.2991278E-011  0.5052886E+02  0.7816164E-02  0.1300439E+00
        -11   -1    0    0    0    0  0.00000000000E+00  0.00000000000E+00  0.45593999997E+02  0.45594000000E+02  0.51100000000E-03 0.  1.
         11   -1    0    0    0    0 -0.00000000000E+00 -0.00000000000E+00 -0.45593999997E+02  0.45594000000E+02  0.51100000000E-03 0. -1.
    9900012    2    1    2    0    0  0.22980384690E+02 -0.16465159345E+02  0.29222700475E+02  0.50528858644E+02  0.29999996334E+02 0.  0.
         12    1    1    2    0    0 -0.22980384690E+02  0.16465159345E+02 -0.29222700475E+02  0.40659141356E+02  0.00000000000E+00 0. -1.
         11    1    3    3    0    0  0.18482645072E+01  0.48439516266E+01  0.89456837296E+01  0.10339497410E+02  0.51100000000E-03 0. -1.
        -11    1    3    3    0    0  0.31299039795E+01 -0.13983534229E+02  0.41063989865E+01  0.14906308777E+02  0.51100000000E-03 0.  1.
        -12    1    3    3    0    0  0.18002216203E+02 -0.73255767425E+01  0.16170617759E+02  0.25283052457E+02  0.00000000000E+00 0.  1.
</event>
<event>
 7    1  0.2991278E-011  0.5052886E+02  0.7816164E-02  0.1300439E+00
        -11   -1    0    0    0    0  0.00000000000E+00  0.00000000000E+00  0.45593999997E+02  0.45594000000E+02  0.51100000000E-03 0. -1.
         11   -1    0    0    0    0 -0.00000000000E+00 -0.00000000000E+00 -0.45593999997E+02  0.45594000000E+02  0.51100000000E-03 0.  1.
    9900012    2    1    2    0    0  0.32051315838E+02  0.45266360999E+01 -0.24604648705E+02  0.50528855651E+02  0.29999987236E+02 0.  0.
         12    1    1    2    0    0 -0.32051315838E+02 -0.45266360999E+01  0.24604648705E+02  0.40659144349E+02  0.00000000000E+00 0. -1.
         11    1    3    3    0    0  0.13749016080E+01  0.44636513325E-01  0.14686890490E+00  0.13834441031E+01  0.51100000000E-03 0. -1.
        -11    1    3    3    0    0  0.14477853205E+02 -0.45834248371E+01  0.32691181236E+01  0.15533935440E+02  0.51100000000E-03 0.  1.
        -12    1    3    3    0    0  0.16198561024E+02  0.90654244237E+01 -0.28020635734E+02  0.33611476108E+02  0.00000000000E+00 0.  1.
</event>
<event>
 7    1  0.2991278E-011  0.5052885E+02  0.7816164E-02  0.1300439E+00
        -11   -1    0    0    0    0  0.00000000000E+00  0.00000000000E+00  0.45593999997E+02  0.45594000000E+02  0.51100000000E-03 0. -1.
         11   -1    0    0    0    0 -0.00000000000E+00 -0.00000000000E+00 -0.45593999997E+02  0.45594000000E+02  0.51100000000E-03 0.  1.
    9900012    2    1    2    0    0 -0.36868752830E+01 -0.32153386647E+02  0.24611641243E+02  0.50528853343E+02  0.29999980222E+02 0.  0.
         12    1    1    2    0    0  0.36868752830E+01  0.32153386647E+02 -0.24611641243E+02  0.40659146657E+02  0.00000000000E+00 0. -1.
         11    1    3    3    0    0  0.25398992123E+01 -0.19961014291E+02 -0.22070982556E+01  0.20242639712E+02  0.51100000000E-03 0.  1.
        -11    1    3    3    0    0 -0.39261245620E+01 -0.10392264521E+02  0.22131301166E+02  0.24763039141E+02  0.51100000000E-03 0. -1.
        -12    1    3    3    0    0 -0.23006499333E+01 -0.18001078346E+01  0.46874383325E+01  0.55231744906E+01  0.00000000000E+00 0.  1.
</event>
<event>
 7    1  0.2991278E-011  0.5052885E+02  0.7816164E-02  0.1300439E+00
        -11   -1    0    0    0    0  0.00000000000E+00  0.00000000000E+00  0.45593999997E+02  0.45594000000E+02  0.51100000000E-03 0. -1.
         11   -1    0    0    0    0 -0.00000000000E+00 -0.00000000000E+00 -0.45593999997E+02  0.45594000000E+02  0.51100000000E-03 0.  1.
    9900012    2    1    2    0    0 -0.32099220815E+02 -0.24105363467E+02 -0.64604668881E+01  0.50528853954E+02  0.29999982078E+02 0.  0.
         12    1    1    2    0    0  0.32099220815E+02  0.24105363467E+02  0.64604668881E+01  0.40659146046E+02  0.00000000000E+00 0. -1.
         11    1    3    3    0    0 -0.15427037120E+01 -0.74724938771E-01  0.24965094549E-01  0.15447142378E+01  0.51100000000E-03 0. -1.
        -11    1    3    3    0    0 -0.15623252270E+02  0.45762166690E+01 -0.24408010217E+01  0.16461630550E+02  0.51100000000E-03 0.  1.
        -12    1    3    3    0    0 -0.14933264833E+02 -0.28606855197E+02 -0.40446309609E+01  0.32522509166E+02  0.00000000000E+00 0.  1.
</event>
<event>
 7    1  0.2991278E-011  0.5052886E+02  0.7816164E-02  0.1300439E+00
        -11   -1    0    0    0    0  0.00000000000E+00  0.00000000000E+00  0.45593999997E+02  0.45594000000E+02  0.51100000000E-03 0.  1.
         11   -1    0    0    0    0 -0.00000000000E+00 -0.00000000000E+00 -0.45593999997E+02  0.45594000000E+02  0.51100000000E-03 0. -1.
    9900012    2    1    2    0    0  0.26327370548E+02 -0.24765332389E+02  0.18620235620E+02  0.50528864460E+02  0.30000014014E+02 0.  0.
         12    1    1    2    0    0 -0.26327370548E+02  0.24765332389E+02 -0.18620235620E+02  0.40659135540E+02  0.00000000000E+00 0. -1.
         11    1    3    3    0    0  0.91991260204E+01 -0.14021881002E+02  0.78792486876E-01  0.16770309326E+02  0.51100000000E-03 0. -1.
        -11    1    3    3    0    0  0.52567697044E+01 -0.13234179480E+02  0.15899713861E+02  0.21344274065E+02  0.51100000000E-03 0.  1.
         12    1    3    3    0    0  0.11871474823E+02  0.24907280933E+01  0.26417292714E+01  0.12414281069E+02  0.00000000000E+00 0. -1.
</event>
<event>
 7    1  0.2991278E-011  0.5052886E+02  0.7816164E-02  0.1300439E+00
        -11   -1    0    0    0    0  0.00000000000E+00  0.00000000000E+00  0.45593999997E+02  0.45594000000E+02  0.51100000000E-03 0.  1.
         11   -1    0    0    0    0 -0.00000000000E+00 -0.00000000000E+00 -0.45593999997E+02  0.45594000000E+02  0.51100000000E-03 0. -1.
    9900012    2    1    2    0    0  0.17516525980E+02 -0.10045363921E+02  0.35290612629E+02  0.50528863777E+02  0.30000011937E+02 0.  0.
         12    1    1    2    0    0 -0.17516525980E+02  0.10045363921E+02 -0.35290612629E+02  0.40659136223E+02  0.00000000000E+00 0. -1.
         11    1    3    3    0    0  0.24665648716E+01 -0.12212365625E+02  0.60841546472E+00  0.12473812010E+02  0.51100000000E-03 0. -1.
        -11    1    3    3    0    0  0.35224866074E+01  0.17683995996E+01  0.11600943605E+02  0.12252225995E+02  0.51100000000E-03 0.  1.
         12    1    3    3    0    0  0.11527474501E+02  0.39860210443E+00  0.23081253559E+02  0.25802825772E+02  0.00000000000E+00 0. -1.
</event>
<event>
 7    1  0.2991278E-011  0.5052886E+02  0.7816164E-02  0.1300439E+00
        -11   -1    0    0    0    0  0.00000000000E+00  0.00000000000E+00  0.45593999997E+02  0.45594000000E+02  0.51100000000E-03 0.  1.
         11   -1    0    0    0    0 -0.00000000000E+00 -0.00000000000E+00 -0.45593999997E+02  0.45594000000E+02  0.51100000000E-03 0. -1.
    9900012    2    1    2    0    0  0.30027065473E+02  0.19956139860E+02  0.18796102737E+02  0.50528860103E+02  0.30000000769E+02 0.  0.
         12    1    1    2    0    0 -0.30027065473E+02 -0.19956139860E+02 -0.18796102737E+02  0.40659139897E+02  0.00000000000E+00 0. -1.
         11    1    3    3    0    0  0.10980588799E+02  0.34056618179E+01 -0.28186306430E+01  0.11837083330E+02  0.51100000000E-03 0. -1.
        -11    1    3    3    0    0  0.21310771210E+02  0.18423023838E+02  0.21980359993E+02  0.35730841056E+02  0.51100000000E-03 0.  1.
        -12    1    3    3    0    0 -0.22642945361E+01 -0.18725457954E+01 -0.36562661259E+00  0.29609357173E+01  0.00000000000E+00 0.  1.
</event>
<event>
 7    1  0.2991278E-011  0.5052888E+02  0.7816164E-02  0.1300439E+00
        -11   -1    0    0    0    0  0.00000000000E+00  0.00000000000E+00  0.45593999997E+02  0.45594000000E+02  0.51100000000E-03 0. -1.
         11   -1    0    0    0    0 -0.00000000000E+00 -0.00000000000E+00 -0.45593999997E+02  0.45594000000E+02  0.51100000000E-03 0.  1.
    9900012    2    1    2    0    0 -0.20227175525E+02 -0.51233715910E+01 -0.34896657245E+02  0.50528877370E+02  0.30000053253E+02 0.  0.
         12    1    1    2    0    0  0.20227175525E+02  0.51233715910E+01  0.34896657245E+02  0.40659122630E+02  0.00000000000E+00 0. -1.
         11    1    3    3    0    0  0.34898834408E+01 -0.83948329640E+01 -0.53960655882E+01  0.10572134648E+02  0.51100000000E-03 0. -1.
        -11    1    3    3    0    0 -0.15173222252E+02 -0.80450389926E-01 -0.26059343430E+02  0.30154975145E+02  0.51100000000E-03 0.  1.
        -12    1    3    3    0    0 -0.85438367137E+01  0.33519117629E+01 -0.34412482277E+01  0.98017675764E+01  0.00000000000E+00 0.  1.
</event>
<event>
 7    1  0.2991278E-011  0.5052886E+02  0.7816164E-02  0.1300439E+00
        -11   -1    0    0    0    0  0.00000000000E+00  0.00000000000E+00  0.45593999997E+02  0.45594000000E+02  0.51100000000E-03 0. -1.
         11   -1    0    0    0    0 -0.00000000000E+00 -0.00000000000E+00 -0.45593999997E+02  0.45594000000E+02  0.51100000000E-03 0.  1.
    9900012    2    1    2    0    0 -0.86121092300E+01 -0.39733659288E+02 -0.48317946627E+00  0.50528861197E+02  0.30000004096E+02 0.  0.
         12    1    1    2    0    0  0.86121092300E+01  0.39733659288E+02  0.48317946627E+00  0.40659138803E+02  0.00000000000E+00 0. -1.
         11    1    3    3    0    0  0.92709592287E+01 -0.61636176239E+01  0.14341638425E+01  0.11224869417E+02  0.51100000000E-03 0. -1.
        -11    1    3    3    0    0 -0.16165814268E+02 -0.33387182392E+02 -0.54636682935E+00  0.37099002898E+02  0.51100000000E-03 0.  1.
         12    1    3    3    0    0 -0.17172541902E+01 -0.18285927168E+00 -0.13709764794E+01  0.22049888830E+01  0.00000000000E+00 0. -1.
</event>
<event>
 7    1  0.2991278E-011  0.5052885E+02  0.7816164E-02  0.1300439E+00
        -11   -1    0    0    0    0  0.00000000000E+00  0.00000000000E+00  0.45593999997E+02  0.45594000000E+02  0.51100000000E-03 0. -1.
         11   -1    0    0    0    0 -0.00000000000E+00 -0.00000000000E+00 -0.45593999997E+02  0.45594000000E+02  0.51100000000E-03 0.  1.
    9900012    2    1    2    0    0  0.38289252972E+02  0.11482301199E+02 -0.74334620778E+01  0.50528849832E+02  0.29999969549E+02 0.  0.
         12    1    1    2    0    0 -0.38289252972E+02 -0.11482301199E+02  0.74334620778E+01  0.40659150168E+02  0.00000000000E+00 0. -1.
         11    1    3    3    0    0  0.23253245116E+01 -0.42574796940E+00  0.26981105586E+01  0.35872268210E+01  0.51100000000E-03 0. -1.
        -11    1    3    3    0    0  0.32633651715E+02  0.38881773724E+01 -0.15907881812E+02  0.36512105548E+02  0.51100000000E-03 0.  1.
        -12    1    3    3    0    0  0.33302767452E+01  0.80198717959E+01  0.57763091756E+01  0.10429517463E+02  0.00000000000E+00 0.  1.
</event>
<event>
 7    1  0.2991278E-011  0.5052886E+02  0.7816164E-02  0.1300439E+00
        -11   -1    0    0    0    0  0.00000000000E+00  0.00000000000E+00  0.45593999997E+02  0.45594000000E+02  0.51100000000E-03 0.  1.
         11   -1    0    0    0    0 -0.00000000000E+00 -0.00000000000E+00 -0.45593999997E+02  0.45594000000E+02  0.51100000000E-03 0. -1.
    9900012    2    1    2    0    0 -0.35655930242E+02 -0.36341570357E+01  0.19199293491E+02  0.50528864134E+02  0.30000013022E+02 0.  0.
         12    1    1    2    0    0  0.35655930242E+02  0.36341570357E+01 -0.19199293491E+02  0.40659135866E+02  0.00000000000E+00 0. -1.
         11    1    3    3    0    0 -0.19485632671E+01 -0.86720143652E+01  0.44813725335E+01  0.99540661040E+01  0.51100000000E-03 0. -1.
        -11    1    3    3    0    0 -0.34533489224E+02  0.19437437171E+01  0.13089816050E+02  0.36982202505E+02  0.51100000000E-03 0.  1.
        -12    1    3    3    0    0  0.82612224906E+00  0.30941136124E+01  0.16281049073E+01  0.35925955250E+01  0.00000000000E+00 0.  1.
</event>
<event>
 7    1  0.2991278E-011  0.5052886E+02  0.7816164E-02  0.1300439E+00
        -11   -1    0    0    0    0  0.00000000000E+00  0.00000000000E+00  0.45593999997E+02  0.45594000000E+02  0.51100000000E-03 0.  1.
         11   -1    0    0    0    0 -0.00000000000E+00 -0.00000000000E+00 -0.45593999997E+02  0.45594000000E+02  0.51100000000E-03 0. -1.
    9900012    2    1    2    0    0 -0.19687667990E+02  0.15570887267E+02  0.31986070346E+02  0.50528862068E+02  0.30000006741E+02 0.  0.
         12    1    1    2    0    0  0.19687667990E+02 -0.15570887267E+02 -0.31986070346E+02  0.40659137932E+02  0.00000000000E+00 0. -1.
         11    1    3    3    0    0 -0.66272414903E+01  0.17892282849E+02  0.14228548472E+02  0.23801380363E+02  0.51100000000E-03 0. -1.
        -11    1    3    3    0    0 -0.33255527677E+01 -0.79352406066E+01  0.61829745931E+01  0.10595117733E+02  0.51100000000E-03 0.  1.
        -12    1    3    3    0    0 -0.97348737323E+01  0.56138450251E+01  0.11574547281E+02  0.16132363971E+02  0.00000000000E+00 0.  1.
</event>
<event>
 7    1  0.2991278E-011  0.5052886E+02  0.7816164E-02  0.1300439E+00
        -11   -1    0    0    0    0  0.00000000000E+00  0.00000000000E+00  0.45593999997E+02  0.45594000000E+02  0.51100000000E-03 0.  1.
         11   -1    0    0    0    0 -0.00000000000E+00 -0.00000000000E+00 -0.45593999997E+02  0.45594000000E+02  0.51100000000E-03 0. -1.
    9900012    2    1    2    0    0 -0.12070711733E+01 -0.14086701751E+01  0.40616798598E+02  0.50528859566E+02  0.29999999136E+02 0.  0.
         12    1    1    2    0    0  0.12070711733E+01  0.14086701751E+01 -0.40616798598E+02  0.40659140434E+02  0.00000000000E+00 0. -1.
         11    1    3    3    0    0 -0.12405890939E+01 -0.61188848563E+01  0.30702675510E+02  0.31331040470E+02  0.51100000000E-03 0. -1.
        -11    1    3    3    0    0  0.38300702011E+01  0.92566840586E+01  0.38815583790E+01  0.10743469329E+02  0.51100000000E-03 0.  1.
         12    1    3    3    0    0 -0.37965522804E+01 -0.45464693774E+01  0.60325647091E+01  0.84543497673E+01  0.00000000000E+00 0. -1.
</event>
<event>
 7    1  0.2991278E-011  0.5052886E+02  0.7816164E-02  0.1300439E+00
        -11   -1    0    0    0    0  0.00000000000E+00  0.00000000000E+00  0.45593999997E+02  0.45594000000E+02  0.51100000000E-03 0.  1.
         11   -1    0    0    0    0 -0.00000000000E+00 -0.00000000000E+00 -0.45593999997E+02  0.45594000000E+02  0.51100000000E-03 0. -1.
    9900012    2    1    2    0    0  0.39217223824E+02 -0.51095433601E+01  0.94375650898E+01  0.50528859420E+02  0.29999998694E+02 0.  0.
         12    1    1    2    0    0 -0.39217223824E+02  0.51095433601E+01 -0.94375650898E+01  0.40659140580E+02  0.00000000000E+00 0. -1.
         11    1    3    3    0    0  0.28486804120E+02  0.59630775452E+01  0.80869715050E+01  0.30206876885E+02  0.51100000000E-03 0.  1.
        -11    1    3    3    0    0  0.92073993636E+01 -0.55571445367E+01 -0.49258104548E+01  0.11828848944E+02  0.51100000000E-03 0. -1.
         12    1    3    3    0    0  0.15230203410E+01 -0.55154763686E+01  0.62764040395E+01  0.84931335913E+01  0.00000000000E+00 0. -1.
</event>
<event>
 7    1  0.2991278E-011  0.5052885E+02  0.7816164E-02  0.1300439E+00
        -11   -1    0    0    0    0  0.00000000000E+00  0.00000000000E+00  0.45593999997E+02  0.45594000000E+02  0.51100000000E-03 0.  1.
         11   -1    0    0    0    0 -0.00000000000E+00 -0.00000000000E+00 -0.45593999997E+02  0.45594000000E+02  0.51100000000E-03 0. -1.
    9900012    2    1    2    0    0 -0.12920073662E+02 -0.24432072220E+02  0.29821329759E+02  0.50528853858E+02  0.29999981786E+02 0.  0.
         12    1    1    2    0    0  0.12920073662E+02  0.24432072220E+02 -0.29821329759E+02  0.40659146142E+02  0.00000000000E+00 0. -1.
         11    1    3    3    0    0  0.31415656452E+00 -0.32407690723E+01  0.21076243570E+02  0.21326258974E+02  0.51100000000E-03 0. -1.
        -11    1    3    3    0    0 -0.10333529338E+02 -0.57231330787E+01  0.16058689887E+01  0.11921195254E+02  0.51100000000E-03 0.  1.
         12    1    3    3    0    0 -0.29007008887E+01 -0.15468170069E+02  0.71392172008E+01  0.17281399630E+02  0.00000000000E+00 0. -1.
</event>
<event>
 7    1  0.2991278E-011  0.5052886E+02  0.7816164E-02  0.1300439E+00
        -11   -1    0    0    0    0  0.00000000000E+00  0.00000000000E+00  0.45593999997E+02  0.45594000000E+02  0.51100000000E-03 0.  1.
         11   -1    0    0    0    0 -0.00000000000E+00 -0.00000000000E+00 -0.45593999997E+02  0.45594000000E+02  0.51100000000E-03 0. -1.
    9900012    2    1    2    0    0 -0.12173329011E+02 -0.23060728925E+02  0.31195805883E+02  0.50528862498E+02  0.30000008049E+02 0.  0.
         12    1    1    2    0    0  0.12173329011E+02  0.23060728925E+02 -0.31195805883E+02  0.40659137502E+02  0.00000000000E+00 0. -1.
         11    1    3    3    0    0 -0.74845074955E+01  0.27087758391E+01  0.47374950751E+01  0.92627846161E+01  0.51100000000E-03 0. -1.
        -11    1    3    3    0    0 -0.11010415725E+02 -0.19252993932E+02  0.15618506638E+02  0.27126459033E+02  0.51100000000E-03 0.  1.
         12    1    3    3    0    0  0.63215942095E+01 -0.65165108314E+01  0.10839804169E+02  0.14139618849E+02  0.00000000000E+00 0. -1.
</event>
<event>
 7    1  0.2991278E-011  0.5052885E+02  0.7816164E-02  0.1300439E+00
        -11   -1    0    0    0    0  0.00000000000E+00  0.00000000000E+00  0.45593999997E+02  0.45594000000E+02  0.51100000000E-03 0.  1.
         11   -1    0    0    0    0 -0.00000000000E+00 -0.00000000000E+00 -0.45593999997E+02  0.45594000000E+02  0.51100000000E-03 0. -1.
    9900012    2    1    2    0    0 -0.10307830656E+02  0.36121346628E+02  0.15561588356E+02  0.50528854814E+02  0.29999984694E+02 0.  0.
         12    1    1    2    0    0  0.10307830656E+02 -0.36121346628E+02 -0.15561588356E+02  0.40659145186E+02  0.00000000000E+00 0. -1.
         11    1    3    3    0    0 -0.64330525290E+01  0.46943314483E+01 -0.21992491827E+01  0.82618163752E+01  0.51100000000E-03 0. -1.
        -11    1    3    3    0    0  0.77730304074E+01  0.22116436577E+02  0.10879713405E+02  0.25844243704E+02  0.51100000000E-03 0.  1.
        -12    1    3    3    0    0 -0.11647808535E+02  0.93105786024E+01  0.68811241342E+01  0.16422794736E+02  0.00000000000E+00 0.  1.
</event>
<event>
 7    1  0.2991278E-011  0.5052885E+02  0.7816164E-02  0.1300439E+00
        -11   -1    0    0    0    0  0.00000000000E+00  0.00000000000E+00  0.45593999997E+02  0.45594000000E+02  0.51100000000E-03 0.  1.
         11   -1    0    0    0    0 -0.00000000000E+00 -0.00000000000E+00 -0.45593999997E+02  0.45594000000E+02  0.51100000000E-03 0. -1.
    9900012    2    1    2    0    0 -0.31832933730E+02  0.23572874310E+02  0.91733363936E+01  0.50528853751E+02  0.29999981462E+02 0.  0.
         12    1    1    2    0    0  0.31832933730E+02 -0.23572874310E+02 -0.91733363936E+01  0.40659146249E+02  0.00000000000E+00 0. -1.
         11    1    3    3    0    0 -0.10942252887E+02 -0.65041609392E+00  0.11024596554E+01  0.11016866928E+02  0.51100000000E-03 0. -1.
        -11    1    3    3    0    0  0.81180236101E+00  0.14338012329E+02  0.60348510196E+01  0.15577453184E+02  0.51100000000E-03 0.  1.
        -12    1    3    3    0    0 -0.21702483204E+02  0.98852780749E+01  0.20360257186E+01  0.23934533640E+02  0.00000000000E+00 0.  1.
</event>
<event>
 7    1  0.2991278E-011  0.5052886E+02  0.7816164E-02  0.1300439E+00
        -11   -1    0    0    0    0  0.00000000000E+00  0.00000000000E+00  0.45593999997E+02  0.45594000000E+02  0.51100000000E-03 0.  1.
         11   -1    0    0    0    0 -0.00000000000E+00 -0.00000000000E+00 -0.45593999997E+02  0.45594000000E+02  0.51100000000E-03 0. -1.
    9900012    2    1    2    0    0  0.12731778021E+02  0.20888426226E+02  0.32476780828E+02  0.50528858165E+02  0.29999994880E+02 0.  0.
         12    1    1    2    0    0 -0.12731778021E+02 -0.20888426226E+02 -0.32476780828E+02  0.40659141835E+02  0.00000000000E+00 0. -1.
         11    1    3    3    0    0  0.11630478852E+02  0.11085732129E+00  0.11134409888E+02  0.16101410233E+02  0.51100000000E-03 0. -1.
        -11    1    3    3    0    0 -0.20843126383E+01  0.49730598658E+01 -0.22579741163E+01  0.58458644334E+01  0.51100000000E-03 0.  1.
        -12    1    3    3    0    0  0.31856118078E+01  0.15804509039E+02  0.23600345056E+02  0.28581583499E+02  0.00000000000E+00 0.  1.
</event>
<event>
 7    1  0.2991278E-011  0.5052885E+02  0.7816164E-02  0.1300439E+00
        -11   -1    0    0    0    0  0.00000000000E+00  0.00000000000E+00  0.45593999997E+02  0.45594000000E+02  0.51100000000E-03 0.  1.
         11   -1    0    0    0    0 -0.00000000000E+00 -0.00000000000E+00 -0.45593999997E+02  0.45594000000E+02  0.51100000000E-03 0. -1.
    9900012    2    1    2    0    0 -0.67030695262E+01  0.25957395937E+02  0.30568750898E+02  0.50528854948E+02  0.29999985099E+02 0.  0.
         12    1    1    2    0    0  0.67030695262E+01 -0.25957395937E+02 -0.30568750898E+02  0.40659145052E+02  0.00000000000E+00 0. -1.
         11    1    3    3    0    0 -0.17023666649E+02  0.13179199621E+02  0.15336164941E+02  0.26432829667E+02  0.51100000000E-03 0. -1.
        -11    1    3    3    0    0  0.20594152617E+01  0.93717809286E+01  0.64159547632E+01  0.11542787565E+02  0.51100000000E-03 0.  1.
         12    1    3    3    0    0  0.82611818611E+01  0.34064153874E+01  0.88166311939E+01  0.12553237716E+02  0.00000000000E+00 0. -1.
</event>
<event>
 7    1  0.2991278E-011  0.5052885E+02  0.7816164E-02  0.1300439E+00
        -11   -1    0    0    0    0  0.00000000000E+00  0.00000000000E+00  0.45593999997E+02  0.45594000000E+02  0.51100000000E-03 0.  1.
         11   -1    0    0    0    0 -0.00000000000E+00 -0.00000000000E+00 -0.45593999997E+02  0.45594000000E+02  0.51100000000E-03 0. -1.
    9900012    2    1    2    0    0 -0.41444542722E+01  0.42401639170E+01  0.40224505827E+02  0.50528851456E+02  0.29999974487E+02 0.  0.
         12    1    1    2    0    0  0.41444542722E+01 -0.42401639170E+01 -0.40224505827E+02  0.40659148544E+02  0.00000000000E+00 0. -1.
         11    1    3    3    0    0 -0.13670593575E+02  0.21679290406E+01  0.68345073086E+01  0.15436824008E+02  0.51100000000E-03 0. -1.
        -11    1    3    3    0    0  0.54777446360E+01  0.32568557213E+01  0.16627010413E+02  0.17806467112E+02  0.51100000000E-03 0.  1.
         12    1    3    3    0    0  0.40483946671E+01 -0.11846208448E+01  0.16762988106E+02  0.17285560337E+02  0.00000000000E+00 0. -1.
</event>
<event>
 7    1  0.2991278E-011  0.5052887E+02  0.7816164E-02  0.1300439E+00
        -11   -1    0    0    0    0  0.00000000000E+00  0.00000000000E+00  0.45593999997E+02  0.45594000000E+02  0.51100000000E-03 0.  1.
         11   -1    0    0    0    0 -0.00000000000E+00 -0.00000000000E+00 -0.45593999997E+02  0.45594000000E+02  0.51100000000E-03 0. -1.
    9900012    2    1    2    0    0  0.39798359494E+02  0.81175609522E+01  0.18332576555E+01  0.50528867596E+02  0.30000023543E+02 0.  0.
         12    1    1    2    0    0 -0.39798359494E+02 -0.81175609522E+01 -0.18332576555E+01  0.40659132404E+02  0.00000000000E+00 0. -1.
         11    1    3    3    0    0  0.24950439859E+02 -0.41113706072E+01 -0.68798083996E+00  0.25296267221E+02  0.51100000000E-03 0. -1.
        -11    1    3    3    0    0 -0.10487385323E+01  0.41510547673E+01  0.56910437734E+01  0.71217334745E+01  0.51100000000E-03 0.  1.
        -12    1    3    3    0    0  0.15896658168E+02  0.80778767921E+01 -0.31698052780E+01  0.18110866900E+02  0.00000000000E+00 0.  1.
</event>
<event>
 7    1  0.2991278E-011  0.5052896E+02  0.7816164E-02  0.1300438E+00
        -11   -1    0    0    0    0  0.00000000000E+00  0.00000000000E+00  0.45593999997E+02  0.45594000000E+02  0.51100000000E-03 0.  1.
         11   -1    0    0    0    0 -0.00000000000E+00 -0.00000000000E+00 -0.45593999997E+02  0.45594000000E+02  0.51100000000E-03 0. -1.
    9900012    2    1    2    0    0  0.10192468073E+02  0.96029063276E+01  0.38171397751E+02  0.50528956459E+02  0.30000293652E+02 0.  0.
         12    1    1    2    0    0 -0.10192468073E+02 -0.96029063276E+01 -0.38171397751E+02  0.40659043541E+02  0.00000000000E+00 0. -1.
         11    1    3    3    0    0  0.28857538204E+01 -0.51475965766E+01  0.22972058747E+02  0.23717942764E+02  0.51100000000E-03 0. -1.
        -11    1    3    3    0    0  0.21134911634E+01  0.16413871556E+02  0.12412864981E+02  0.20687224117E+02  0.51100000000E-03 0.  1.
         12    1    3    3    0    0  0.51932230888E+01 -0.16633686515E+01  0.27864740229E+01  0.61237895784E+01  0.00000000000E+00 0. -1.
</event>
<event>
 7    1  0.2991278E-011  0.5052886E+02  0.7816164E-02  0.1300439E+00
        -11   -1    0    0    0    0  0.00000000000E+00  0.00000000000E+00  0.45593999997E+02  0.45594000000E+02  0.51100000000E-03 0. -1.
         11   -1    0    0    0    0 -0.00000000000E+00 -0.00000000000E+00 -0.45593999997E+02  0.45594000000E+02  0.51100000000E-03 0.  1.
    9900012    2    1    2    0    0  0.14912942033E+02 -0.34439974857E+02 -0.15641541276E+02  0.50528861768E+02  0.30000005831E+02 0.  0.
         12    1    1    2    0    0 -0.14912942033E+02  0.34439974857E+02  0.15641541276E+02  0.40659138232E+02  0.00000000000E+00 0. -1.
         11    1    3    3    0    0 -0.30659330510E+01 -0.99082768759E+00  0.23176988334E+01  0.39690569564E+01  0.51100000000E-03 0. -1.
        -11    1    3    3    0    0  0.21289252102E+02 -0.31748254594E+02 -0.13033980114E+02  0.40386489853E+02  0.51100000000E-03 0.  1.
        -12    1    3    3    0    0 -0.33103770175E+01 -0.17008925763E+01 -0.49252599959E+01  0.61733149588E+01  0.00000000000E+00 0.  1.
</event>
<event>
 7    1  0.2991278E-011  0.5052885E+02  0.7816164E-02  0.1300439E+00
        -11   -1    0    0    0    0  0.00000000000E+00  0.00000000000E+00  0.45593999997E+02  0.45594000000E+02  0.51100000000E-03 0.  1.
         11   -1    0    0    0    0 -0.00000000000E+00 -0.00000000000E+00 -0.45593999997E+02  0.45594000000E+02  0.51100000000E-03 0. -1.
    9900012    2    1    2    0    0  0.18820592263E+01 -0.39851032889E+02  0.78434204837E+01  0.50528853254E+02  0.29999979950E+02 0.  0.
         12    1    1    2    0    0 -0.18820592263E+01  0.39851032889E+02 -0.78434204837E+01  0.40659146746E+02  0.00000000000E+00 0. -1.
         11    1    3    3    0    0 -0.44774257423E+01 -0.12136765842E+02 -0.85118796117E+01  0.15485493895E+02  0.51100000000E-03 0. -1.
        -11    1    3    3    0    0  0.21192682183E+01 -0.16446087886E+02  0.15933265803E+02  0.22996392411E+02  0.51100000000E-03 0.  1.
        -12    1    3    3    0    0  0.42402167503E+01 -0.11268179161E+02  0.42203429277E+00  0.12046966948E+02  0.00000000000E+00 0.  1.
</event>
<event>
 7    1  0.2991278E-011  0.5052888E+02  0.7816164E-02  0.1300439E+00
        -11   -1    0    0    0    0  0.00000000000E+00  0.00000000000E+00  0.45593999997E+02  0.45594000000E+02  0.51100000000E-03 0.  1.
         11   -1    0    0    0    0 -0.00000000000E+00 -0.00000000000E+00 -0.45593999997E+02  0.45594000000E+02  0.51100000000E-03 0. -1.
    9900012    2    1    2    0    0  0.24550239310E+02  0.60141106715E+01  0.31847769601E+02  0.50528877949E+02  0.30000055015E+02 0.  0.
         12    1    1    2    0    0 -0.24550239310E+02 -0.60141106715E+01 -0.31847769601E+02  0.40659122051E+02  0.00000000000E+00 0. -1.
         11    1    3    3    0    0  0.24945663583E+02  0.74156698631E+00  0.24510108750E+02  0.34979729621E+02  0.51100000000E-03 0.  1.
        -11    1    3    3    0    0 -0.33861324679E+01  0.56600385768E+01  0.96919436582E+01  0.11723297399E+02  0.51100000000E-03 0. -1.
        -12    1    3    3    0    0  0.29907081945E+01 -0.38749489160E+00 -0.23542828065E+01  0.38258509287E+01  0.00000000000E+00 0.  1.
</event>
<event>
 7    1  0.2991278E-011  0.5052886E+02  0.7816164E-02  0.1300439E+00
        -11   -1    0    0    0    0  0.00000000000E+00  0.00000000000E+00  0.45593999997E+02  0.45594000000E+02  0.51100000000E-03 0. -1.
         11   -1    0    0    0    0 -0.00000000000E+00 -0.00000000000E+00 -0.45593999997E+02  0.45594000000E+02  0.51100000000E-03 0.  1.
    9900012    2    1    2    0    0 -0.39150613195E+02 -0.10407576306E+02 -0.34752272647E+01  0.50528863725E+02  0.30000011778E+02 0.  0.
         12    1    1    2    0    0  0.39150613195E+02  0.10407576306E+02  0.34752272647E+01  0.40659136275E+02  0.00000000000E+00 0. -1.
         11    1    3    3    0    0 -0.53058206264E+01 -0.14750774291E+00  0.31912722336E+01  0.61933601368E+01  0.51100000000E-03 0. -1.
        -11    1    3    3    0    0 -0.34836003938E+02 -0.14762768401E+02 -0.93871565243E+01  0.38982113964E+02  0.51100000000E-03 0.  1.
        -12    1    3    3    0    0  0.99121137000E+00  0.45026998380E+01  0.27206570259E+01  0.53533896237E+01  0.00000000000E+00 0.  1.
</event>
<event>
 7    1  0.2991278E-011  0.5052885E+02  0.7816164E-02  0.1300439E+00
        -11   -1    0    0    0    0  0.00000000000E+00  0.00000000000E+00  0.45593999997E+02  0.45594000000E+02  0.51100000000E-03 0. -1.
         11   -1    0    0    0    0 -0.00000000000E+00 -0.00000000000E+00 -0.45593999997E+02  0.45594000000E+02  0.51100000000E-03 0.  1.
    9900012    2    1    2    0    0  0.16764268498E+02 -0.10493168539E+02  0.35524904518E+02  0.50528854346E+02  0.29999983270E+02 0.  0.
         12    1    1    2    0    0 -0.16764268498E+02  0.10493168539E+02 -0.35524904518E+02  0.40659145654E+02  0.00000000000E+00 0. -1.
         11    1    3    3    0    0  0.21375708999E+00  0.19049645561E+01 -0.45138628034E+01  0.49040330059E+01  0.51100000000E-03 0. -1.
        -11    1    3    3    0    0  0.62211749955E+01 -0.76990140437E+01  0.13312661385E+02  0.16589297423E+02  0.51100000000E-03 0.  1.
         12    1    3    3    0    0  0.10329336413E+02 -0.46991190518E+01  0.26726105937E+02  0.29035523917E+02  0.00000000000E+00 0. -1.
</event>
<event>
 7    1  0.2991278E-011  0.5052890E+02  0.7816164E-02  0.1300439E+00
        -11   -1    0    0    0    0  0.00000000000E+00  0.00000000000E+00  0.45593999997E+02  0.45594000000E+02  0.51100000000E-03 0. -1.
         11   -1    0    0    0    0 -0.00000000000E+00 -0.00000000000E+00 -0.45593999997E+02  0.45594000000E+02  0.51100000000E-03 0.  1.
    9900012    2    1    2    0    0 -0.25839009351E+02  0.30540775555E+02 -0.72642138005E+01  0.50528902889E+02  0.30000130820E+02 0.  0.
         12    1    1    2    0    0  0.25839009351E+02 -0.30540775555E+02  0.72642138005E+01  0.40659097111E+02  0.00000000000E+00 0. -1.
         11    1    3    3    0    0 -0.10267182254E+02 -0.20261520349E+01 -0.35737997276E+01  0.11058587986E+02  0.51100000000E-03 0. -1.
        -11    1    3    3    0    0  0.14671188906E+00  0.80935677694E+01 -0.63135599319E+01  0.10265885392E+02  0.51100000000E-03 0.  1.
         12    1    3    3    0    0 -0.15718538986E+02  0.24473359821E+02  0.26231458590E+01  0.29204429510E+02  0.00000000000E+00 0. -1.
</event>
<event>
 7    1  0.2991278E-011  0.5052886E+02  0.7816164E-02  0.1300439E+00
        -11   -1    0    0    0    0  0.00000000000E+00  0.00000000000E+00  0.45593999997E+02  0.45594000000E+02  0.51100000000E-03 0.  1.
         11   -1    0    0    0    0 -0.00000000000E+00 -0.00000000000E+00 -0.45593999997E+02  0.45594000000E+02  0.51100000000E-03 0. -1.
    9900012    2    1    2    0    0 -0.15042582802E+02 -0.35484296928E+02 -0.12951884530E+02  0.50528856641E+02  0.29999990245E+02 0.  0.
         12    1    1    2    0    0  0.15042582802E+02  0.35484296928E+02  0.12951884530E+02  0.40659143359E+02  0.00000000000E+00 0. -1.
         11    1    3    3    0    0 -0.85973419681E+01 -0.63933706519E+01 -0.12252432574E+02  0.16276104615E+02  0.51100000000E-03 0. -1.
        -11    1    3    3    0    0  0.23841940966E+01 -0.23865751565E+02 -0.63005835887E+00  0.23992820865E+02  0.51100000000E-03 0.  1.
        -12    1    3    3    0    0 -0.88294349303E+01 -0.52251747111E+01 -0.69393597551E-01  0.10259931161E+02  0.00000000000E+00 0.  1.
</event>
<event>
 7    1  0.2991278E-011  0.5052883E+02  0.7816164E-02  0.1300439E+00
        -11   -1    0    0    0    0  0.00000000000E+00  0.00000000000E+00  0.45593999997E+02  0.45594000000E+02  0.51100000000E-03 0. -1.
         11   -1    0    0    0    0 -0.00000000000E+00 -0.00000000000E+00 -0.45593999997E+02  0.45594000000E+02  0.51100000000E-03 0.  1.
    9900012    2    1    2    0    0  0.31886752558E+02  0.16051652766E+02 -0.19461443478E+02  0.50528827265E+02  0.29999900956E+02 0.  0.
         12    1    1    2    0    0 -0.31886752558E+02 -0.16051652766E+02  0.19461443478E+02  0.40659172735E+02  0.00000000000E+00 0. -1.
         11    1    3    3    0    0  0.11898979189E+02 -0.33661006488E+01  0.43490255191E+00  0.12373579911E+02  0.51100000000E-03 0. -1.
        -11    1    3    3    0    0  0.78186681089E+01  0.11603325154E+02 -0.55218583566E+00  0.14002629577E+02  0.51100000000E-03 0.  1.
         12    1    3    3    0    0  0.12169105260E+02  0.78144282612E+01 -0.19344160194E+02  0.24152617777E+02  0.00000000000E+00 0. -1.
</event>
<event>
 7    1  0.2991278E-011  0.5052888E+02  0.7816164E-02  0.1300439E+00
        -11   -1    0    0    0    0  0.00000000000E+00  0.00000000000E+00  0.45593999997E+02  0.45594000000E+02  0.51100000000E-03 0.  1.
         11   -1    0    0    0    0 -0.00000000000E+00 -0.00000000000E+00 -0.45593999997E+02  0.45594000000E+02  0.51100000000E-03 0. -1.
    9900012    2    1    2    0    0  0.47885727884E+01 -0.27755713721E+02  0.29323266438E+02  0.50528880136E+02  0.30000061662E+02 0.  0.
         12    1    1    2    0    0 -0.47885727884E+01  0.27755713721E+02 -0.29323266438E+02  0.40659119864E+02  0.00000000000E+00 0. -1.
         11    1    3    3    0    0 -0.75901006270E+01 -0.12827720141E+02  0.27593847264E+01  0.15158305838E+02  0.51100000000E-03 0. -1.
        -11    1    3    3    0    0  0.12143045172E+02 -0.14699528785E+02  0.16250907105E+02  0.25052378620E+02  0.51100000000E-03 0.  1.
         12    1    3    3    0    0  0.23562824391E+00 -0.22846479552E+00  0.10312974606E+02  0.10318195678E+02  0.00000000000E+00 0. -1.
</event>
<event>
 7    1  0.2991278E-011  0.5052886E+02  0.7816164E-02  0.1300439E+00
        -11   -1    0    0    0    0  0.00000000000E+00  0.00000000000E+00  0.45593999997E+02  0.45594000000E+02  0.51100000000E-03 0.  1.
         11   -1    0    0    0    0 -0.00000000000E+00 -0.00000000000E+00 -0.45593999997E+02  0.45594000000E+02  0.51100000000E-03 0. -1.
    9900012    2    1    2    0    0 -0.31573914145E+02  0.24482873319E+02  0.75394200007E+01  0.50528855957E+02  0.29999988166E+02 0.  0.
         12    1    1    2    0    0  0.31573914145E+02 -0.24482873319E+02 -0.75394200007E+01  0.40659144043E+02  0.00000000000E+00 0. -1.
         11    1    3    3    0    0 -0.79011534994E+00  0.23042535437E+01 -0.61534795273E+01  0.66180946815E+01  0.51100000000E-03 0. -1.
        -11    1    3    3    0    0 -0.17571446196E+02  0.92077635780E+01  0.15684048714E+02  0.25288891155E+02  0.51100000000E-03 0.  1.
        -12    1    3    3    0    0 -0.13212352600E+02  0.12970856197E+02 -0.19911491857E+01  0.18621870120E+02  0.00000000000E+00 0.  1.
</event>
<event>
 7    1  0.2991278E-011  0.5052886E+02  0.7816164E-02  0.1300439E+00
        -11   -1    0    0    0    0  0.00000000000E+00  0.00000000000E+00  0.45593999997E+02  0.45594000000E+02  0.51100000000E-03 0.  1.
         11   -1    0    0    0    0 -0.00000000000E+00 -0.00000000000E+00 -0.45593999997E+02  0.45594000000E+02  0.51100000000E-03 0. -1.
    9900012    2    1    2    0    0  0.11845250530E+02  0.67434220242E+01  0.38306425809E+02  0.50528856391E+02  0.29999989488E+02 0.  0.
         12    1    1    2    0    0 -0.11845250530E+02 -0.67434220242E+01 -0.38306425809E+02  0.40659143609E+02  0.00000000000E+00 0. -1.
         11    1    3    3    0    0  0.13442314403E+02  0.15410186211E+02  0.24222195198E+02  0.31699911609E+02  0.51100000000E-03 0. -1.
        -11    1    3    3    0    0  0.17852001022E+01  0.10113530783E+01  0.37349002528E+01  0.42613676928E+01  0.51100000000E-03 0.  1.
         12    1    3    3    0    0 -0.33822639751E+01 -0.96781172651E+01  0.10349330358E+02  0.14567577089E+02  0.00000000000E+00 0. -1.
</event>
<event>
 7    1  0.2991278E-011  0.5052886E+02  0.7816164E-02  0.1300439E+00
        -11   -1    0    0    0    0  0.00000000000E+00  0.00000000000E+00  0.45593999997E+02  0.45594000000E+02  0.51100000000E-03 0.  1.
         11   -1    0    0    0    0 -0.00000000000E+00 -0.00000000000E+00 -0.45593999997E+02  0.45594000000E+02  0.51100000000E-03 0. -1.
    9900012    2    1    2    0    0  0.70609604165E+01 -0.31405730576E+02  0.24839251066E+02  0.50528862422E+02  0.30000007819E+02 0.  0.
         12    1    1    2    0    0 -0.70609604165E+01  0.31405730576E+02 -0.24839251066E+02  0.40659137578E+02  0.00000000000E+00 0. -1.
         11    1    3    3    0    0  0.14663186221E+02 -0.87080754203E+01  0.86160456247E+01  0.19106958160E+02  0.51100000000E-03 0. -1.
        -11    1    3    3    0    0 -0.51599349778E+01 -0.77447492270E+01  0.11364890981E+00  0.93069321423E+01  0.51100000000E-03 0.  1.
        -12    1    3    3    0    0 -0.24422908266E+01 -0.14952905929E+02  0.16109556532E+02  0.22114972120E+02  0.00000000000E+00 0.  1.
</event>
<event>
 7    1  0.2991278E-011  0.5052887E+02  0.7816164E-02  0.1300439E+00
        -11   -1    0    0    0    0  0.00000000000E+00  0.00000000000E+00  0.45593999997E+02  0.45594000000E+02  0.51100000000E-03 0. -1.
         11   -1    0    0    0    0 -0.00000000000E+00 -0.00000000000E+00 -0.45593999997E+02  0.45594000000E+02  0.51100000000E-03 0.  1.
    9900012    2    1    2    0    0 -0.17261599947E+02 -0.33173484450E+02  0.15960022630E+02  0.50528865410E+02  0.30000016900E+02 0.  0.
         12    1    1    2    0    0  0.17261599947E+02  0.33173484450E+02 -0.15960022630E+02  0.40659134590E+02  0.00000000000E+00 0. -1.
         11    1    3    3    0    0 -0.80227223239E+00  0.31380729178E+01  0.55282955821E+01  0.64072766973E+01  0.51100000000E-03 0. -1.
        -11    1    3    3    0    0 -0.16659241069E+02 -0.29156794243E+02  0.13681760470E+02  0.36260716117E+02  0.51100000000E-03 0.  1.
         12    1    3    3    0    0  0.19991335480E+00 -0.71547631247E+01 -0.32500334213E+01  0.78608725953E+01  0.00000000000E+00 0. -1.
</event>
<event>
 7    1  0.2991278E-011  0.5052886E+02  0.7816164E-02  0.1300439E+00
        -11   -1    0    0    0    0  0.00000000000E+00  0.00000000000E+00  0.45593999997E+02  0.45594000000E+02  0.51100000000E-03 0.  1.
         11   -1    0    0    0    0 -0.00000000000E+00 -0.00000000000E+00 -0.45593999997E+02  0.45594000000E+02  0.51100000000E-03 0. -1.
    9900012    2    1    2    0    0 -0.89017146735E+01 -0.38039229207E+02  0.11266844408E+02  0.50528864917E+02  0.30000015401E+02 0.  0.
         12    1    1    2    0    0  0.89017146735E+01  0.38039229207E+02 -0.11266844408E+02  0.40659135083E+02  0.00000000000E+00 0. -1.
         11    1    3    3    0    0 -0.86175092426E+01 -0.37518053102E+02  0.49456387456E+01  0.38811404471E+02  0.51100000000E-03 0. -1.
        -11    1    3    3    0    0 -0.22001478406E+01 -0.42608708432E+01  0.93428635888E+00  0.48855462463E+01  0.51100000000E-03 0.  1.
         12    1    3    3    0    0  0.19159424097E+01  0.37396947382E+01  0.53869193036E+01  0.68319141999E+01  0.00000000000E+00 0. -1.
</event>
<event>
 7    1  0.2991278E-011  0.5052887E+02  0.7816164E-02  0.1300439E+00
        -11   -1    0    0    0    0  0.00000000000E+00  0.00000000000E+00  0.45593999997E+02  0.45594000000E+02  0.51100000000E-03 0.  1.
         11   -1    0    0    0    0 -0.00000000000E+00 -0.00000000000E+00 -0.45593999997E+02  0.45594000000E+02  0.51100000000E-03 0. -1.
    9900012    2    1    2    0    0  0.30492496290E+02 -0.26833941561E+02  0.18198919084E+01  0.50528871182E+02  0.30000034444E+02 0.  0.
         12    1    1    2    0    0 -0.30492496290E+02  0.26833941561E+02 -0.18198919084E+01  0.40659128818E+02  0.00000000000E+00 0. -1.
         11    1    3    3    0    0  0.20032327538E+01  0.25708380506E+00 -0.53288450173E+01  0.56987387226E+01  0.51100000000E-03 0. -1.
        -11    1    3    3    0    0  0.16103147146E+02 -0.18604039950E+02  0.14018303031E+02  0.28318447531E+02  0.51100000000E-03 0.  1.
        -12    1    3    3    0    0  0.12386116390E+02 -0.84869854165E+01 -0.68695661049E+01  0.16511684928E+02  0.00000000000E+00 0.  1.
</event>
<event>
 7    1  0.2991278E-011  0.5052886E+02  0.7816164E-02  0.1300439E+00
        -11   -1    0    0    0    0  0.00000000000E+00  0.00000000000E+00  0.45593999997E+02  0.45594000000E+02  0.51100000000E-03 0. -1.
         11   -1    0    0    0    0 -0.00000000000E+00 -0.00000000000E+00 -0.45593999997E+02  0.45594000000E+02  0.51100000000E-03 0.  1.
    9900012    2    1    2    0    0  0.37528384928E+02  0.45422983035E+01 -0.14971743867E+02  0.50528864943E+02  0.30000015479E+02 0.  0.
         12    1    1    2    0    0 -0.37528384928E+02 -0.45422983035E+01  0.14971743867E+02  0.40659135057E+02  0.00000000000E+00 0. -1.
         11    1    3    3    0    0  0.37057636746E+01  0.55414148862E+01  0.69880444182E+01  0.96577807184E+01  0.51100000000E-03 0. -1.
        -11    1    3    3    0    0  0.16567359088E+02  0.24767472730E+01 -0.90271879543E+01  0.19028972301E+02  0.51100000000E-03 0.  1.
         12    1    3    3    0    0  0.17255262166E+02 -0.34758638556E+01 -0.12932600331E+02  0.21842111923E+02  0.00000000000E+00 0. -1.
</event>
<event>
 7    1  0.2991278E-011  0.5052886E+02  0.7816164E-02  0.1300439E+00
        -11   -1    0    0    0    0  0.00000000000E+00  0.00000000000E+00  0.45593999997E+02  0.45594000000E+02  0.51100000000E-03 0. -1.
         11   -1    0    0    0    0 -0.00000000000E+00 -0.00000000000E+00 -0.45593999997E+02  0.45594000000E+02  0.51100000000E-03 0.  1.
    9900012    2    1    2    0    0  0.12370417422E+02  0.28395731816E+02 -0.26340480188E+02  0.50528859465E+02  0.29999998828E+02 0.  0.
         12    1    1    2    0    0 -0.12370417422E+02 -0.28395731816E+02  0.26340480188E+02  0.40659140535E+02  0.00000000000E+00 0. -1.
         11    1    3    3    0    0  0.39434835988E+01  0.14199865958E+02  0.23253506246E+01  0.14919601601E+02  0.51100000000E-03 0. -1.
        -11    1    3    3    0    0 -0.78220984809E+00  0.96626197251E+01 -0.19800800490E+02  0.22046536519E+02  0.51100000000E-03 0.  1.
         12    1    3    3    0    0  0.92091436711E+01  0.45332461324E+01 -0.88650303230E+01  0.13562721345E+02  0.00000000000E+00 0. -1.
</event>
<event>
 7    1  0.2991278E-011  0.5052886E+02  0.7816164E-02  0.1300439E+00
        -11   -1    0    0    0    0  0.00000000000E+00  0.00000000000E+00  0.45593999997E+02  0.45594000000E+02  0.51100000000E-03 0. -1.
         11   -1    0    0    0    0 -0.00000000000E+00 -0.00000000000E+00 -0.45593999997E+02  0.45594000000E+02  0.51100000000E-03 0.  1.
    9900012    2    1    2    0    0  0.12318077663E+02  0.38682428172E+02  0.22584478598E+01  0.50528857445E+02  0.29999992689E+02 0.  0.
         12    1    1    2    0    0 -0.12318077663E+02 -0.38682428172E+02 -0.22584478598E+01  0.40659142555E+02  0.00000000000E+00 0. -1.
         11    1    3    3    0    0  0.13431810546E+01  0.53715103913E+01  0.11283132700E+02  0.12568466216E+02  0.51100000000E-03 0. -1.
        -11    1    3    3    0    0  0.89230296293E+01  0.27382654051E+02 -0.11770730338E+02  0.31112381676E+02  0.51100000000E-03 0.  1.
        -12    1    3    3    0    0  0.20518669792E+01  0.59282637302E+01  0.27460454973E+01  0.68480095523E+01  0.00000000000E+00 0.  1.
</event>
<event>
 7    1  0.2991278E-011  0.5052886E+02  0.7816164E-02  0.1300439E+00
        -11   -1    0    0    0    0  0.00000000000E+00  0.00000000000E+00  0.45593999997E+02  0.45594000000E+02  0.51100000000E-03 0.  1.
         11   -1    0    0    0    0 -0.00000000000E+00 -0.00000000000E+00 -0.45593999997E+02  0.45594000000E+02  0.51100000000E-03 0. -1.
    9900012    2    1    2    0    0  0.10137812455E+02 -0.96226353873E+01  0.38181084889E+02  0.50528860850E+02  0.30000003039E+02 0.  0.
         12    1    1    2    0    0 -0.10137812455E+02  0.96226353873E+01 -0.38181084889E+02  0.40659139150E+02  0.00000000000E+00 0. -1.
         11    1    3    3    0    0  0.88169969063E+01 -0.15410497979E+01  0.52861742600E+01  0.10395090548E+02  0.51100000000E-03 0. -1.
        -11    1    3    3    0    0 -0.72409893269E+00  0.73094608062E+01  0.12545189624E+02  0.14537342244E+02  0.51100000000E-03 0.  1.
        -12    1    3    3    0    0  0.20449144816E+01 -0.15391046396E+02  0.20349721004E+02  0.25596428058E+02  0.00000000000E+00 0.  1.
</event>
<event>
 7    1  0.2991278E-011  0.5052885E+02  0.7816164E-02  0.1300439E+00
        -11   -1    0    0    0    0  0.00000000000E+00  0.00000000000E+00  0.45593999997E+02  0.45594000000E+02  0.51100000000E-03 0. -1.
         11   -1    0    0    0    0 -0.00000000000E+00 -0.00000000000E+00 -0.45593999997E+02  0.45594000000E+02  0.51100000000E-03 0.  1.
    9900012    2    1    2    0    0  0.19408386663E+02 -0.33012973450E+02  0.13661064856E+02  0.50528848731E+02  0.29999966204E+02 0.  0.
         12    1    1    2    0    0 -0.19408386663E+02  0.33012973450E+02 -0.13661064856E+02  0.40659151269E+02  0.00000000000E+00 0. -1.
         11    1    3    3    0    0 -0.85729448916E+00  0.28298480237E+01 -0.12171899673E+00  0.29593596358E+01  0.51100000000E-03 0. -1.
        -11    1    3    3    0    0  0.23381589509E+02 -0.35294951398E+02  0.12390722377E+02  0.44113062957E+02  0.51100000000E-03 0.  1.
        -12    1    3    3    0    0 -0.31159083561E+01 -0.54787007588E+00  0.13920614753E+01  0.34564261390E+01  0.00000000000E+00 0.  1.
</event>
<event>
 7    1  0.2991278E-011  0.5052886E+02  0.7816164E-02  0.1300439E+00
        -11   -1    0    0    0    0  0.00000000000E+00  0.00000000000E+00  0.45593999997E+02  0.45594000000E+02  0.51100000000E-03 0.  1.
         11   -1    0    0    0    0 -0.00000000000E+00 -0.00000000000E+00 -0.45593999997E+02  0.45594000000E+02  0.51100000000E-03 0. -1.
    9900012    2    1    2    0    0 -0.75079540433E+01 -0.35222032118E+02  0.18873390343E+02  0.50528858550E+02  0.29999996048E+02 0.  0.
         12    1    1    2    0    0  0.75079540433E+01  0.35222032118E+02 -0.18873390343E+02  0.40659141450E+02  0.00000000000E+00 0. -1.
         11    1    3    3    0    0  0.43027415794E+01 -0.29518096283E+01  0.12905999911E+02  0.13920905112E+02  0.51100000000E-03 0. -1.
        -11    1    3    3    0    0 -0.82874372942E+01 -0.93303995015E+01  0.47968084709E+01  0.13369642610E+02  0.51100000000E-03 0.  1.
        -12    1    3    3    0    0 -0.35232583286E+01 -0.22939822988E+02  0.11705819615E+01  0.23238310827E+02  0.00000000000E+00 0.  1.
</event>
<event>
 7    1  0.2991278E-011  0.5052883E+02  0.7816164E-02  0.1300439E+00
        -11   -1    0    0    0    0  0.00000000000E+00  0.00000000000E+00  0.45593999997E+02  0.45594000000E+02  0.51100000000E-03 0. -1.
         11   -1    0    0    0    0 -0.00000000000E+00 -0.00000000000E+00 -0.45593999997E+02  0.45594000000E+02  0.51100000000E-03 0.  1.
    9900012    2    1    2    0    0  0.36439551859E+02 -0.13963971825E+02 -0.11416420477E+02  0.50528829997E+02  0.29999909259E+02 0.  0.
         12    1    1    2    0    0 -0.36439551859E+02  0.13963971825E+02  0.11416420477E+02  0.40659170003E+02  0.00000000000E+00 0. -1.
         11    1    3    3    0    0  0.50332938035E+01  0.26831987865E+01 -0.83049080312E+01  0.10074973941E+02  0.51100000000E-03 0.  1.
        -11    1    3    3    0    0  0.33760559279E+02 -0.15232312238E+02 -0.11085568144E+01  0.37054387020E+02  0.51100000000E-03 0. -1.
         12    1    3    3    0    0 -0.23543012236E+01 -0.14148583734E+01 -0.20029556310E+01  0.33994690362E+01  0.00000000000E+00 0. -1.
</event>
<event>
 7    1  0.2991278E-011  0.5052886E+02  0.7816164E-02  0.1300439E+00
        -11   -1    0    0    0    0  0.00000000000E+00  0.00000000000E+00  0.45593999997E+02  0.45594000000E+02  0.51100000000E-03 0.  1.
         11   -1    0    0    0    0 -0.00000000000E+00 -0.00000000000E+00 -0.45593999997E+02  0.45594000000E+02  0.51100000000E-03 0. -1.
    9900012    2    1    2    0    0 -0.11935541606E+02  0.38061715101E+02 -0.78749162618E+01  0.50528860609E+02  0.30000002307E+02 0.  0.
         12    1    1    2    0    0  0.11935541606E+02 -0.38061715101E+02  0.78749162618E+01  0.40659139391E+02  0.00000000000E+00 0. -1.
         11    1    3    3    0    0 -0.11208819483E+02  0.51146218074E+01 -0.16075907461E+01  0.12425028720E+02  0.51100000000E-03 0. -1.
        -11    1    3    3    0    0  0.60737614038E+01  0.27685748421E+02 -0.17671314517E+01  0.28399190077E+02  0.51100000000E-03 0.  1.
        -12    1    3    3    0    0 -0.68004835269E+01  0.52613448730E+01 -0.45001940640E+01  0.97046418113E+01  0.00000000000E+00 0.  1.
</event>
<event>
 7    1  0.2991278E-011  0.5052887E+02  0.7816164E-02  0.1300439E+00
        -11   -1    0    0    0    0  0.00000000000E+00  0.00000000000E+00  0.45593999997E+02  0.45594000000E+02  0.51100000000E-03 0.  1.
         11   -1    0    0    0    0 -0.00000000000E+00 -0.00000000000E+00 -0.45593999997E+02  0.45594000000E+02  0.51100000000E-03 0. -1.
    9900012    2    1    2    0    0  0.94398503885E+01  0.34889391346E+02 -0.18622141733E+02  0.50528873514E+02  0.30000041533E+02 0.  0.
         12    1    1    2    0    0 -0.94398503885E+01 -0.34889391346E+02  0.18622141733E+02  0.40659126486E+02  0.00000000000E+00 0. -1.
         11    1    3    3    0    0  0.55455342225E+01 -0.24517567665E+01 -0.67369414110E+01  0.90636880403E+01  0.51100000000E-03 0. -1.
        -11    1    3    3    0    0  0.36689260409E+01  0.34064278953E+02 -0.60820293280E+01  0.34796942392E+02  0.51100000000E-03 0.  1.
        -12    1    3    3    0    0  0.22539012508E+00  0.32768691604E+01 -0.58031709941E+01  0.66682430811E+01  0.00000000000E+00 0.  1.
</event>
<event>
 7    1  0.2991278E-011  0.5052886E+02  0.7816164E-02  0.1300439E+00
        -11   -1    0    0    0    0  0.00000000000E+00  0.00000000000E+00  0.45593999997E+02  0.45594000000E+02  0.51100000000E-03 0. -1.
         11   -1    0    0    0    0 -0.00000000000E+00 -0.00000000000E+00 -0.45593999997E+02  0.45594000000E+02  0.51100000000E-03 0.  1.
    9900012    2    1    2    0    0  0.94183246797E+01 -0.39502285237E+02 -0.20075370675E+01  0.50528861006E+02  0.30000003513E+02 0.  0.
         12    1    1    2    0    0 -0.94183246797E+01  0.39502285237E+02  0.20075370675E+01  0.40659138994E+02  0.00000000000E+00 0. -1.
         11    1    3    3    0    0 -0.50026028842E+01 -0.75621204497E+01 -0.92507931103E+01  0.12953334503E+02  0.51100000000E-03 0. -1.
        -11    1    3    3    0    0  0.14608362460E+02 -0.24161834065E+02  0.89318957265E+01  0.29613801524E+02  0.51100000000E-03 0.  1.
         12    1    3    3    0    0 -0.18743489639E+00 -0.77783307216E+01 -0.16886396837E+01  0.79617249787E+01  0.00000000000E+00 0. -1.
</event>
<event>
 7    1  0.2991278E-011  0.5052887E+02  0.7816164E-02  0.1300439E+00
        -11   -1    0    0    0    0  0.00000000000E+00  0.00000000000E+00  0.45593999997E+02  0.45594000000E+02  0.51100000000E-03 0. -1.
         11   -1    0    0    0    0 -0.00000000000E+00 -0.00000000000E+00 -0.45593999997E+02  0.45594000000E+02  0.51100000000E-03 0.  1.
    9900012    2    1    2    0    0  0.34439236538E+02 -0.21221751892E+02 -0.40915895471E+01  0.50528869762E+02  0.30000030129E+02 0.  0.
         12    1    1    2    0    0 -0.34439236538E+02  0.21221751892E+02  0.40915895471E+01  0.40659130238E+02  0.00000000000E+00 0. -1.
         11    1    3    3    0    0  0.32879754098E+02 -0.10440682658E+02 -0.90529386298E+01  0.35665694750E+02  0.51100000000E-03 0. -1.
        -11    1    3    3    0    0  0.31999607670E+01 -0.10192215856E+02  0.12407537613E+01  0.10754556389E+02  0.51100000000E-03 0.  1.
         12    1    3    3    0    0 -0.16404783271E+01 -0.58885337745E+00  0.37205953214E+01  0.41086186228E+01  0.00000000000E+00 0. -1.
</event>
<event>
 7    1  0.2991278E-011  0.5052887E+02  0.7816164E-02  0.1300439E+00
        -11   -1    0    0    0    0  0.00000000000E+00  0.00000000000E+00  0.45593999997E+02  0.45594000000E+02  0.51100000000E-03 0.  1.
         11   -1    0    0    0    0 -0.00000000000E+00 -0.00000000000E+00 -0.45593999997E+02  0.45594000000E+02  0.51100000000E-03 0. -1.
    9900012    2    1    2    0    0 -0.29227396616E+02 -0.27784377434E+02 -0.51915961733E+01  0.50528868023E+02  0.30000024841E+02 0.  0.
         12    1    1    2    0    0  0.29227396616E+02  0.27784377434E+02  0.51915961733E+01  0.40659131977E+02  0.00000000000E+00 0. -1.
         11    1    3    3    0    0 -0.57583967854E+01 -0.50680866720E+01 -0.13036095608E+02  0.15125621476E+02  0.51100000000E-03 0. -1.
        -11    1    3    3    0    0 -0.10899185770E+02 -0.16979564922E+02  0.15980369343E+01  0.20239851721E+02  0.51100000000E-03 0.  1.
         12    1    3    3    0    0 -0.12569814060E+02 -0.57367258407E+01  0.62464625009E+01  0.15163394826E+02  0.00000000000E+00 0. -1.
</event>
<event>
 7    1  0.2991278E-011  0.5052886E+02  0.7816164E-02  0.1300439E+00
        -11   -1    0    0    0    0  0.00000000000E+00  0.00000000000E+00  0.45593999997E+02  0.45594000000E+02  0.51100000000E-03 0.  1.
         11   -1    0    0    0    0 -0.00000000000E+00 -0.00000000000E+00 -0.45593999997E+02  0.45594000000E+02  0.51100000000E-03 0. -1.
    9900012    2    1    2    0    0  0.14893456823E+01  0.40511618485E+02  0.31234701219E+01  0.50528862670E+02  0.30000008572E+02 0.  0.
         12    1    1    2    0    0 -0.14893456823E+01 -0.40511618485E+02 -0.31234701219E+01  0.40659137330E+02  0.00000000000E+00 0. -1.
         11    1    3    3    0    0 -0.19531270675E+01  0.11025406402E+02 -0.11751864424E+02  0.16232085799E+02  0.51100000000E-03 0. -1.
        -11    1    3    3    0    0  0.56852408366E+00  0.26905723481E+02  0.14003762324E+02  0.30337213701E+02  0.51100000000E-03 0.  1.
         12    1    3    3    0    0  0.28739486661E+01  0.25804886012E+01  0.87157222255E+00  0.39595631698E+01  0.00000000000E+00 0. -1.
</event>
<event>
 7    1  0.2991278E-011  0.5052886E+02  0.7816164E-02  0.1300439E+00
        -11   -1    0    0    0    0  0.00000000000E+00  0.00000000000E+00  0.45593999997E+02  0.45594000000E+02  0.51100000000E-03 0. -1.
         11   -1    0    0    0    0 -0.00000000000E+00 -0.00000000000E+00 -0.45593999997E+02  0.45594000000E+02  0.51100000000E-03 0.  1.
    9900012    2    1    2    0    0 -0.29066592413E+02 -0.17655641018E+02 -0.22284017105E+02  0.50528857454E+02  0.29999992716E+02 0.  0.
         12    1    1    2    0    0  0.29066592413E+02  0.17655641018E+02  0.22284017105E+02  0.40659142546E+02  0.00000000000E+00 0. -1.
         11    1    3    3    0    0 -0.10429254727E+02 -0.94295719973E+01 -0.20997527468E+02  0.25270186827E+02  0.51100000000E-03 0. -1.
        -11    1    3    3    0    0 -0.11513806909E+02 -0.11010651023E+02 -0.50795272881E+01  0.16721357099E+02  0.51100000000E-03 0.  1.
         12    1    3    3    0    0 -0.71235307765E+01  0.27845820024E+01  0.37930376511E+01  0.85373135279E+01  0.00000000000E+00 0. -1.
</event>
<event>
 7    1  0.2991278E-011  0.5052886E+02  0.7816164E-02  0.1300439E+00
        -11   -1    0    0    0    0  0.00000000000E+00  0.00000000000E+00  0.45593999997E+02  0.45594000000E+02  0.51100000000E-03 0.  1.
         11   -1    0    0    0    0 -0.00000000000E+00 -0.00000000000E+00 -0.45593999997E+02  0.45594000000E+02  0.51100000000E-03 0. -1.
    9900012    2    1    2    0    0 -0.13691928400E+00  0.21761517484E+02  0.34345056265E+02  0.50528864742E+02  0.30000014869E+02 0.  0.
         12    1    1    2    0    0  0.13691928400E+00 -0.21761517484E+02 -0.34345056265E+02  0.40659135258E+02  0.00000000000E+00 0. -1.
         11    1    3    3    0    0 -0.44748390739E+01  0.11210749079E+02 -0.55333589279E+00  0.12083511929E+02  0.51100000000E-03 0. -1.
        -11    1    3    3    0    0  0.67370414802E+01  0.89496955863E+01  0.17285774794E+02  0.20598125873E+02  0.51100000000E-03 0.  1.
        -12    1    3    3    0    0 -0.23991216902E+01  0.16010728183E+01  0.17612617363E+02  0.17847226940E+02  0.00000000000E+00 0.  1.
</event>
<event>
 7    1  0.2991278E-011  0.5052887E+02  0.7816164E-02  0.1300439E+00
        -11   -1    0    0    0    0  0.00000000000E+00  0.00000000000E+00  0.45593999997E+02  0.45594000000E+02  0.51100000000E-03 0.  1.
         11   -1    0    0    0    0 -0.00000000000E+00 -0.00000000000E+00 -0.45593999997E+02  0.45594000000E+02  0.51100000000E-03 0. -1.
    9900012    2    1    2    0    0 -0.78877134496E+01  0.32442380691E+02  0.23204323581E+02  0.50528871613E+02  0.30000035754E+02 0.  0.
         12    1    1    2    0    0  0.78877134496E+01 -0.32442380691E+02 -0.23204323581E+02  0.40659128387E+02  0.00000000000E+00 0. -1.
         11    1    3    3    0    0  0.86876790445E+01  0.96871305589E+00  0.17947598968E+01  0.89238632617E+01  0.51100000000E-03 0. -1.
        -11    1    3    3    0    0 -0.96893483036E+01  0.17570654746E+02  0.10573244644E+02  0.22680495614E+02  0.51100000000E-03 0.  1.
         12    1    3    3    0    0 -0.68860441905E+01  0.13903012889E+02  0.10836319040E+02  0.18924512737E+02  0.00000000000E+00 0. -1.
</event>
<event>
 7    1  0.2991278E-011  0.5052887E+02  0.7816164E-02  0.1300439E+00
        -11   -1    0    0    0    0  0.00000000000E+00  0.00000000000E+00  0.45593999997E+02  0.45594000000E+02  0.51100000000E-03 0.  1.
         11   -1    0    0    0    0 -0.00000000000E+00 -0.00000000000E+00 -0.45593999997E+02  0.45594000000E+02  0.51100000000E-03 0. -1.
    9900012    2    1    2    0    0 -0.24250563780E+02 -0.11513810050E+02  0.30536985825E+02  0.50528866109E+02  0.30000019025E+02 0.  0.
         12    1    1    2    0    0  0.24250563780E+02  0.11513810050E+02 -0.30536985825E+02  0.40659133891E+02  0.00000000000E+00 0. -1.
         11    1    3    3    0    0  0.85499228660E+00 -0.22888039222E+00  0.14684304050E-01  0.88521970945E+00  0.51100000000E-03 0. -1.
        -11    1    3    3    0    0 -0.10540877214E+02 -0.22408731668E+01 -0.36780063621E+01  0.11386805349E+02  0.51100000000E-03 0.  1.
        -12    1    3    3    0    0 -0.14564678852E+02 -0.90440564908E+01  0.34200307883E+02  0.38256841051E+02  0.00000000000E+00 0.  1.
</event>
<event>
 7    1  0.2991278E-011  0.5052886E+02  0.7816164E-02  0.1300439E+00
        -11   -1    0    0    0    0  0.00000000000E+00  0.00000000000E+00  0.45593999997E+02  0.45594000000E+02  0.51100000000E-03 0.  1.
         11   -1    0    0    0    0 -0.00000000000E+00 -0.00000000000E+00 -0.45593999997E+02  0.45594000000E+02  0.51100000000E-03 0. -1.
    9900012    2    1    2    0    0 -0.37175843324E+02  0.29310749163E+01  0.16202804970E+02  0.50528863070E+02  0.30000009787E+02 0.  0.
         12    1    1    2    0    0  0.37175843324E+02 -0.29310749163E+01 -0.16202804970E+02  0.40659136930E+02  0.00000000000E+00 0. -1.
         11    1    3    3    0    0 -0.25418375723E+02  0.89211307795E+00 -0.37835713108E+01  0.25713908732E+02  0.51100000000E-03 0. -1.
        -11    1    3    3    0    0 -0.28997428046E+01  0.29606633687E+01  0.12538121742E+02  0.13205246420E+02  0.51100000000E-03 0.  1.
        -12    1    3    3    0    0 -0.88577247961E+01 -0.92170153041E+00  0.74482545387E+01  0.11609707918E+02  0.00000000000E+00 0.  1.
</event>
<event>
 7    1  0.2991278E-011  0.5052885E+02  0.7816164E-02  0.1300439E+00
        -11   -1    0    0    0    0  0.00000000000E+00  0.00000000000E+00  0.45593999997E+02  0.45594000000E+02  0.51100000000E-03 0.  1.
         11   -1    0    0    0    0 -0.00000000000E+00 -0.00000000000E+00 -0.45593999997E+02  0.45594000000E+02  0.51100000000E-03 0. -1.
    9900012    2    1    2    0    0 -0.29187019388E+02  0.49989798880E+01  0.27862065496E+02  0.50528848577E+02  0.29999965736E+02 0.  0.
         12    1    1    2    0    0  0.29187019388E+02 -0.49989798880E+01 -0.27862065496E+02  0.40659151423E+02  0.00000000000E+00 0. -1.
         11    1    3    3    0    0 -0.28147751056E+02  0.90097688239E+01  0.10919469467E+02  0.31507247380E+02  0.51100000000E-03 0. -1.
        -11    1    3    3    0    0 -0.42535712019E+01 -0.30292762329E+01  0.91521589863E+01  0.10537143675E+02  0.51100000000E-03 0.  1.
         12    1    3    3    0    0  0.32143028697E+01 -0.98151270300E+00  0.77904370425E+01  0.84844575217E+01  0.00000000000E+00 0. -1.
</event>
<event>
 7    1  0.2991278E-011  0.5052885E+02  0.7816164E-02  0.1300439E+00
        -11   -1    0    0    0    0  0.00000000000E+00  0.00000000000E+00  0.45593999997E+02  0.45594000000E+02  0.51100000000E-03 0.  1.
         11   -1    0    0    0    0 -0.00000000000E+00 -0.00000000000E+00 -0.45593999997E+02  0.45594000000E+02  0.51100000000E-03 0. -1.
    9900012    2    1    2    0    0 -0.20763260848E+02  0.28424971492E+02  0.20348817163E+02  0.50528851395E+02  0.29999974300E+02 0.  0.
         12    1    1    2    0    0  0.20763260848E+02 -0.28424971492E+02 -0.20348817163E+02  0.40659148605E+02  0.00000000000E+00 0. -1.
         11    1    3    3    0    0 -0.10784624731E+02  0.31642603570E+01 -0.46871942855E+01  0.12177457236E+02  0.51100000000E-03 0. -1.
        -11    1    3    3    0    0 -0.10625858931E+02  0.15453124904E+02  0.19568407589E+02  0.27104068388E+02  0.51100000000E-03 0.  1.
        -12    1    3    3    0    0  0.64722281380E+00  0.98075862305E+01  0.54676038597E+01  0.11247325771E+02  0.00000000000E+00 0.  1.
</event>
<event>
 7    1  0.2991278E-011  0.5052885E+02  0.7816164E-02  0.1300439E+00
        -11   -1    0    0    0    0  0.00000000000E+00  0.00000000000E+00  0.45593999997E+02  0.45594000000E+02  0.51100000000E-03 0. -1.
         11   -1    0    0    0    0 -0.00000000000E+00 -0.00000000000E+00 -0.45593999997E+02  0.45594000000E+02  0.51100000000E-03 0.  1.
    9900012    2    1    2    0    0 -0.34299592155E+02 -0.33298513794E+01  0.21578157436E+02  0.50528845919E+02  0.29999957656E+02 0.  0.
         12    1    1    2    0    0  0.34299592155E+02  0.33298513794E+01 -0.21578157436E+02  0.40659154081E+02  0.00000000000E+00 0. -1.
         11    1    3    3    0    0  0.36239817934E+01  0.46160512641E+00  0.72649234344E+01  0.81317547983E+01  0.51100000000E-03 0. -1.
        -11    1    3    3    0    0 -0.26718618752E+02 -0.48504026220E+01  0.15177697871E+02  0.31109058272E+02  0.51100000000E-03 0.  1.
         12    1    3    3    0    0 -0.11204955196E+02  0.10589461162E+01 -0.86446386902E+00  0.11288032849E+02  0.00000000000E+00 0. -1.
</event>
<event>
 7    1  0.2991278E-011  0.5052886E+02  0.7816164E-02  0.1300439E+00
        -11   -1    0    0    0    0  0.00000000000E+00  0.00000000000E+00  0.45593999997E+02  0.45594000000E+02  0.51100000000E-03 0.  1.
         11   -1    0    0    0    0 -0.00000000000E+00 -0.00000000000E+00 -0.45593999997E+02  0.45594000000E+02  0.51100000000E-03 0. -1.
    9900012    2    1    2    0    0 -0.11655720690E+02 -0.11637325083E+02  0.37173683638E+02  0.50528856931E+02  0.29999991129E+02 0.  0.
         12    1    1    2    0    0  0.11655720690E+02  0.11637325083E+02 -0.37173683638E+02  0.40659143069E+02  0.00000000000E+00 0. -1.
         11    1    3    3    0    0 -0.52513881051E+01 -0.18696793688E+01 -0.23148072785E+01  0.60358189975E+01  0.51100000000E-03 0. -1.
        -11    1    3    3    0    0 -0.10081068295E+01 -0.13153452808E+02  0.32287923648E+02  0.34878927935E+02  0.51100000000E-03 0.  1.
         12    1    3    3    0    0 -0.53962257550E+01  0.33858070946E+01  0.72005672686E+01  0.96141099989E+01  0.00000000000E+00 0. -1.
</event>
<event>
 7    1  0.2991278E-011  0.5052886E+02  0.7816164E-02  0.1300439E+00
        -11   -1    0    0    0    0  0.00000000000E+00  0.00000000000E+00  0.45593999997E+02  0.45594000000E+02  0.51100000000E-03 0. -1.
         11   -1    0    0    0    0 -0.00000000000E+00 -0.00000000000E+00 -0.45593999997E+02  0.45594000000E+02  0.51100000000E-03 0.  1.
    9900012    2    1    2    0    0  0.34545746785E+02 -0.17859985251E+02  0.11864987298E+02  0.50528860589E+02  0.30000002245E+02 0.  0.
         12    1    1    2    0    0 -0.34545746785E+02  0.17859985251E+02 -0.11864987298E+02  0.40659139411E+02  0.00000000000E+00 0. -1.
         11    1    3    3    0    0  0.12525332966E+01  0.51490438879E+01  0.46321628988E+01  0.70383539269E+01  0.51100000000E-03 0. -1.
        -11    1    3    3    0    0  0.14119639665E+02 -0.93461171735E+01 -0.40088702686E+01  0.17400723306E+02  0.51100000000E-03 0.  1.
        -12    1    3    3    0    0  0.19173573823E+02 -0.13662911965E+02  0.11241694668E+02  0.26089783355E+02  0.00000000000E+00 0.  1.
</event>
<event>
 7    1  0.2991278E-011  0.5052885E+02  0.7816164E-02  0.1300439E+00
        -11   -1    0    0    0    0  0.00000000000E+00  0.00000000000E+00  0.45593999997E+02  0.45594000000E+02  0.51100000000E-03 0.  1.
         11   -1    0    0    0    0 -0.00000000000E+00 -0.00000000000E+00 -0.45593999997E+02  0.45594000000E+02  0.51100000000E-03 0. -1.
    9900012    2    1    2    0    0  0.49029276691E+00  0.40399143565E+02 -0.45645927552E+01  0.50528847343E+02  0.29999961985E+02 0.  0.
         12    1    1    2    0    0 -0.49029276691E+00 -0.40399143565E+02  0.45645927552E+01  0.40659152657E+02  0.00000000000E+00 0. -1.
         11    1    3    3    0    0 -0.43031509627E+01 -0.12103729088E+01  0.21481522189E+01  0.49595028988E+01  0.51100000000E-03 0. -1.
        -11    1    3    3    0    0  0.11068266412E+01  0.39807452646E+02 -0.90621050883E+01  0.40840912089E+02  0.51100000000E-03 0.  1.
        -12    1    3    3    0    0  0.36866170883E+01  0.18020638274E+01  0.23493601142E+01  0.47284323555E+01  0.00000000000E+00 0.  1.
</event>
<event>
 7    1  0.2991278E-011  0.5052885E+02  0.7816164E-02  0.1300439E+00
        -11   -1    0    0    0    0  0.00000000000E+00  0.00000000000E+00  0.45593999997E+02  0.45594000000E+02  0.51100000000E-03 0.  1.
         11   -1    0    0    0    0 -0.00000000000E+00 -0.00000000000E+00 -0.45593999997E+02  0.45594000000E+02  0.51100000000E-03 0. -1.
    9900012    2    1    2    0    0 -0.38482553595E+02 -0.13013745025E+02 -0.17034701942E+01  0.50528852180E+02  0.29999976685E+02 0.  0.
         12    1    1    2    0    0  0.38482553595E+02  0.13013745025E+02  0.17034701942E+01  0.40659147820E+02  0.00000000000E+00 0. -1.
         11    1    3    3    0    0 -0.11369465952E+02 -0.63295872526E+01 -0.90185575565E+01  0.15832334366E+02  0.51100000000E-03 0. -1.
        -11    1    3    3    0    0 -0.28525394290E+02 -0.32520732018E+01  0.96772425030E+01  0.30297246116E+02  0.51100000000E-03 0.  1.
        -12    1    3    3    0    0  0.14123066464E+01 -0.34320845701E+01 -0.23621551407E+01  0.43992716976E+01  0.00000000000E+00 0.  1.
</event>
<event>
 7    1  0.2991278E-011  0.5052886E+02  0.7816164E-02  0.1300439E+00
        -11   -1    0    0    0    0  0.00000000000E+00  0.00000000000E+00  0.45593999997E+02  0.45594000000E+02  0.51100000000E-03 0.  1.
         11   -1    0    0    0    0 -0.00000000000E+00 -0.00000000000E+00 -0.45593999997E+02  0.45594000000E+02  0.51100000000E-03 0. -1.
    9900012    2    1    2    0    0 -0.27456359666E+02  0.17889366658E+02  0.24068338336E+02  0.50528855447E+02  0.29999986617E+02 0.  0.
         12    1    1    2    0    0  0.27456359666E+02 -0.17889366658E+02 -0.24068338336E+02  0.40659144553E+02  0.00000000000E+00 0. -1.
         11    1    3    3    0    0  0.37691008695E+01  0.30367391264E+01  0.19283482175E+01  0.52102238911E+01  0.51100000000E-03 0. -1.
        -11    1    3    3    0    0 -0.21897328946E+02  0.44925144197E+01  0.22019531738E+02  0.31377308345E+02  0.51100000000E-03 0.  1.
        -12    1    3    3    0    0 -0.93281315895E+01  0.10360113112E+02  0.12045838050E+00  0.13941323211E+02  0.00000000000E+00 0.  1.
</event>
<event>
 7    1  0.2991278E-011  0.5052886E+02  0.7816164E-02  0.1300439E+00
        -11   -1    0    0    0    0  0.00000000000E+00  0.00000000000E+00  0.45593999997E+02  0.45594000000E+02  0.51100000000E-03 0.  1.
         11   -1    0    0    0    0 -0.00000000000E+00 -0.00000000000E+00 -0.45593999997E+02  0.45594000000E+02  0.51100000000E-03 0. -1.
    9900012    2    1    2    0    0 -0.93753624657E+01  0.34096840146E+02  0.20066730798E+02  0.50528860631E+02  0.30000002375E+02 0.  0.
         12    1    1    2    0    0  0.93753624657E+01 -0.34096840146E+02 -0.20066730798E+02  0.40659139369E+02  0.00000000000E+00 0. -1.
         11    1    3    3    0    0  0.26925765372E+01 -0.28826948350E+01  0.45069708591E+00  0.39702677548E+01  0.51100000000E-03 0. -1.
        -11    1    3    3    0    0 -0.15141550370E+02  0.25231066167E+02  0.10033438433E+02  0.31089276842E+02  0.51100000000E-03 0.  1.
         12    1    3    3    0    0  0.30736113669E+01  0.11748468813E+02  0.95825952786E+01  0.15469316034E+02  0.00000000000E+00 0. -1.
</event>
<event>
 7    1  0.2991278E-011  0.5052885E+02  0.7816164E-02  0.1300439E+00
        -11   -1    0    0    0    0  0.00000000000E+00  0.00000000000E+00  0.45593999997E+02  0.45594000000E+02  0.51100000000E-03 0.  1.
         11   -1    0    0    0    0 -0.00000000000E+00 -0.00000000000E+00 -0.45593999997E+02  0.45594000000E+02  0.51100000000E-03 0. -1.
    9900012    2    1    2    0    0  0.72985400158E+00  0.97408080866E+01  0.39468342775E+02  0.50528854529E+02  0.29999983827E+02 0.  0.
         12    1    1    2    0    0 -0.72985400158E+00 -0.97408080866E+01 -0.39468342775E+02  0.40659145471E+02  0.00000000000E+00 0. -1.
         11    1    3    3    0    0  0.73679642104E+01  0.14715172665E+02  0.18591242313E+02  0.24828562064E+02  0.51100000000E-03 0.  1.
        -11    1    3    3    0    0 -0.10203447092E+02 -0.42562360430E+01  0.17710796785E+02  0.20878175228E+02  0.51100000000E-03 0. -1.
         12    1    3    3    0    0  0.35653368827E+01 -0.71812853528E+00  0.31663036762E+01  0.48221172373E+01  0.00000000000E+00 0. -1.
</event>
<event>
 7    1  0.2991278E-011  0.5052886E+02  0.7816164E-02  0.1300439E+00
        -11   -1    0    0    0    0  0.00000000000E+00  0.00000000000E+00  0.45593999997E+02  0.45594000000E+02  0.51100000000E-03 0.  1.
         11   -1    0    0    0    0 -0.00000000000E+00 -0.00000000000E+00 -0.45593999997E+02  0.45594000000E+02  0.51100000000E-03 0. -1.
    9900012    2    1    2    0    0  0.16233120303E+02  0.15153107728E+02  0.34059285169E+02  0.50528858656E+02  0.29999996372E+02 0.  0.
         12    1    1    2    0    0 -0.16233120303E+02 -0.15153107728E+02 -0.34059285169E+02  0.40659141344E+02  0.00000000000E+00 0. -1.
         11    1    3    3    0    0  0.20181527911E+01  0.71416282068E+00 -0.41310611615E+00  0.21802812082E+01  0.51100000000E-03 0. -1.
        -11    1    3    3    0    0  0.12960340175E+02  0.69878652923E+01  0.37439594378E+02  0.40230882493E+02  0.51100000000E-03 0.  1.
        -12    1    3    3    0    0  0.12546273374E+01  0.74510796150E+01 -0.29672030926E+01  0.81176949547E+01  0.00000000000E+00 0.  1.
</event>
<event>
 7    1  0.2991278E-011  0.5052884E+02  0.7816164E-02  0.1300439E+00
        -11   -1    0    0    0    0  0.00000000000E+00  0.00000000000E+00  0.45593999997E+02  0.45594000000E+02  0.51100000000E-03 0. -1.
         11   -1    0    0    0    0 -0.00000000000E+00 -0.00000000000E+00 -0.45593999997E+02  0.45594000000E+02  0.51100000000E-03 0.  1.
    9900012    2    1    2    0    0 -0.19166435776E+02  0.35460868526E+02 -0.53236682478E+01  0.50528844812E+02  0.29999954291E+02 0.  0.
         12    1    1    2    0    0  0.19166435776E+02 -0.35460868526E+02  0.53236682478E+01  0.40659155188E+02  0.00000000000E+00 0. -1.
         11    1    3    3    0    0 -0.31117709723E+01  0.18330840943E+02 -0.95852422457E+01  0.20918406188E+02  0.51100000000E-03 0. -1.
        -11    1    3    3    0    0 -0.16018269572E+02  0.20120193459E+02  0.18779805926E+01  0.25786313352E+02  0.51100000000E-03 0.  1.
        -12    1    3    3    0    0 -0.36395231797E-01 -0.29901658762E+01  0.23835934052E+01  0.38241252727E+01  0.00000000000E+00 0.  1.
</event>
<event>
 7    1  0.2991278E-011  0.5052885E+02  0.7816164E-02  0.1300439E+00
        -11   -1    0    0    0    0  0.00000000000E+00  0.00000000000E+00  0.45593999997E+02  0.45594000000E+02  0.51100000000E-03 0. -1.
         11   -1    0    0    0    0 -0.00000000000E+00 -0.00000000000E+00 -0.45593999997E+02  0.45594000000E+02  0.51100000000E-03 0.  1.
    9900012    2    1    2    0    0 -0.21694092961E+02  0.33804347925E+02 -0.63086144320E+01  0.50528853131E+02  0.29999979578E+02 0.  0.
         12    1    1    2    0    0  0.21694092961E+02 -0.33804347925E+02  0.63086144320E+01  0.40659146869E+02  0.00000000000E+00 0. -1.
         11    1    3    3    0    0 -0.66367715147E+01  0.11249636210E+02 -0.13411732224E+02  0.18720993898E+02  0.51100000000E-03 0. -1.
        -11    1    3    3    0    0 -0.17169891764E+02  0.14791003392E+02  0.32753209624E+01  0.22897744260E+02  0.51100000000E-03 0.  1.
         12    1    3    3    0    0  0.21125703180E+01  0.77637083226E+01  0.38277968300E+01  0.89101149734E+01  0.00000000000E+00 0. -1.
</event>
<event>
 7    1  0.2991278E-011  0.5052886E+02  0.7816164E-02  0.1300439E+00
        -11   -1    0    0    0    0  0.00000000000E+00  0.00000000000E+00  0.45593999997E+02  0.45594000000E+02  0.51100000000E-03 0. -1.
         11   -1    0    0    0    0 -0.00000000000E+00 -0.00000000000E+00 -0.45593999997E+02  0.45594000000E+02  0.51100000000E-03 0.  1.
    9900012    2    1    2    0    0 -0.39952970774E+02  0.62793238767E+01  0.41827862805E+01  0.50528862244E+02  0.30000007277E+02 0.  0.
         12    1    1    2    0    0  0.39952970774E+02 -0.62793238767E+01 -0.41827862805E+01  0.40659137756E+02  0.00000000000E+00 0. -1.
         11    1    3    3    0    0 -0.97416861700E+00  0.27278273703E+01  0.85338802954E+01  0.90120563588E+01  0.51100000000E-03 0. -1.
        -11    1    3    3    0    0 -0.38994708320E+02  0.28029044809E+01 -0.21080701393E+01  0.39152107356E+02  0.51100000000E-03 0.  1.
        -12    1    3    3    0    0  0.15906162683E-01  0.74859202549E+00 -0.22430238756E+01  0.23646985290E+01  0.00000000000E+00 0.  1.
</event>
<event>
 7    1  0.2991278E-011  0.5052891E+02  0.7816164E-02  0.1300439E+00
        -11   -1    0    0    0    0  0.00000000000E+00  0.00000000000E+00  0.45593999997E+02  0.45594000000E+02  0.51100000000E-03 0.  1.
         11   -1    0    0    0    0 -0.00000000000E+00 -0.00000000000E+00 -0.45593999997E+02  0.45594000000E+02  0.51100000000E-03 0. -1.
    9900012    2    1    2    0    0 -0.39583096139E+02 -0.64531473100E+01  0.66856062539E+01  0.50528905800E+02  0.30000139671E+02 0.  0.
         12    1    1    2    0    0  0.39583096139E+02  0.64531473100E+01 -0.66856062539E+01  0.40659094200E+02  0.00000000000E+00 0. -1.
         11    1    3    3    0    0 -0.78545430317E+01  0.52069308956E+01 -0.11216812971E+01  0.94902131052E+01  0.51100000000E-03 0. -1.
        -11    1    3    3    0    0 -0.14837916406E+02 -0.15107611128E+02 -0.18896161751E+01  0.21259687834E+02  0.51100000000E-03 0.  1.
        -12    1    3    3    0    0 -0.16890636702E+02  0.34475329220E+01  0.96969037261E+01  0.19779004861E+02  0.00000000000E+00 0.  1.
</event>
<event>
 7    1  0.2991278E-011  0.5052886E+02  0.7816164E-02  0.1300439E+00
        -11   -1    0    0    0    0  0.00000000000E+00  0.00000000000E+00  0.45593999997E+02  0.45594000000E+02  0.51100000000E-03 0.  1.
         11   -1    0    0    0    0 -0.00000000000E+00 -0.00000000000E+00 -0.45593999997E+02  0.45594000000E+02  0.51100000000E-03 0. -1.
    9900012    2    1    2    0    0 -0.60458110640E+01 -0.38854910678E+02  0.10339725487E+02  0.50528857875E+02  0.29999993996E+02 0.  0.
         12    1    1    2    0    0  0.60458110640E+01  0.38854910678E+02 -0.10339725487E+02  0.40659142125E+02  0.00000000000E+00 0. -1.
         11    1    3    3    0    0 -0.45167671393E+01  0.24905161055E+01 -0.64436296454E+00  0.51979861248E+01  0.51100000000E-03 0. -1.
        -11    1    3    3    0    0 -0.66995237411E+01 -0.24006750807E+02  0.16671541054E+01  0.24979733900E+02  0.51100000000E-03 0.  1.
        -12    1    3    3    0    0  0.51704798164E+01 -0.17338675976E+02  0.93169343465E+01  0.20351137849E+02  0.00000000000E+00 0.  1.
</event>
<event>
 7    1  0.2991278E-011  0.5052886E+02  0.7816164E-02  0.1300439E+00
        -11   -1    0    0    0    0  0.00000000000E+00  0.00000000000E+00  0.45593999997E+02  0.45594000000E+02  0.51100000000E-03 0. -1.
         11   -1    0    0    0    0 -0.00000000000E+00 -0.00000000000E+00 -0.45593999997E+02  0.45594000000E+02  0.51100000000E-03 0.  1.
    9900012    2    1    2    0    0 -0.24372202710E+02  0.28611201346E+02  0.15510019077E+02  0.50528858357E+02  0.29999995461E+02 0.  0.
         12    1    1    2    0    0  0.24372202710E+02 -0.28611201346E+02 -0.15510019077E+02  0.40659141643E+02  0.00000000000E+00 0. -1.
         11    1    3    3    0    0 -0.19259132405E+02  0.13132065551E+02  0.18800642969E+02  0.29947111762E+02  0.51100000000E-03 0. -1.
        -11    1    3    3    0    0 -0.71205414182E+00  0.15644949299E+02 -0.12013076082E+01  0.15707151235E+02  0.51100000000E-03 0.  1.
         12    1    3    3    0    0 -0.44010161633E+01 -0.16581350425E+00 -0.20893162833E+01  0.48745953596E+01  0.00000000000E+00 0. -1.
</event>
<event>
 7    1  0.2991278E-011  0.5052887E+02  0.7816164E-02  0.1300439E+00
        -11   -1    0    0    0    0  0.00000000000E+00  0.00000000000E+00  0.45593999997E+02  0.45594000000E+02  0.51100000000E-03 0. -1.
         11   -1    0    0    0    0 -0.00000000000E+00 -0.00000000000E+00 -0.45593999997E+02  0.45594000000E+02  0.51100000000E-03 0.  1.
    9900012    2    1    2    0    0  0.13537979577E+02  0.37604366598E+02 -0.74699262377E+01  0.50528867246E+02  0.30000022481E+02 0.  0.
         12    1    1    2    0    0 -0.13537979577E+02 -0.37604366598E+02  0.74699262377E+01  0.40659132754E+02  0.00000000000E+00 0. -1.
         11    1    3    3    0    0 -0.58882888941E+01  0.21713354872E+02 -0.92268840287E+00  0.22516506835E+02  0.51100000000E-03 0. -1.
        -11    1    3    3    0    0  0.12383995936E+02  0.15556339462E+02 -0.66351548275E+01  0.20961591844E+02  0.51100000000E-03 0.  1.
         12    1    3    3    0    0  0.70422725357E+01  0.33467226488E+00  0.87916992697E-01  0.70507685673E+01  0.00000000000E+00 0. -1.
</event>
<event>
 7    1  0.2991278E-011  0.5052886E+02  0.7816164E-02  0.1300439E+00
        -11   -1    0    0    0    0  0.00000000000E+00  0.00000000000E+00  0.45593999997E+02  0.45594000000E+02  0.51100000000E-03 0. -1.
         11   -1    0    0    0    0 -0.00000000000E+00 -0.00000000000E+00 -0.45593999997E+02  0.45594000000E+02  0.51100000000E-03 0.  1.
    9900012    2    1    2    0    0 -0.72216365791E+01  0.88771523822E+01 -0.39015511706E+02  0.50528855604E+02  0.29999987094E+02 0.  0.
         12    1    1    2    0    0  0.72216365791E+01 -0.88771523822E+01  0.39015511706E+02  0.40659144396E+02  0.00000000000E+00 0. -1.
         11    1    3    3    0    0  0.23325817676E+01  0.72168879568E+01  0.22148246244E+00  0.75877179854E+01  0.51100000000E-03 0. -1.
        -11    1    3    3    0    0 -0.12284222986E+02 -0.20421384344E+01 -0.24196681456E+02  0.27213082470E+02  0.51100000000E-03 0.  1.
         12    1    3    3    0    0  0.27300046397E+01  0.37024028598E+01 -0.15040312713E+02  0.15728055149E+02  0.00000000000E+00 0. -1.
</event>
<event>
 7    1  0.2991278E-011  0.5052886E+02  0.7816164E-02  0.1300439E+00
        -11   -1    0    0    0    0  0.00000000000E+00  0.00000000000E+00  0.45593999997E+02  0.45594000000E+02  0.51100000000E-03 0. -1.
         11   -1    0    0    0    0 -0.00000000000E+00 -0.00000000000E+00 -0.45593999997E+02  0.45594000000E+02  0.51100000000E-03 0.  1.
    9900012    2    1    2    0    0 -0.14424308459E+02  0.28122093012E+02 -0.25578371376E+02  0.50528857459E+02  0.29999992732E+02 0.  0.
         12    1    1    2    0    0  0.14424308459E+02 -0.28122093012E+02  0.25578371376E+02  0.40659142541E+02  0.00000000000E+00 0. -1.
         11    1    3    3    0    0 -0.52018537043E+00  0.69552795874E+01 -0.13600683201E+02  0.15284799337E+02  0.51100000000E-03 0. -1.
        -11    1    3    3    0    0 -0.75370466966E+01 -0.27550897096E+01 -0.74272691017E+00  0.80591088676E+01  0.51100000000E-03 0.  1.
        -12    1    3    3    0    0 -0.63670763923E+01  0.23921903134E+02 -0.11234961265E+02  0.27184949255E+02  0.00000000000E+00 0.  1.
</event>
<event>
 7    1  0.2991278E-011  0.5052876E+02  0.7816164E-02  0.1300439E+00
        -11   -1    0    0    0    0  0.00000000000E+00  0.00000000000E+00  0.45593999997E+02  0.45594000000E+02  0.51100000000E-03 0. -1.
         11   -1    0    0    0    0 -0.00000000000E+00 -0.00000000000E+00 -0.45593999997E+02  0.45594000000E+02  0.51100000000E-03 0.  1.
    9900012    2    1    2    0    0  0.26752351349E+02 -0.10844774767E+02 -0.28633477285E+02  0.50528764101E+02  0.29999708960E+02 0.  0.
         12    1    1    2    0    0 -0.26752351349E+02  0.10844774767E+02  0.28633477285E+02  0.40659235899E+02  0.00000000000E+00 0. -1.
         11    1    3    3    0    0  0.60461572325E+01  0.17882748304E+00  0.27844226375E+01  0.66589042818E+01  0.51100000000E-03 0. -1.
        -11    1    3    3    0    0  0.20117986243E+02 -0.76845366023E+01 -0.33548241503E+02  0.39865649142E+02  0.51100000000E-03 0.  1.
         12    1    3    3    0    0  0.58820787352E+00 -0.33390656476E+01  0.21303415807E+01  0.40042106777E+01  0.00000000000E+00 0. -1.
</event>
<event>
 7    1  0.2991278E-011  0.5052885E+02  0.7816164E-02  0.1300439E+00
        -11   -1    0    0    0    0  0.00000000000E+00  0.00000000000E+00  0.45593999997E+02  0.45594000000E+02  0.51100000000E-03 0.  1.
         11   -1    0    0    0    0 -0.00000000000E+00 -0.00000000000E+00 -0.45593999997E+02  0.45594000000E+02  0.51100000000E-03 0. -1.
    9900012    2    1    2    0    0 -0.38164631041E+02  0.20785677881E+01  0.13867489295E+02  0.50528846469E+02  0.29999959326E+02 0.  0.
         12    1    1    2    0    0  0.38164631041E+02 -0.20785677881E+01 -0.13867489295E+02  0.40659153531E+02  0.00000000000E+00 0. -1.
         11    1    3    3    0    0  0.24326018250E+01 -0.58552907725E-02 -0.20993990799E+01  0.32132635562E+01  0.51100000000E-03 0. -1.
        -11    1    3    3    0    0 -0.39525690859E+02  0.48298615716E+01  0.10622078531E+02  0.41212089892E+02  0.51100000000E-03 0.  1.
        -12    1    3    3    0    0 -0.10715420072E+01 -0.27454384927E+01  0.53448098437E+01  0.61034930209E+01  0.00000000000E+00 0.  1.
</event>
<event>
 7    1  0.2991278E-011  0.5052886E+02  0.7816164E-02  0.1300439E+00
        -11   -1    0    0    0    0  0.00000000000E+00  0.00000000000E+00  0.45593999997E+02  0.45594000000E+02  0.51100000000E-03 0.  1.
         11   -1    0    0    0    0 -0.00000000000E+00 -0.00000000000E+00 -0.45593999997E+02  0.45594000000E+02  0.51100000000E-03 0. -1.
    9900012    2    1    2    0    0 -0.22159434171E+02 -0.26483402743E+02  0.21465190969E+02  0.50528861213E+02  0.30000004142E+02 0.  0.
         12    1    1    2    0    0  0.22159434171E+02  0.26483402743E+02 -0.21465190969E+02  0.40659138787E+02  0.00000000000E+00 0. -1.
         11    1    3    3    0    0 -0.22775129044E+01  0.16767853759E+01  0.40706647292E+01  0.49567111904E+01  0.51100000000E-03 0. -1.
        -11    1    3    3    0    0 -0.21810897643E+02 -0.26050449230E+02  0.68659717474E+01  0.34662410899E+02  0.51100000000E-03 0.  1.
        -12    1    3    3    0    0  0.19289763764E+01 -0.21097388891E+01  0.10528554492E+02  0.10909739123E+02  0.00000000000E+00 0.  1.
</event>
<event>
 7    1  0.2991278E-011  0.5052886E+02  0.7816164E-02  0.1300439E+00
        -11   -1    0    0    0    0  0.00000000000E+00  0.00000000000E+00  0.45593999997E+02  0.45594000000E+02  0.51100000000E-03 0.  1.
         11   -1    0    0    0    0 -0.00000000000E+00 -0.00000000000E+00 -0.45593999997E+02  0.45594000000E+02  0.51100000000E-03 0. -1.
    9900012    2    1    2    0    0 -0.10757261138E+02 -0.34992449590E+02  0.17691113557E+02  0.50528859645E+02  0.29999999378E+02 0.  0.
         12    1    1    2    0    0  0.10757261138E+02  0.34992449590E+02 -0.17691113557E+02  0.40659140355E+02  0.00000000000E+00 0. -1.
         11    1    3    3    0    0  0.58342138820E+01  0.15492302242E+01  0.47488539905E+01  0.76804804793E+01  0.51100000000E-03 0. -1.
        -11    1    3    3    0    0 -0.15090017927E+02 -0.35988581430E+02  0.11472231312E+02  0.40675529817E+02  0.51100000000E-03 0.  1.
        -12    1    3    3    0    0 -0.15014570926E+01 -0.55309838425E+00  0.14700282542E+01  0.21728493487E+01  0.00000000000E+00 0.  1.
</event>
<event>
 7    1  0.2991278E-011  0.5052884E+02  0.7816164E-02  0.1300439E+00
        -11   -1    0    0    0    0  0.00000000000E+00  0.00000000000E+00  0.45593999997E+02  0.45594000000E+02  0.51100000000E-03 0.  1.
         11   -1    0    0    0    0 -0.00000000000E+00 -0.00000000000E+00 -0.45593999997E+02  0.45594000000E+02  0.51100000000E-03 0. -1.
    9900012    2    1    2    0    0  0.36316580999E+02  0.18282611689E+02  0.13892448921E+00  0.50528840569E+02  0.29999941392E+02 0.  0.
         12    1    1    2    0    0 -0.36316580999E+02 -0.18282611689E+02 -0.13892448921E+00  0.40659159431E+02  0.00000000000E+00 0. -1.
         11    1    3    3    0    0  0.24737480102E+02  0.19979717369E+02 -0.10258113805E+02  0.33411987775E+02  0.51100000000E-03 0. -1.
        -11    1    3    3    0    0  0.38922175900E+01 -0.37791131377E+01  0.27761123014E+01  0.60940834952E+01  0.51100000000E-03 0.  1.
         12    1    3    3    0    0  0.76868833071E+01  0.20820074574E+01  0.76209259924E+01  0.11022769299E+02  0.00000000000E+00 0. -1.
</event>
<event>
 7    1  0.2991278E-011  0.5052887E+02  0.7816164E-02  0.1300439E+00
        -11   -1    0    0    0    0  0.00000000000E+00  0.00000000000E+00  0.45593999997E+02  0.45594000000E+02  0.51100000000E-03 0.  1.
         11   -1    0    0    0    0 -0.00000000000E+00 -0.00000000000E+00 -0.45593999997E+02  0.45594000000E+02  0.51100000000E-03 0. -1.
    9900012    2    1    2    0    0  0.21639501306E+02  0.23718335893E+02  0.24946692344E+02  0.50528869006E+02  0.30000027830E+02 0.  0.
         12    1    1    2    0    0 -0.21639501306E+02 -0.23718335893E+02 -0.24946692344E+02  0.40659130994E+02  0.00000000000E+00 0. -1.
         11    1    3    3    0    0  0.16651017244E+02  0.61484111188E+00  0.97466463139E+01  0.19303665960E+02  0.51100000000E-03 0. -1.
        -11    1    3    3    0    0  0.76080655558E+01  0.20365812052E+02  0.16420030099E+02  0.27244565526E+02  0.51100000000E-03 0.  1.
        -12    1    3    3    0    0 -0.26195814941E+01  0.27376827297E+01 -0.12199840686E+01  0.39806375193E+01  0.00000000000E+00 0.  1.
</event>
<event>
 7    1  0.2991278E-011  0.5052886E+02  0.7816164E-02  0.1300439E+00
        -11   -1    0    0    0    0  0.00000000000E+00  0.00000000000E+00  0.45593999997E+02  0.45594000000E+02  0.51100000000E-03 0. -1.
         11   -1    0    0    0    0 -0.00000000000E+00 -0.00000000000E+00 -0.45593999997E+02  0.45594000000E+02  0.51100000000E-03 0.  1.
    9900012    2    1    2    0    0  0.26534812487E+02 -0.28379920109E+02 -0.11985382006E+02  0.50528861778E+02  0.30000005860E+02 0.  0.
         12    1    1    2    0    0 -0.26534812487E+02  0.28379920109E+02  0.11985382006E+02  0.40659138222E+02  0.00000000000E+00 0. -1.
         11    1    3    3    0    0  0.15981460494E+01 -0.60575316244E+00 -0.11202388952E+02  0.11332013333E+02  0.51100000000E-03 0. -1.
        -11    1    3    3    0    0  0.12831014461E+02 -0.81255709604E+01  0.38275607552E+01  0.15662377123E+02  0.51100000000E-03 0.  1.
         12    1    3    3    0    0  0.12105651977E+02 -0.19648595986E+02 -0.46105538100E+01  0.23534471323E+02  0.00000000000E+00 0. -1.
</event>
<event>
 7    1  0.2991278E-011  0.5052886E+02  0.7816164E-02  0.1300439E+00
        -11   -1    0    0    0    0  0.00000000000E+00  0.00000000000E+00  0.45593999997E+02  0.45594000000E+02  0.51100000000E-03 0. -1.
         11   -1    0    0    0    0 -0.00000000000E+00 -0.00000000000E+00 -0.45593999997E+02  0.45594000000E+02  0.51100000000E-03 0.  1.
    9900012    2    1    2    0    0 -0.40442692594E+02  0.19066656205E+01 -0.37308127198E+01  0.50528859310E+02  0.29999998359E+02 0.  0.
         12    1    1    2    0    0  0.40442692594E+02 -0.19066656205E+01  0.37308127198E+01  0.40659140690E+02  0.00000000000E+00 0. -1.
         11    1    3    3    0    0 -0.19838911783E+01  0.68942277378E+01  0.14626605955E+01  0.73215829291E+01  0.51100000000E-03 0. -1.
        -11    1    3    3    0    0 -0.31726080478E+02  0.35367044156E+01 -0.25277568227E+01  0.32022523564E+02  0.51100000000E-03 0.  1.
        -12    1    3    3    0    0 -0.67327209386E+01 -0.85242665329E+01 -0.26657164926E+01  0.11184752817E+02  0.00000000000E+00 0.  1.
</event>
<event>
 7    1  0.2991278E-011  0.5052887E+02  0.7816164E-02  0.1300439E+00
        -11   -1    0    0    0    0  0.00000000000E+00  0.00000000000E+00  0.45593999997E+02  0.45594000000E+02  0.51100000000E-03 0.  1.
         11   -1    0    0    0    0 -0.00000000000E+00 -0.00000000000E+00 -0.45593999997E+02  0.45594000000E+02  0.51100000000E-03 0. -1.
    9900012    2    1    2    0    0 -0.10665910065E+02 -0.35663108421E+02  0.16356823638E+02  0.50528872866E+02  0.30000039564E+02 0.  0.
         12    1    1    2    0    0  0.10665910065E+02  0.35663108421E+02 -0.16356823638E+02  0.40659127134E+02  0.00000000000E+00 0. -1.
         11    1    3    3    0    0  0.17260206093E+01 -0.87540139540E+01  0.10249263227E+02  0.13588940518E+02  0.51100000000E-03 0. -1.
        -11    1    3    3    0    0 -0.85912649640E+01 -0.10372219746E+01 -0.31365341303E+01  0.92045374527E+01  0.51100000000E-03 0.  1.
        -12    1    3    3    0    0 -0.38006657107E+01 -0.25871872493E+02  0.92440945411E+01  0.27735394895E+02  0.00000000000E+00 0.  1.
</event>
<event>
 7    1  0.2991278E-011  0.5052887E+02  0.7816164E-02  0.1300439E+00
        -11   -1    0    0    0    0  0.00000000000E+00  0.00000000000E+00  0.45593999997E+02  0.45594000000E+02  0.51100000000E-03 0.  1.
         11   -1    0    0    0    0 -0.00000000000E+00 -0.00000000000E+00 -0.45593999997E+02  0.45594000000E+02  0.51100000000E-03 0. -1.
    9900012    2    1    2    0    0 -0.21570079715E+02  0.34300853515E+02  0.33686395827E+01  0.50528872816E+02  0.30000039411E+02 0.  0.
         12    1    1    2    0    0  0.21570079715E+02 -0.34300853515E+02 -0.33686395827E+01  0.40659127184E+02  0.00000000000E+00 0. -1.
         11    1    3    3    0    0 -0.14787923677E+01  0.15939212752E+02 -0.67597600509E+01  0.17376411776E+02  0.51100000000E-03 0. -1.
        -11    1    3    3    0    0 -0.22503254599E+02  0.16097896357E+02  0.68683860953E+01  0.28508129761E+02  0.51100000000E-03 0.  1.
         12    1    3    3    0    0  0.24119672515E+01  0.22637444066E+01  0.32600135383E+01  0.46443312791E+01  0.00000000000E+00 0. -1.
</event>
<event>
 7    1  0.2991278E-011  0.5052886E+02  0.7816164E-02  0.1300439E+00
        -11   -1    0    0    0    0  0.00000000000E+00  0.00000000000E+00  0.45593999997E+02  0.45594000000E+02  0.51100000000E-03 0.  1.
         11   -1    0    0    0    0 -0.00000000000E+00 -0.00000000000E+00 -0.45593999997E+02  0.45594000000E+02  0.51100000000E-03 0. -1.
    9900012    2    1    2    0    0  0.31366283993E+02  0.25650873408E+02 -0.33696922772E+01  0.50528857066E+02  0.29999991537E+02 0.  0.
         12    1    1    2    0    0 -0.31366283993E+02 -0.25650873408E+02  0.33696922772E+01  0.40659142934E+02  0.00000000000E+00 0. -1.
         11    1    3    3    0    0 -0.25865157876E+00 -0.18073773993E+01 -0.56817353489E+01  0.59678832545E+01  0.51100000000E-03 0. -1.
        -11    1    3    3    0    0  0.20355676777E+02  0.24447098636E+02  0.59049303579E+01  0.32355562297E+02  0.51100000000E-03 0.  1.
        -12    1    3    3    0    0  0.11269258794E+02  0.30111521712E+01 -0.35928872862E+01  0.12205411514E+02  0.00000000000E+00 0.  1.
</event>
<event>
 7    1  0.2991278E-011  0.5052887E+02  0.7816164E-02  0.1300439E+00
        -11   -1    0    0    0    0  0.00000000000E+00  0.00000000000E+00  0.45593999997E+02  0.45594000000E+02  0.51100000000E-03 0.  1.
         11   -1    0    0    0    0 -0.00000000000E+00 -0.00000000000E+00 -0.45593999997E+02  0.45594000000E+02  0.51100000000E-03 0. -1.
    9900012    2    1    2    0    0 -0.20827282393E+02  0.14082078562E+02  0.31954412466E+02  0.50528866899E+02  0.30000021425E+02 0.  0.
         12    1    1    2    0    0  0.20827282393E+02 -0.14082078562E+02 -0.31954412466E+02  0.40659133101E+02  0.00000000000E+00 0. -1.
         11    1    3    3    0    0  0.59709585633E+01 -0.31592883864E+00  0.32049252171E+01  0.67840771741E+01  0.51100000000E-03 0. -1.
        -11    1    3    3    0    0 -0.22099907795E+02  0.14591536227E+02  0.28687344562E+02  0.39042061834E+02  0.51100000000E-03 0.  1.
         12    1    3    3    0    0 -0.46983331608E+01 -0.19352882557E+00  0.62142687040E-01  0.47027278902E+01  0.00000000000E+00 0. -1.
</event>
<event>
 7    1  0.2991278E-011  0.5052886E+02  0.7816164E-02  0.1300439E+00
        -11   -1    0    0    0    0  0.00000000000E+00  0.00000000000E+00  0.45593999997E+02  0.45594000000E+02  0.51100000000E-03 0.  1.
         11   -1    0    0    0    0 -0.00000000000E+00 -0.00000000000E+00 -0.45593999997E+02  0.45594000000E+02  0.51100000000E-03 0. -1.
    9900012    2    1    2    0    0  0.28331239108E+02 -0.24333610510E+02  0.16074255395E+02  0.50528863310E+02  0.30000010517E+02 0.  0.
         12    1    1    2    0    0 -0.28331239108E+02  0.24333610510E+02 -0.16074255395E+02  0.40659136690E+02  0.00000000000E+00 0. -1.
         11    1    3    3    0    0  0.15759867922E+02 -0.10644200342E+02 -0.37860799394E+01  0.19390895786E+02  0.51100000000E-03 0. -1.
        -11    1    3    3    0    0  0.10028111834E+02 -0.17036969501E+02  0.16052093281E+02  0.25465487541E+02  0.51100000000E-03 0.  1.
        -12    1    3    3    0    0  0.25432593529E+01  0.33475593325E+01  0.38082420538E+01  0.56724799833E+01  0.00000000000E+00 0.  1.
</event>
<event>
 7    1  0.2991278E-011  0.5052886E+02  0.7816164E-02  0.1300439E+00
        -11   -1    0    0    0    0  0.00000000000E+00  0.00000000000E+00  0.45593999997E+02  0.45594000000E+02  0.51100000000E-03 0. -1.
         11   -1    0    0    0    0 -0.00000000000E+00 -0.00000000000E+00 -0.45593999997E+02  0.45594000000E+02  0.51100000000E-03 0.  1.
    9900012    2    1    2    0    0  0.22842017813E+02  0.26157703077E+02 -0.21146694087E+02  0.50528857377E+02  0.29999992483E+02 0.  0.
         12    1    1    2    0    0 -0.22842017813E+02 -0.26157703077E+02  0.21146694087E+02  0.40659142623E+02  0.00000000000E+00 0. -1.
         11    1    3    3    0    0 -0.77043291369E+00 -0.16481178472E+01 -0.42803047822E+01  0.46508997627E+01  0.51100000000E-03 0. -1.
        -11    1    3    3    0    0  0.40984735753E+01  0.20782408349E+02 -0.12781421312E+02  0.24740062923E+02  0.51100000000E-03 0.  1.
        -12    1    3    3    0    0  0.19513977151E+02  0.70234125751E+01 -0.40849679933E+01  0.21137894691E+02  0.00000000000E+00 0.  1.
</event>
<event>
 7    1  0.2991278E-011  0.5052886E+02  0.7816164E-02  0.1300439E+00
        -11   -1    0    0    0    0  0.00000000000E+00  0.00000000000E+00  0.45593999997E+02  0.45594000000E+02  0.51100000000E-03 0.  1.
         11   -1    0    0    0    0 -0.00000000000E+00 -0.00000000000E+00 -0.45593999997E+02  0.45594000000E+02  0.51100000000E-03 0. -1.
    9900012    2    1    2    0    0  0.39486074843E+02 -0.63878162449E+01  0.72946116949E+01  0.50528860035E+02  0.30000000563E+02 0.  0.
         12    1    1    2    0    0 -0.39486074843E+02  0.63878162449E+01 -0.72946116949E+01  0.40659139965E+02  0.00000000000E+00 0. -1.
         11    1    3    3    0    0  0.26162599031E+01  0.37221277344E+01 -0.45088177055E+01  0.64053483991E+01  0.51100000000E-03 0. -1.
        -11    1    3    3    0    0  0.35593537654E+02 -0.78626504396E+01  0.15502357830E+02  0.39611163745E+02  0.51100000000E-03 0.  1.
        -12    1    3    3    0    0  0.12762772859E+01 -0.22472935397E+01 -0.36989284296E+01  0.45123478912E+01  0.00000000000E+00 0.  1.
</event>
<event>
 7    1  0.2991278E-011  0.5052885E+02  0.7816164E-02  0.1300439E+00
        -11   -1    0    0    0    0  0.00000000000E+00  0.00000000000E+00  0.45593999997E+02  0.45594000000E+02  0.51100000000E-03 0. -1.
         11   -1    0    0    0    0 -0.00000000000E+00 -0.00000000000E+00 -0.45593999997E+02  0.45594000000E+02  0.51100000000E-03 0.  1.
    9900012    2    1    2    0    0 -0.38880021405E+02 -0.49402866602E+01 -0.10821444898E+02  0.50528853840E+02  0.29999981734E+02 0.  0.
         12    1    1    2    0    0  0.38880021405E+02  0.49402866602E+01  0.10821444898E+02  0.40659146160E+02  0.00000000000E+00 0. -1.
         11    1    3    3    0    0 -0.29887996138E+02 -0.14024465153E+02 -0.14213493380E+02  0.35944420017E+02  0.51100000000E-03 0. -1.
        -11    1    3    3    0    0 -0.47880814192E+01  0.71956659587E+01 -0.34656572855E+00  0.86500543542E+01  0.51100000000E-03 0.  1.
         12    1    3    3    0    0 -0.42039438479E+01  0.18885125345E+01  0.37386142114E+01  0.59343794697E+01  0.00000000000E+00 0. -1.
</event>
<event>
 7    1  0.2991278E-011  0.5052886E+02  0.7816164E-02  0.1300439E+00
        -11   -1    0    0    0    0  0.00000000000E+00  0.00000000000E+00  0.45593999997E+02  0.45594000000E+02  0.51100000000E-03 0.  1.
         11   -1    0    0    0    0 -0.00000000000E+00 -0.00000000000E+00 -0.45593999997E+02  0.45594000000E+02  0.51100000000E-03 0. -1.
    9900012    2    1    2    0    0  0.18335117818E+02 -0.64580065796E+01  0.35711105041E+02  0.50528863049E+02  0.30000009722E+02 0.  0.
         12    1    1    2    0    0 -0.18335117818E+02  0.64580065796E+01 -0.35711105041E+02  0.40659136951E+02  0.00000000000E+00 0. -1.
         11    1    3    3    0    0  0.16964315115E+02  0.65465953382E+01  0.14959076695E+02  0.23546122263E+02  0.51100000000E-03 0. -1.
        -11    1    3    3    0    0 -0.35179012829E+01 -0.18351394784E+00  0.40866067617E+01  0.53953370507E+01  0.51100000000E-03 0.  1.
         12    1    3    3    0    0  0.48887039868E+01 -0.12821087970E+02  0.16665421585E+02  0.21587403734E+02  0.00000000000E+00 0. -1.
</event>
<event>
 7    1  0.2991278E-011  0.5052886E+02  0.7816164E-02  0.1300439E+00
        -11   -1    0    0    0    0  0.00000000000E+00  0.00000000000E+00  0.45593999997E+02  0.45594000000E+02  0.51100000000E-03 0. -1.
         11   -1    0    0    0    0 -0.00000000000E+00 -0.00000000000E+00 -0.45593999997E+02  0.45594000000E+02  0.51100000000E-03 0.  1.
    9900012    2    1    2    0    0  0.24966484005E+02  0.27347755479E+02 -0.16791086247E+02  0.50528860429E+02  0.30000001761E+02 0.  0.
         12    1    1    2    0    0 -0.24966484005E+02 -0.27347755479E+02  0.16791086247E+02  0.40659139571E+02  0.00000000000E+00 0. -1.
         11    1    3    3    0    0  0.13315358290E+02 -0.34292503352E+01 -0.68704252495E+01  0.15370792681E+02  0.51100000000E-03 0. -1.
        -11    1    3    3    0    0  0.51002965649E+01  0.22199070280E+02 -0.51224680068E+01  0.23346336438E+02  0.51100000000E-03 0.  1.
        -12    1    3    3    0    0  0.65508291494E+01  0.85779355337E+01 -0.47981929910E+01  0.11811731310E+02  0.00000000000E+00 0.  1.
</event>
<event>
 7    1  0.2991278E-011  0.5052887E+02  0.7816164E-02  0.1300439E+00
        -11   -1    0    0    0    0  0.00000000000E+00  0.00000000000E+00  0.45593999997E+02  0.45594000000E+02  0.51100000000E-03 0.  1.
         11   -1    0    0    0    0 -0.00000000000E+00 -0.00000000000E+00 -0.45593999997E+02  0.45594000000E+02  0.51100000000E-03 0. -1.
    9900012    2    1    2    0    0 -0.35696036874E+02  0.11939938311E+02  0.15375166615E+02  0.50528869122E+02  0.30000028182E+02 0.  0.
         12    1    1    2    0    0  0.35696036874E+02 -0.11939938311E+02 -0.15375166615E+02  0.40659130878E+02  0.00000000000E+00 0. -1.
         11    1    3    3    0    0 -0.21656993955E+02  0.11744817359E+02 -0.37839039595E+00  0.24639588095E+02  0.51100000000E-03 0. -1.
        -11    1    3    3    0    0 -0.14574080176E+02  0.44674923868E+01  0.15236558864E+02  0.21552610688E+02  0.51100000000E-03 0.  1.
        -12    1    3    3    0    0  0.53503725714E+00 -0.42723714345E+01  0.51699814723E+00  0.43366703386E+01  0.00000000000E+00 0.  1.
</event>
<event>
 7    1  0.2991278E-011  0.5052886E+02  0.7816164E-02  0.1300439E+00
        -11   -1    0    0    0    0  0.00000000000E+00  0.00000000000E+00  0.45593999997E+02  0.45594000000E+02  0.51100000000E-03 0.  1.
         11   -1    0    0    0    0 -0.00000000000E+00 -0.00000000000E+00 -0.45593999997E+02  0.45594000000E+02  0.51100000000E-03 0. -1.
    9900012    2    1    2    0    0 -0.36128535946E+02 -0.17059541177E+02  0.75410194476E+01  0.50528855530E+02  0.29999986868E+02 0.  0.
         12    1    1    2    0    0  0.36128535946E+02  0.17059541177E+02 -0.75410194476E+01  0.40659144470E+02  0.00000000000E+00 0. -1.
         11    1    3    3    0    0 -0.14834453469E+02 -0.51961727612E+01 -0.66148693601E+01  0.17053378492E+02  0.51100000000E-03 0. -1.
        -11    1    3    3    0    0 -0.11109491711E+02 -0.73231235130E+01  0.17360665274E+02  0.21873308919E+02  0.51100000000E-03 0.  1.
        -12    1    3    3    0    0 -0.10184590766E+02 -0.45402449028E+01 -0.32047764659E+01  0.11602168118E+02  0.00000000000E+00 0.  1.
</event>
<event>
 7    1  0.2991278E-011  0.5052884E+02  0.7816164E-02  0.1300439E+00
        -11   -1    0    0    0    0  0.00000000000E+00  0.00000000000E+00  0.45593999997E+02  0.45594000000E+02  0.51100000000E-03 0. -1.
         11   -1    0    0    0    0 -0.00000000000E+00 -0.00000000000E+00 -0.45593999997E+02  0.45594000000E+02  0.51100000000E-03 0.  1.
    9900012    2    1    2    0    0  0.34458214438E+02  0.21442256506E+02  0.24552034624E+01  0.50528844446E+02  0.29999953179E+02 0.  0.
         12    1    1    2    0    0 -0.34458214438E+02 -0.21442256506E+02 -0.24552034624E+01  0.40659155554E+02  0.00000000000E+00 0. -1.
         11    1    3    3    0    0  0.24039543839E+02  0.11052123983E+02  0.11511671940E+02  0.28854249317E+02  0.51100000000E-03 0. -1.
        -11    1    3    3    0    0  0.88977737087E+01  0.23823777826E+01 -0.98491377139E+01  0.13485236922E+02  0.51100000000E-03 0.  1.
         12    1    3    3    0    0  0.15208968899E+01  0.80077547402E+01  0.79266923610E+00  0.81893582073E+01  0.00000000000E+00 0. -1.
</event>
<event>
 7    1  0.2991278E-011  0.5052885E+02  0.7816164E-02  0.1300439E+00
        -11   -1    0    0    0    0  0.00000000000E+00  0.00000000000E+00  0.45593999997E+02  0.45594000000E+02  0.51100000000E-03 0.  1.
         11   -1    0    0    0    0 -0.00000000000E+00 -0.00000000000E+00 -0.45593999997E+02  0.45594000000E+02  0.51100000000E-03 0. -1.
    9900012    2    1    2    0    0  0.38973994747E+01  0.20720001000E+02  0.34765759438E+02  0.50528853508E+02  0.29999980724E+02 0.  0.
         12    1    1    2    0    0 -0.38973994747E+01 -0.20720001000E+02 -0.34765759438E+02  0.40659146492E+02  0.00000000000E+00 0. -1.
         11    1    3    3    0    0  0.30987105044E+01  0.14134838395E+02  0.10861173036E+02  0.18093113144E+02  0.51100000000E-03 0. -1.
        -11    1    3    3    0    0 -0.22631082610E+01 -0.17857233813E+01 -0.29595616847E+01  0.41315218289E+01  0.51100000000E-03 0.  1.
        -12    1    3    3    0    0  0.30617972313E+01  0.83708859856E+01  0.26864148087E+02  0.28304218536E+02  0.00000000000E+00 0.  1.
</event>
<event>
 7    1  0.2991278E-011  0.5052885E+02  0.7816164E-02  0.1300439E+00
        -11   -1    0    0    0    0  0.00000000000E+00  0.00000000000E+00  0.45593999997E+02  0.45594000000E+02  0.51100000000E-03 0. -1.
         11   -1    0    0    0    0 -0.00000000000E+00 -0.00000000000E+00 -0.45593999997E+02  0.45594000000E+02  0.51100000000E-03 0.  1.
    9900012    2    1    2    0    0 -0.17413014609E+02 -0.36723401174E+02  0.11596772462E+01  0.50528854376E+02  0.29999983360E+02 0.  0.
         12    1    1    2    0    0  0.17413014609E+02  0.36723401174E+02 -0.11596772462E+01  0.40659145624E+02  0.00000000000E+00 0. -1.
         11    1    3    3    0    0 -0.75047097455E+00 -0.27413486889E+01  0.27881474499E+01  0.39814527225E+01  0.51100000000E-03 0.  1.
        -11    1    3    3    0    0 -0.16364612554E+02 -0.55179035509E+01  0.35065236151E+01  0.17622244799E+02  0.51100000000E-03 0. -1.
        -12    1    3    3    0    0 -0.29793108072E+00 -0.28464148934E+02 -0.51349938189E+01  0.28925156854E+02  0.00000000000E+00 0.  1.
</event>
<event>
 7    1  0.2991278E-011  0.5052886E+02  0.7816164E-02  0.1300439E+00
        -11   -1    0    0    0    0  0.00000000000E+00  0.00000000000E+00  0.45593999997E+02  0.45594000000E+02  0.51100000000E-03 0. -1.
         11   -1    0    0    0    0 -0.00000000000E+00 -0.00000000000E+00 -0.45593999997E+02  0.45594000000E+02  0.51100000000E-03 0.  1.
    9900012    2    1    2    0    0 -0.39556731486E+02 -0.63860421243E+01 -0.69028136529E+01  0.50528863558E+02  0.30000011271E+02 0.  0.
         12    1    1    2    0    0  0.39556731486E+02  0.63860421243E+01  0.69028136529E+01  0.40659136442E+02  0.00000000000E+00 0. -1.
         11    1    3    3    0    0 -0.25086647571E+01  0.64346304500E+01 -0.51229741011E+01  0.85989959759E+01  0.51100000000E-03 0. -1.
        -11    1    3    3    0    0 -0.26787003802E+02 -0.13085271994E+02  0.41122462790E+01  0.30094492612E+02  0.51100000000E-03 0.  1.
        -12    1    3    3    0    0 -0.10261062927E+02  0.26459942005E+00 -0.58920858308E+01  0.11835374970E+02  0.00000000000E+00 0.  1.
</event>
<event>
 7    1  0.2991278E-011  0.5052886E+02  0.7816164E-02  0.1300439E+00
        -11   -1    0    0    0    0  0.00000000000E+00  0.00000000000E+00  0.45593999997E+02  0.45594000000E+02  0.51100000000E-03 0.  1.
         11   -1    0    0    0    0 -0.00000000000E+00 -0.00000000000E+00 -0.45593999997E+02  0.45594000000E+02  0.51100000000E-03 0. -1.
    9900012    2    1    2    0    0  0.34773821192E+02  0.12369591310E+02 -0.17056972667E+02  0.50528859010E+02  0.29999997447E+02 0.  0.
         12    1    1    2    0    0 -0.34773821192E+02 -0.12369591310E+02  0.17056972667E+02  0.40659140990E+02  0.00000000000E+00 0. -1.
         11    1    3    3    0    0  0.30706019859E+02  0.15025460626E+01 -0.11517941083E+02  0.32829563922E+02  0.51100000000E-03 0. -1.
        -11    1    3    3    0    0  0.88895145594E+00  0.10477718320E+02  0.85293518938E+00  0.10549896426E+02  0.51100000000E-03 0.  1.
         12    1    3    3    0    0  0.31788498772E+01  0.38932692677E+00 -0.63919667738E+01  0.71493986625E+01  0.00000000000E+00 0. -1.
</event>
<event>
 7    1  0.2991278E-011  0.5052886E+02  0.7816164E-02  0.1300439E+00
        -11   -1    0    0    0    0  0.00000000000E+00  0.00000000000E+00  0.45593999997E+02  0.45594000000E+02  0.51100000000E-03 0. -1.
         11   -1    0    0    0    0 -0.00000000000E+00 -0.00000000000E+00 -0.45593999997E+02  0.45594000000E+02  0.51100000000E-03 0.  1.
    9900012    2    1    2    0    0  0.37599722502E+02 -0.15191875458E+02 -0.29382078428E+01  0.50528864772E+02  0.30000014960E+02 0.  0.
         12    1    1    2    0    0 -0.37599722502E+02  0.15191875458E+02  0.29382078428E+01  0.40659135228E+02  0.00000000000E+00 0. -1.
         11    1    3    3    0    0  0.16911705509E+02  0.24483828036E+01 -0.12036177444E+02  0.20901433666E+02  0.51100000000E-03 0.  1.
        -11    1    3    3    0    0  0.15267865973E+02 -0.16480279786E+02  0.86248091273E+01  0.24064386257E+02  0.51100000000E-03 0. -1.
         12    1    3    3    0    0  0.54201510209E+01 -0.11599784760E+01  0.47316047374E+00  0.55630448486E+01  0.00000000000E+00 0. -1.
</event>
<event>
 7    1  0.2991278E-011  0.5052885E+02  0.7816164E-02  0.1300439E+00
        -11   -1    0    0    0    0  0.00000000000E+00  0.00000000000E+00  0.45593999997E+02  0.45594000000E+02  0.51100000000E-03 0. -1.
         11   -1    0    0    0    0 -0.00000000000E+00 -0.00000000000E+00 -0.45593999997E+02  0.45594000000E+02  0.51100000000E-03 0.  1.
    9900012    2    1    2    0    0  0.86130545887E+01  0.38589983998E+02 -0.94760175558E+01  0.50528849947E+02  0.29999969899E+02 0.  0.
         12    1    1    2    0    0 -0.86130545887E+01 -0.38589983998E+02  0.94760175558E+01  0.40659150053E+02  0.00000000000E+00 0. -1.
         11    1    3    3    0    0  0.22341643436E+01  0.15432131175E+02  0.50730232008E+01  0.16397491502E+02  0.51100000000E-03 0. -1.
        -11    1    3    3    0    0  0.46648027268E+01  0.80664271785E-02 -0.91922328407E+01  0.10308132440E+02  0.51100000000E-03 0.  1.
        -12    1    3    3    0    0  0.17140875183E+01  0.23149786396E+02 -0.53568079159E+01  0.23823226004E+02  0.00000000000E+00 0.  1.
</event>
<event>
 7    1  0.2991278E-011  0.5052885E+02  0.7816164E-02  0.1300439E+00
        -11   -1    0    0    0    0  0.00000000000E+00  0.00000000000E+00  0.45593999997E+02  0.45594000000E+02  0.51100000000E-03 0.  1.
         11   -1    0    0    0    0 -0.00000000000E+00 -0.00000000000E+00 -0.45593999997E+02  0.45594000000E+02  0.51100000000E-03 0. -1.
    9900012    2    1    2    0    0 -0.35973991963E+02 -0.18864400081E+02  0.17811661023E+01  0.50528852925E+02  0.29999978952E+02 0.  0.
         12    1    1    2    0    0  0.35973991963E+02  0.18864400081E+02 -0.17811661023E+01  0.40659147075E+02  0.00000000000E+00 0. -1.
         11    1    3    3    0    0 -0.28270584169E+01  0.25718141698E+01 -0.29321159631E+01  0.48170314197E+01  0.51100000000E-03 0.  1.
        -11    1    3    3    0    0 -0.11020204246E+02 -0.46235242541E+01  0.12048784254E+02  0.16970417803E+02  0.51100000000E-03 0. -1.
        -12    1    3    3    0    0 -0.22126729300E+02 -0.16812689996E+02 -0.73355021889E+01  0.28741403702E+02  0.00000000000E+00 0.  1.
</event>
<event>
 7    1  0.2991278E-011  0.5052886E+02  0.7816164E-02  0.1300439E+00
        -11   -1    0    0    0    0  0.00000000000E+00  0.00000000000E+00  0.45593999997E+02  0.45594000000E+02  0.51100000000E-03 0. -1.
         11   -1    0    0    0    0 -0.00000000000E+00 -0.00000000000E+00 -0.45593999997E+02  0.45594000000E+02  0.51100000000E-03 0.  1.
    9900012    2    1    2    0    0 -0.61694919977E+00  0.38814724450E+02 -0.12091418599E+02  0.50528857557E+02  0.29999993030E+02 0.  0.
         12    1    1    2    0    0  0.61694919977E+00 -0.38814724450E+02  0.12091418599E+02  0.40659142443E+02  0.00000000000E+00 0. -1.
         11    1    3    3    0    0 -0.10792092483E+00 -0.43144877262E+01 -0.31251728738E+01  0.53285229677E+01  0.51100000000E-03 0. -1.
        -11    1    3    3    0    0 -0.10882436180E+01  0.23988203572E+02 -0.10024572549E+02  0.26021342006E+02  0.51100000000E-03 0.  1.
         12    1    3    3    0    0  0.57921534308E+00  0.19141008605E+02  0.10583268233E+01  0.19178992583E+02  0.00000000000E+00 0. -1.
</event>
<event>
 7    1  0.2991278E-011  0.5052886E+02  0.7816164E-02  0.1300439E+00
        -11   -1    0    0    0    0  0.00000000000E+00  0.00000000000E+00  0.45593999997E+02  0.45594000000E+02  0.51100000000E-03 0.  1.
         11   -1    0    0    0    0 -0.00000000000E+00 -0.00000000000E+00 -0.45593999997E+02  0.45594000000E+02  0.51100000000E-03 0. -1.
    9900012    2    1    2    0    0 -0.38500634194E+02  0.75127784746E+01  0.10696963809E+02  0.50528859472E+02  0.29999998850E+02 0.  0.
         12    1    1    2    0    0  0.38500634194E+02 -0.75127784746E+01 -0.10696963809E+02  0.40659140528E+02  0.00000000000E+00 0. -1.
         11    1    3    3    0    0 -0.74485919247E+01 -0.70800561803E+01  0.47431243288E+01  0.11318389719E+02  0.51100000000E-03 0. -1.
        -11    1    3    3    0    0 -0.31922422914E+02  0.15337055990E+02  0.84976066679E+01  0.36420813973E+02  0.51100000000E-03 0.  1.
        -12    1    3    3    0    0  0.87038064388E+00 -0.74422133491E+00 -0.25437671878E+01  0.27896557792E+01  0.00000000000E+00 0.  1.
</event>
<event>
 7    1  0.2991278E-011  0.5052883E+02  0.7816164E-02  0.1300439E+00
        -11   -1    0    0    0    0  0.00000000000E+00  0.00000000000E+00  0.45593999997E+02  0.45594000000E+02  0.51100000000E-03 0. -1.
         11   -1    0    0    0    0 -0.00000000000E+00 -0.00000000000E+00 -0.45593999997E+02  0.45594000000E+02  0.51100000000E-03 0.  1.
    9900012    2    1    2    0    0 -0.39278504128E+02  0.64876327246E+01  0.82630536164E+01  0.50528827358E+02  0.29999901236E+02 0.  0.
         12    1    1    2    0    0  0.39278504128E+02 -0.64876327246E+01 -0.82630536164E+01  0.40659172642E+02  0.00000000000E+00 0. -1.
         11    1    3    3    0    0  0.32400268644E+01  0.17204340023E+00 -0.21657408339E+01  0.39010007222E+01  0.51100000000E-03 0. -1.
        -11    1    3    3    0    0 -0.40189785020E+02  0.96947082230E+01  0.95290066562E+01  0.42426502986E+02  0.51100000000E-03 0.  1.
        -12    1    3    3    0    0 -0.23287459719E+01 -0.33791188986E+01  0.89978779402E+00  0.42013236494E+01  0.00000000000E+00 0.  1.
</event>
<event>
 7    1  0.2991278E-011  0.5052886E+02  0.7816164E-02  0.1300439E+00
        -11   -1    0    0    0    0  0.00000000000E+00  0.00000000000E+00  0.45593999997E+02  0.45594000000E+02  0.51100000000E-03 0. -1.
         11   -1    0    0    0    0 -0.00000000000E+00 -0.00000000000E+00 -0.45593999997E+02  0.45594000000E+02  0.51100000000E-03 0.  1.
    9900012    2    1    2    0    0 -0.31484188069E+02 -0.21269697292E+02  0.14474511991E+02  0.50528860576E+02  0.30000002208E+02 0.  0.
         12    1    1    2    0    0  0.31484188069E+02  0.21269697292E+02 -0.14474511991E+02  0.40659139424E+02  0.00000000000E+00 0. -1.
         11    1    3    3    0    0 -0.10392424762E+01 -0.55892527870E+01  0.11790338745E+02  0.13089379650E+02  0.51100000000E-03 0. -1.
        -11    1    3    3    0    0 -0.27180425010E+02 -0.72102400007E+01  0.34419892700E+01  0.28330378660E+02  0.51100000000E-03 0.  1.
        -12    1    3    3    0    0 -0.32645205827E+01 -0.84702045044E+01 -0.75781602322E+00  0.91091022668E+01  0.00000000000E+00 0.  1.
</event>
<event>
 7    1  0.2991278E-011  0.5052885E+02  0.7816164E-02  0.1300439E+00
        -11   -1    0    0    0    0  0.00000000000E+00  0.00000000000E+00  0.45593999997E+02  0.45594000000E+02  0.51100000000E-03 0.  1.
         11   -1    0    0    0    0 -0.00000000000E+00 -0.00000000000E+00 -0.45593999997E+02  0.45594000000E+02  0.51100000000E-03 0. -1.
    9900012    2    1    2    0    0  0.31381083042E+02  0.34696451863E+01  0.25619432023E+02  0.50528854561E+02  0.29999983925E+02 0.  0.
         12    1    1    2    0    0 -0.31381083042E+02 -0.34696451863E+01 -0.25619432023E+02  0.40659145439E+02  0.00000000000E+00 0. -1.
         11    1    3    3    0    0  0.54060139194E+01  0.50468742200E+00  0.52581568989E+01  0.75583007432E+01  0.51100000000E-03 0.  1.
        -11    1    3    3    0    0  0.61607609101E+00 -0.13883101610E+01  0.16947173461E+02  0.17015100453E+02  0.51100000000E-03 0. -1.
        -12    1    3    3    0    0  0.25358993032E+02  0.43532679253E+01  0.34141016631E+01  0.25955453365E+02  0.00000000000E+00 0.  1.
</event>
<event>
 7    1  0.2991278E-011  0.5052887E+02  0.7816164E-02  0.1300439E+00
        -11   -1    0    0    0    0  0.00000000000E+00  0.00000000000E+00  0.45593999997E+02  0.45594000000E+02  0.51100000000E-03 0.  1.
         11   -1    0    0    0    0 -0.00000000000E+00 -0.00000000000E+00 -0.45593999997E+02  0.45594000000E+02  0.51100000000E-03 0. -1.
    9900012    2    1    2    0    0  0.12499375267E+02 -0.76156815597E-01  0.38690105844E+02  0.50528874675E+02  0.30000045063E+02 0.  0.
         12    1    1    2    0    0 -0.12499375267E+02  0.76156815597E-01 -0.38690105844E+02  0.40659125325E+02  0.00000000000E+00 0. -1.
         11    1    3    3    0    0  0.22846041048E+01  0.69134571168E+01  0.74713855731E+01  0.10432492888E+02  0.51100000000E-03 0. -1.
        -11    1    3    3    0    0 -0.71695366477E+00 -0.11581679128E+02  0.82175520019E+01  0.14218912586E+02  0.51100000000E-03 0.  1.
        -12    1    3    3    0    0  0.10931724827E+02  0.45920651955E+01  0.23001168269E+02  0.25877469200E+02  0.00000000000E+00 0.  1.
</event>
<event>
 7    1  0.2991278E-011  0.5052886E+02  0.7816164E-02  0.1300439E+00
        -11   -1    0    0    0    0  0.00000000000E+00  0.00000000000E+00  0.45593999997E+02  0.45594000000E+02  0.51100000000E-03 0.  1.
         11   -1    0    0    0    0 -0.00000000000E+00 -0.00000000000E+00 -0.45593999997E+02  0.45594000000E+02  0.51100000000E-03 0. -1.
    9900012    2    1    2    0    0  0.36166239919E+02  0.10285939357E+02 -0.15471518070E+02  0.50528864130E+02  0.30000013009E+02 0.  0.
         12    1    1    2    0    0 -0.36166239919E+02 -0.10285939357E+02  0.15471518070E+02  0.40659135870E+02  0.00000000000E+00 0. -1.
         11    1    3    3    0    0  0.31887009293E+02  0.22995664130E+00 -0.19005081551E+02  0.37121790995E+02  0.51100000000E-03 0. -1.
        -11    1    3    3    0    0 -0.16347542980E+01  0.16002949423E+01  0.18710840535E+01  0.29553885216E+01  0.51100000000E-03 0.  1.
         12    1    3    3    0    0  0.59139849240E+01  0.84556877737E+01  0.16624794272E+01  0.10451684613E+02  0.00000000000E+00 0. -1.
</event>
<event>
 7    1  0.2991278E-011  0.5052889E+02  0.7816164E-02  0.1300439E+00
        -11   -1    0    0    0    0  0.00000000000E+00  0.00000000000E+00  0.45593999997E+02  0.45594000000E+02  0.51100000000E-03 0. -1.
         11   -1    0    0    0    0 -0.00000000000E+00 -0.00000000000E+00 -0.45593999997E+02  0.45594000000E+02  0.51100000000E-03 0.  1.
    9900012    2    1    2    0    0 -0.70658437662E+01  0.24145227073E+02 -0.31941279787E+02  0.50528886718E+02  0.30000081666E+02 0.  0.
         12    1    1    2    0    0  0.70658437662E+01 -0.24145227073E+02  0.31941279787E+02  0.40659113282E+02  0.00000000000E+00 0. -1.
         11    1    3    3    0    0 -0.29953861906E+01  0.11126915092E+02  0.17811333483E+01  0.11659889115E+02  0.51100000000E-03 0. -1.
        -11    1    3    3    0    0  0.15606951368E+01  0.12993168229E+02 -0.27631630756E+02  0.30573930209E+02  0.51100000000E-03 0.  1.
        -12    1    3    3    0    0 -0.56311527124E+01  0.25143751437E-01 -0.60907823785E+01  0.82950673934E+01  0.00000000000E+00 0.  1.
</event>
<event>
 7    1  0.2991278E-011  0.5052886E+02  0.7816164E-02  0.1300439E+00
        -11   -1    0    0    0    0  0.00000000000E+00  0.00000000000E+00  0.45593999997E+02  0.45594000000E+02  0.51100000000E-03 0.  1.
         11   -1    0    0    0    0 -0.00000000000E+00 -0.00000000000E+00 -0.45593999997E+02  0.45594000000E+02  0.51100000000E-03 0. -1.
    9900012    2    1    2    0    0  0.11425587035E+02  0.15469010128E+02  0.35823612132E+02  0.50528862041E+02  0.30000006660E+02 0.  0.
         12    1    1    2    0    0 -0.11425587035E+02 -0.15469010128E+02 -0.35823612132E+02  0.40659137959E+02  0.00000000000E+00 0. -1.
         11    1    3    3    0    0  0.47057599492E+00  0.10219572041E+02  0.26060781140E+01  0.10557117877E+02  0.51100000000E-03 0. -1.
        -11    1    3    3    0    0  0.66369913573E+01 -0.67328811485E+01  0.15388551374E+02  0.18060699224E+02  0.51100000000E-03 0.  1.
         12    1    3    3    0    0  0.43180196824E+01  0.11982319235E+02  0.17828982644E+02  0.21911044940E+02  0.00000000000E+00 0. -1.
</event>
<event>
 7    1  0.2991278E-011  0.5052888E+02  0.7816164E-02  0.1300439E+00
        -11   -1    0    0    0    0  0.00000000000E+00  0.00000000000E+00  0.45593999997E+02  0.45594000000E+02  0.51100000000E-03 0. -1.
         11   -1    0    0    0    0 -0.00000000000E+00 -0.00000000000E+00 -0.45593999997E+02  0.45594000000E+02  0.51100000000E-03 0.  1.
    9900012    2    1    2    0    0 -0.19279190379E+02 -0.99150225438E+01  0.34397229147E+02  0.50528877694E+02  0.30000054238E+02 0.  0.
         12    1    1    2    0    0  0.19279190379E+02  0.99150225438E+01 -0.34397229147E+02  0.40659122306E+02  0.00000000000E+00 0. -1.
         11    1    3    3    0    0  0.24182274983E+01 -0.10592034050E+02  0.18598124267E+02  0.21539016600E+02  0.51100000000E-03 0. -1.
        -11    1    3    3    0    0 -0.20888226628E+02  0.35260924383E+01  0.14884313537E+02  0.25890039190E+02  0.51100000000E-03 0.  1.
        -12    1    3    3    0    0 -0.80919124899E+00 -0.28490809320E+01  0.91479134259E+00  0.30998219037E+01  0.00000000000E+00 0.  1.
</event>
<event>
 7    1  0.2991278E-011  0.5052886E+02  0.7816164E-02  0.1300439E+00
        -11   -1    0    0    0    0  0.00000000000E+00  0.00000000000E+00  0.45593999997E+02  0.45594000000E+02  0.51100000000E-03 0.  1.
         11   -1    0    0    0    0 -0.00000000000E+00 -0.00000000000E+00 -0.45593999997E+02  0.45594000000E+02  0.51100000000E-03 0. -1.
    9900012    2    1    2    0    0  0.11740029686E+02 -0.19010234357E+02  0.33969811711E+02  0.50528863081E+02  0.30000009821E+02 0.  0.
         12    1    1    2    0    0 -0.11740029686E+02  0.19010234357E+02 -0.33969811711E+02  0.40659136919E+02  0.00000000000E+00 0. -1.
         11    1    3    3    0    0 -0.66993695768E+01 -0.10478344758E+02  0.13571271738E+02  0.18408060148E+02  0.51100000000E-03 0. -1.
        -11    1    3    3    0    0  0.69254227252E+01  0.28618587178E+01  0.11250770563E+02  0.13517823558E+02  0.51100000000E-03 0.  1.
         12    1    3    3    0    0  0.11513976537E+02 -0.11393748317E+02  0.91477694106E+01  0.18602979374E+02  0.00000000000E+00 0. -1.
</event>
<event>
 7    1  0.2991278E-011  0.5052885E+02  0.7816164E-02  0.1300439E+00
        -11   -1    0    0    0    0  0.00000000000E+00  0.00000000000E+00  0.45593999997E+02  0.45594000000E+02  0.51100000000E-03 0.  1.
         11   -1    0    0    0    0 -0.00000000000E+00 -0.00000000000E+00 -0.45593999997E+02  0.45594000000E+02  0.51100000000E-03 0. -1.
    9900012    2    1    2    0    0  0.11268569714E+02  0.67423319029E+00  0.39060606674E+02  0.50528852843E+02  0.29999978702E+02 0.  0.
         12    1    1    2    0    0 -0.11268569714E+02 -0.67423319029E+00 -0.39060606674E+02  0.40659147157E+02  0.00000000000E+00 0. -1.
         11    1    3    3    0    0  0.84095777879E+01 -0.13714374605E+02  0.17530923922E+02  0.23793662248E+02  0.51100000000E-03 0.  1.
        -11    1    3    3    0    0  0.43706006810E+01  0.12848784137E+02  0.17313059486E+02  0.21998532522E+02  0.51100000000E-03 0. -1.
        -12    1    3    3    0    0 -0.15116087551E+01  0.15398236581E+01  0.42166232662E+01  0.47366580725E+01  0.00000000000E+00 0.  1.
</event>
<event>
 7    1  0.2991278E-011  0.5052886E+02  0.7816164E-02  0.1300439E+00
        -11   -1    0    0    0    0  0.00000000000E+00  0.00000000000E+00  0.45593999997E+02  0.45594000000E+02  0.51100000000E-03 0.  1.
         11   -1    0    0    0    0 -0.00000000000E+00 -0.00000000000E+00 -0.45593999997E+02  0.45594000000E+02  0.51100000000E-03 0. -1.
    9900012    2    1    2    0    0 -0.63354016821E+01 -0.26831210201E+02  0.29885022038E+02  0.50528859606E+02  0.29999999260E+02 0.  0.
         12    1    1    2    0    0  0.63354016821E+01  0.26831210201E+02 -0.29885022038E+02  0.40659140394E+02  0.00000000000E+00 0. -1.
         11    1    3    3    0    0  0.97319474014E+01 -0.14683595705E+02  0.13560958360E+02  0.22231022805E+02  0.51100000000E-03 0. -1.
        -11    1    3    3    0    0 -0.13917291667E+02 -0.43100871285E+01  0.12968984561E+02  0.19505445886E+02  0.51100000000E-03 0.  1.
         12    1    3    3    0    0 -0.21500574164E+01 -0.78375273674E+01  0.33550791170E+01  0.87923909154E+01  0.00000000000E+00 0. -1.
</event>
<event>
 7    1  0.2991278E-011  0.5052886E+02  0.7816164E-02  0.1300439E+00
        -11   -1    0    0    0    0  0.00000000000E+00  0.00000000000E+00  0.45593999997E+02  0.45594000000E+02  0.51100000000E-03 0.  1.
         11   -1    0    0    0    0 -0.00000000000E+00 -0.00000000000E+00 -0.45593999997E+02  0.45594000000E+02  0.51100000000E-03 0. -1.
    9900012    2    1    2    0    0 -0.36249202883E+02  0.11032566769E+02  0.14745962671E+02  0.50528860139E+02  0.30000000877E+02 0.  0.
         12    1    1    2    0    0  0.36249202883E+02 -0.11032566769E+02 -0.14745962671E+02  0.40659139861E+02  0.00000000000E+00 0. -1.
         11    1    3    3    0    0 -0.11145976908E+01  0.18275272211E+01 -0.56322093315E+01  0.60252772527E+01  0.51100000000E-03 0. -1.
        -11    1    3    3    0    0 -0.15194888771E+02 -0.21649168611E+01  0.13764076856E+02  0.20616045249E+02  0.51100000000E-03 0.  1.
         12    1    3    3    0    0 -0.19939716422E+02  0.11369956409E+02  0.66140951467E+01  0.23887537636E+02  0.00000000000E+00 0. -1.
</event>
<event>
 7    1  0.2991278E-011  0.5052887E+02  0.7816164E-02  0.1300439E+00
        -11   -1    0    0    0    0  0.00000000000E+00  0.00000000000E+00  0.45593999997E+02  0.45594000000E+02  0.51100000000E-03 0. -1.
         11   -1    0    0    0    0 -0.00000000000E+00 -0.00000000000E+00 -0.45593999997E+02  0.45594000000E+02  0.51100000000E-03 0.  1.
    9900012    2    1    2    0    0 -0.38940993161E+02 -0.35130439599E+01  0.11154494399E+02  0.50528866075E+02  0.30000018922E+02 0.  0.
         12    1    1    2    0    0  0.38940993161E+02  0.35130439599E+01 -0.11154494399E+02  0.40659133925E+02  0.00000000000E+00 0. -1.
         11    1    3    3    0    0 -0.15519989601E+02 -0.69187998513E+01  0.63301360725E+01  0.18133132425E+02  0.51100000000E-03 0. -1.
        -11    1    3    3    0    0 -0.23235934106E+02  0.99763750528E+01  0.24445508399E+01  0.25404970420E+02  0.51100000000E-03 0.  1.
        -12    1    3    3    0    0 -0.18506945439E+00 -0.65706191614E+01  0.23798074862E+01  0.69907632300E+01  0.00000000000E+00 0.  1.
</event>
<event>
 7    1  0.2991278E-011  0.5052885E+02  0.7816164E-02  0.1300439E+00
        -11   -1    0    0    0    0  0.00000000000E+00  0.00000000000E+00  0.45593999997E+02  0.45594000000E+02  0.51100000000E-03 0.  1.
         11   -1    0    0    0    0 -0.00000000000E+00 -0.00000000000E+00 -0.45593999997E+02  0.45594000000E+02  0.51100000000E-03 0. -1.
    9900012    2    1    2    0    0  0.17825258089E+02 -0.34784629695E+01  0.36377555508E+02  0.50528854961E+02  0.29999985140E+02 0.  0.
         12    1    1    2    0    0 -0.17825258089E+02  0.34784629695E+01 -0.36377555508E+02  0.40659145039E+02  0.00000000000E+00 0. -1.
         11    1    3    3    0    0  0.10943136309E+02 -0.66855672466E+01  0.11356867192E+02  0.17129724877E+02  0.51100000000E-03 0. -1.
        -11    1    3    3    0    0  0.53795436127E+01  0.22083056717E+01  0.28709604214E+02  0.29292618145E+02  0.51100000000E-03 0.  1.
        -12    1    3    3    0    0  0.15025781677E+01  0.99879860536E+00 -0.36889158980E+01  0.41065119392E+01  0.00000000000E+00 0.  1.
</event>
<event>
 7    1  0.2991278E-011  0.5052885E+02  0.7816164E-02  0.1300439E+00
        -11   -1    0    0    0    0  0.00000000000E+00  0.00000000000E+00  0.45593999997E+02  0.45594000000E+02  0.51100000000E-03 0. -1.
         11   -1    0    0    0    0 -0.00000000000E+00 -0.00000000000E+00 -0.45593999997E+02  0.45594000000E+02  0.51100000000E-03 0.  1.
    9900012    2    1    2    0    0  0.99987459701E+01  0.29623446603E+02 -0.25993137572E+02  0.50528847150E+02  0.29999961399E+02 0.  0.
         12    1    1    2    0    0 -0.99987459701E+01 -0.29623446603E+02  0.25993137572E+02  0.40659152850E+02  0.00000000000E+00 0. -1.
         11    1    3    3    0    0 -0.46687338798E+01  0.93270518545E+01  0.34676839778E+01  0.10991624301E+02  0.51100000000E-03 0. -1.
        -11    1    3    3    0    0  0.47357122933E+01  0.82368010752E+01 -0.17307381349E+02  0.19743791741E+02  0.51100000000E-03 0.  1.
        -12    1    3    3    0    0  0.99317675566E+01  0.12059593673E+02 -0.12153440201E+02  0.19793431109E+02  0.00000000000E+00 0.  1.
</event>
<event>
 7    1  0.2991278E-011  0.5052896E+02  0.7816164E-02  0.1300438E+00
        -11   -1    0    0    0    0  0.00000000000E+00  0.00000000000E+00  0.45593999997E+02  0.45594000000E+02  0.51100000000E-03 0.  1.
         11   -1    0    0    0    0 -0.00000000000E+00 -0.00000000000E+00 -0.45593999997E+02  0.45594000000E+02  0.51100000000E-03 0. -1.
    9900012    2    1    2    0    0  0.14550051874E+02  0.65247305559E+01  0.37401619017E+02  0.50528963816E+02  0.30000316012E+02 0.  0.
         12    1    1    2    0    0 -0.14550051874E+02 -0.65247305559E+01 -0.37401619017E+02  0.40659036184E+02  0.00000000000E+00 0. -1.
         11    1    3    3    0    0 -0.45821003845E+00  0.10660289354E+02  0.22478744677E+01  0.10904341586E+02  0.51100000000E-03 0. -1.
        -11    1    3    3    0    0  0.10392489885E+02  0.19881148948E+01  0.19158498547E+02  0.21886171745E+02  0.51100000000E-03 0.  1.
         12    1    3    3    0    0  0.46157720279E+01 -0.61236736924E+01  0.15995246002E+02  0.17738450484E+02  0.00000000000E+00 0. -1.
</event>
<event>
 7    1  0.2991278E-011  0.5052883E+02  0.7816164E-02  0.1300439E+00
        -11   -1    0    0    0    0  0.00000000000E+00  0.00000000000E+00  0.45593999997E+02  0.45594000000E+02  0.51100000000E-03 0.  1.
         11   -1    0    0    0    0 -0.00000000000E+00 -0.00000000000E+00 -0.45593999997E+02  0.45594000000E+02  0.51100000000E-03 0. -1.
    9900012    2    1    2    0    0  0.12517509579E+01  0.19666168557E+02  0.35564631137E+02  0.50528830627E+02  0.29999911173E+02 0.  0.
         12    1    1    2    0    0 -0.12517509579E+01 -0.19666168557E+02 -0.35564631137E+02  0.40659169373E+02  0.00000000000E+00 0. -1.
         11    1    3    3    0    0  0.10401125171E+02  0.65045522240E+01  0.28978334611E+01  0.12605159399E+02  0.51100000000E-03 0. -1.
        -11    1    3    3    0    0 -0.11201317243E+02  0.82264915227E+01  0.24374464871E+02  0.28058139795E+02  0.51100000000E-03 0.  1.
         12    1    3    3    0    0  0.20519430297E+01  0.49351248105E+01  0.82923328051E+01  0.98655314324E+01  0.00000000000E+00 0. -1.
</event>
<event>
 7    1  0.2991278E-011  0.5052884E+02  0.7816164E-02  0.1300439E+00
        -11   -1    0    0    0    0  0.00000000000E+00  0.00000000000E+00  0.45593999997E+02  0.45594000000E+02  0.51100000000E-03 0.  1.
         11   -1    0    0    0    0 -0.00000000000E+00 -0.00000000000E+00 -0.45593999997E+02  0.45594000000E+02  0.51100000000E-03 0. -1.
    9900012    2    1    2    0    0  0.28066742226E+02  0.83653303217E+01  0.28203666287E+02  0.50528836672E+02  0.29999929547E+02 0.  0.
         12    1    1    2    0    0 -0.28066742226E+02 -0.83653303217E+01 -0.28203666287E+02  0.40659163328E+02  0.00000000000E+00 0. -1.
         11    1    3    3    0    0  0.38365815588E+01 -0.46668118423E+01  0.77556921431E+01  0.98310351290E+01  0.51100000000E-03 0. -1.
        -11    1    3    3    0    0  0.13487434472E+02  0.77437648412E+01 -0.15732308672E+01  0.15631757361E+02  0.51100000000E-03 0.  1.
        -12    1    3    3    0    0  0.10742726194E+02  0.52883773228E+01  0.22021205011E+02  0.25066044182E+02  0.00000000000E+00 0.  1.
</event>
<event>
 7    1  0.2991278E-011  0.5052886E+02  0.7816164E-02  0.1300439E+00
        -11   -1    0    0    0    0  0.00000000000E+00  0.00000000000E+00  0.45593999997E+02  0.45594000000E+02  0.51100000000E-03 0.  1.
         11   -1    0    0    0    0 -0.00000000000E+00 -0.00000000000E+00 -0.45593999997E+02  0.45594000000E+02  0.51100000000E-03 0. -1.
    9900012    2    1    2    0    0  0.20717067445E+02  0.53640651455E+01  0.34571601144E+02  0.50528859772E+02  0.29999999764E+02 0.  0.
         12    1    1    2    0    0 -0.20717067445E+02 -0.53640651455E+01 -0.34571601144E+02  0.40659140228E+02  0.00000000000E+00 0. -1.
         11    1    3    3    0    0  0.17664109593E+02  0.10354298250E+02  0.80994494013E+01  0.22018931419E+02  0.51100000000E-03 0. -1.
        -11    1    3    3    0    0  0.41654295823E+01 -0.40735853499E+01  0.75679620298E+01  0.95508612572E+01  0.51100000000E-03 0.  1.
         12    1    3    3    0    0 -0.11124717305E+01 -0.91664775470E+00  0.18904189713E+02  0.18959067096E+02  0.00000000000E+00 0. -1.
</event>
<event>
 7    1  0.2991278E-011  0.5052886E+02  0.7816164E-02  0.1300439E+00
        -11   -1    0    0    0    0  0.00000000000E+00  0.00000000000E+00  0.45593999997E+02  0.45594000000E+02  0.51100000000E-03 0.  1.
         11   -1    0    0    0    0 -0.00000000000E+00 -0.00000000000E+00 -0.45593999997E+02  0.45594000000E+02  0.51100000000E-03 0. -1.
    9900012    2    1    2    0    0 -0.24730535806E+02 -0.20703375580E+02  0.24757558038E+02  0.50528857834E+02  0.29999993873E+02 0.  0.
         12    1    1    2    0    0  0.24730535806E+02  0.20703375580E+02 -0.24757558038E+02  0.40659142166E+02  0.00000000000E+00 0. -1.
         11    1    3    3    0    0 -0.13032326161E+02  0.42336928674E+01  0.72429890085E+01  0.15499244191E+02  0.51100000000E-03 0. -1.
        -11    1    3    3    0    0 -0.12529775647E+02 -0.20179951347E+02  0.18491532706E+02  0.30102533053E+02  0.51100000000E-03 0.  1.
         12    1    3    3    0    0  0.83156600126E+00 -0.47571170999E+01 -0.97696367621E+00  0.49270805901E+01  0.00000000000E+00 0. -1.
</event>
<event>
 7    1  0.2991278E-011  0.5052886E+02  0.7816164E-02  0.1300439E+00
        -11   -1    0    0    0    0  0.00000000000E+00  0.00000000000E+00  0.45593999997E+02  0.45594000000E+02  0.51100000000E-03 0.  1.
         11   -1    0    0    0    0 -0.00000000000E+00 -0.00000000000E+00 -0.45593999997E+02  0.45594000000E+02  0.51100000000E-03 0. -1.
    9900012    2    1    2    0    0  0.51090283959E+01 -0.40117978795E+02 -0.41965979352E+01  0.50528858003E+02  0.29999994385E+02 0.  0.
         12    1    1    2    0    0 -0.51090283959E+01  0.40117978795E+02  0.41965979352E+01  0.40659141997E+02  0.00000000000E+00 0. -1.
         11    1    3    3    0    0  0.32297430800E+01  0.25050923806E+01  0.30622520515E+01  0.51072611140E+01  0.51100000000E-03 0. -1.
        -11    1    3    3    0    0 -0.26923365970E+00 -0.36881343775E+02 -0.13500128328E+01  0.36907025623E+02  0.51100000000E-03 0.  1.
        -12    1    3    3    0    0  0.21485189756E+01 -0.57417273999E+01 -0.59088371539E+01  0.85145712655E+01  0.00000000000E+00 0.  1.
</event>
<event>
 7    1  0.2991278E-011  0.5052887E+02  0.7816164E-02  0.1300439E+00
        -11   -1    0    0    0    0  0.00000000000E+00  0.00000000000E+00  0.45593999997E+02  0.45594000000E+02  0.51100000000E-03 0.  1.
         11   -1    0    0    0    0 -0.00000000000E+00 -0.00000000000E+00 -0.45593999997E+02  0.45594000000E+02  0.51100000000E-03 0. -1.
    9900012    2    1    2    0    0 -0.91211529056E+01 -0.37418055498E+02  0.13032978215E+02  0.50528870291E+02  0.30000031736E+02 0.  0.
         12    1    1    2    0    0  0.91211529056E+01  0.37418055498E+02 -0.13032978215E+02  0.40659129709E+02  0.00000000000E+00 0. -1.
         11    1    3    3    0    0 -0.65706026130E+01 -0.32711256529E+02  0.45859322117E+01  0.33678329783E+02  0.51100000000E-03 0. -1.
        -11    1    3    3    0    0  0.49812446949E+01 -0.13616089215E+01  0.66431614803E+01  0.84141768629E+01  0.51100000000E-03 0.  1.
         12    1    3    3    0    0 -0.75317949874E+01 -0.33451900468E+01  0.18038845231E+01  0.84363636452E+01  0.00000000000E+00 0. -1.
</event>
<event>
 7    1  0.2991278E-011  0.5052886E+02  0.7816164E-02  0.1300439E+00
        -11   -1    0    0    0    0  0.00000000000E+00  0.00000000000E+00  0.45593999997E+02  0.45594000000E+02  0.51100000000E-03 0.  1.
         11   -1    0    0    0    0 -0.00000000000E+00 -0.00000000000E+00 -0.45593999997E+02  0.45594000000E+02  0.51100000000E-03 0. -1.
    9900012    2    1    2    0    0 -0.14904031738E+02 -0.11259161473E+02  0.36114635492E+02  0.50528858644E+02  0.29999996333E+02 0.  0.
         12    1    1    2    0    0  0.14904031738E+02  0.11259161473E+02 -0.36114635492E+02  0.40659141356E+02  0.00000000000E+00 0. -1.
         11    1    3    3    0    0 -0.26991337071E+01 -0.75102795119E+00 -0.25831995832E+01  0.38108117377E+01  0.51100000000E-03 0. -1.
        -11    1    3    3    0    0 -0.10007682338E+02 -0.13809357766E+02  0.39172690842E+02  0.42724135752E+02  0.51100000000E-03 0.  1.
        -12    1    3    3    0    0 -0.21972156931E+01  0.33012242438E+01 -0.47485576671E+00  0.39939111543E+01  0.00000000000E+00 0.  1.
</event>
<event>
 7    1  0.2991278E-011  0.5052886E+02  0.7816164E-02  0.1300439E+00
        -11   -1    0    0    0    0  0.00000000000E+00  0.00000000000E+00  0.45593999997E+02  0.45594000000E+02  0.51100000000E-03 0.  1.
         11   -1    0    0    0    0 -0.00000000000E+00 -0.00000000000E+00 -0.45593999997E+02  0.45594000000E+02  0.51100000000E-03 0. -1.
    9900012    2    1    2    0    0 -0.84647869010E+01 -0.36582302958E+02  0.15596412052E+02  0.50528861103E+02  0.30000003809E+02 0.  0.
         12    1    1    2    0    0  0.84647869010E+01  0.36582302958E+02 -0.15596412052E+02  0.40659138897E+02  0.00000000000E+00 0. -1.
         11    1    3    3    0    0 -0.11501292586E+02 -0.14744693065E+02 -0.31597695960E+01  0.18964963719E+02  0.51100000000E-03 0. -1.
        -11    1    3    3    0    0  0.66202495143E+01 -0.97355493981E+01  0.47108607543E+01  0.12680726912E+02  0.51100000000E-03 0.  1.
        -12    1    3    3    0    0 -0.35837438296E+01 -0.12102060495E+02  0.14045320893E+02  0.18883170472E+02  0.00000000000E+00 0.  1.
</event>
<event>
 7    1  0.2991278E-011  0.5052886E+02  0.7816164E-02  0.1300439E+00
        -11   -1    0    0    0    0  0.00000000000E+00  0.00000000000E+00  0.45593999997E+02  0.45594000000E+02  0.51100000000E-03 0. -1.
         11   -1    0    0    0    0 -0.00000000000E+00 -0.00000000000E+00 -0.45593999997E+02  0.45594000000E+02  0.51100000000E-03 0.  1.
    9900012    2    1    2    0    0 -0.30489490004E+02 -0.25107134175E+02 -0.96534143510E+01  0.50528860858E+02  0.30000003063E+02 0.  0.
         12    1    1    2    0    0  0.30489490004E+02  0.25107134175E+02  0.96534143510E+01  0.40659139142E+02  0.00000000000E+00 0. -1.
         11    1    3    3    0    0 -0.98903685239E+01 -0.24105382269E+02  0.42137172952E+00  0.26058902476E+02  0.51100000000E-03 0. -1.
        -11    1    3    3    0    0 -0.41320070913E+00 -0.17721552885E+01 -0.20304604520E+01  0.27265434346E+01  0.51100000000E-03 0.  1.
         12    1    3    3    0    0 -0.20185920771E+02  0.77040338263E+00 -0.80443256286E+01  0.21743414947E+02  0.00000000000E+00 0. -1.
</event>
<event>
 7    1  0.2991278E-011  0.5052886E+02  0.7816164E-02  0.1300439E+00
        -11   -1    0    0    0    0  0.00000000000E+00  0.00000000000E+00  0.45593999997E+02  0.45594000000E+02  0.51100000000E-03 0.  1.
         11   -1    0    0    0    0 -0.00000000000E+00 -0.00000000000E+00 -0.45593999997E+02  0.45594000000E+02  0.51100000000E-03 0. -1.
    9900012    2    1    2    0    0  0.54461141805E+01 -0.15549330355E+02  0.37171541424E+02  0.50528864176E+02  0.30000013148E+02 0.  0.
         12    1    1    2    0    0 -0.54461141805E+01  0.15549330355E+02 -0.37171541424E+02  0.40659135824E+02  0.00000000000E+00 0. -1.
         11    1    3    3    0    0  0.98469269228E+01  0.41211933504E+00  0.26236756087E+02  0.28026758328E+02  0.51100000000E-03 0.  1.
        -11    1    3    3    0    0 -0.19535073464E+01 -0.15999408709E+02  0.63871092352E+01  0.17337601755E+02  0.51100000000E-03 0. -1.
        -12    1    3    3    0    0 -0.24473053959E+01  0.37959018855E-01  0.45476761020E+01  0.51645040921E+01  0.00000000000E+00 0.  1.
</event>
<event>
 7    1  0.2991278E-011  0.5052886E+02  0.7816164E-02  0.1300439E+00
        -11   -1    0    0    0    0  0.00000000000E+00  0.00000000000E+00  0.45593999997E+02  0.45594000000E+02  0.51100000000E-03 0.  1.
         11   -1    0    0    0    0 -0.00000000000E+00 -0.00000000000E+00 -0.45593999997E+02  0.45594000000E+02  0.51100000000E-03 0. -1.
    9900012    2    1    2    0    0  0.34679848303E+02  0.19076705093E+02  0.93034087901E+01  0.50528856248E+02  0.29999989052E+02 0.  0.
         12    1    1    2    0    0 -0.34679848303E+02 -0.19076705093E+02 -0.93034087901E+01  0.40659143752E+02  0.00000000000E+00 0. -1.
         11    1    3    3    0    0  0.15507501658E+02  0.69033732629E+01  0.14165026200E+01  0.17033662261E+02  0.51100000000E-03 0. -1.
        -11    1    3    3    0    0  0.43324230454E+01  0.12621052385E+01  0.13504195701E+02  0.14238191629E+02  0.51100000000E-03 0.  1.
        -12    1    3    3    0    0  0.14839923599E+02  0.10911226592E+02 -0.56172895306E+01  0.19257002359E+02  0.00000000000E+00 0.  1.
</event>
<event>
 7    1  0.2991278E-011  0.5052883E+02  0.7816164E-02  0.1300439E+00
        -11   -1    0    0    0    0  0.00000000000E+00  0.00000000000E+00  0.45593999997E+02  0.45594000000E+02  0.51100000000E-03 0.  1.
         11   -1    0    0    0    0 -0.00000000000E+00 -0.00000000000E+00 -0.45593999997E+02  0.45594000000E+02  0.51100000000E-03 0. -1.
    9900012    2    1    2    0    0 -0.38012488261E+02 -0.47271288915E+01  0.13633514572E+02  0.50528834601E+02  0.29999923253E+02 0.  0.
         12    1    1    2    0    0  0.38012488261E+02  0.47271288915E+01 -0.13633514572E+02  0.40659165399E+02  0.00000000000E+00 0. -1.
         11    1    3    3    0    0 -0.15274891448E+02 -0.68442365777E+01 -0.79149539054E+01  0.18515193185E+02  0.51100000000E-03 0. -1.
        -11    1    3    3    0    0 -0.16407521210E+02  0.24031467586E+01  0.18906712667E+02  0.25148472135E+02  0.51100000000E-03 0.  1.
         12    1    3    3    0    0 -0.63300756031E+01 -0.28603907244E+00  0.26417558103E+01  0.68651692808E+01  0.00000000000E+00 0. -1.
</event>
<event>
 7    1  0.2991278E-011  0.5052885E+02  0.7816164E-02  0.1300439E+00
        -11   -1    0    0    0    0  0.00000000000E+00  0.00000000000E+00  0.45593999997E+02  0.45594000000E+02  0.51100000000E-03 0. -1.
         11   -1    0    0    0    0 -0.00000000000E+00 -0.00000000000E+00 -0.45593999997E+02  0.45594000000E+02  0.51100000000E-03 0.  1.
    9900012    2    1    2    0    0 -0.73828217775E+01 -0.34278489380E+02 -0.20582650920E+02  0.50528850839E+02  0.29999972611E+02 0.  0.
         12    1    1    2    0    0  0.73828217775E+01  0.34278489380E+02  0.20582650920E+02  0.40659149161E+02  0.00000000000E+00 0. -1.
         11    1    3    3    0    0  0.26375438715E+01 -0.20070464786E+01  0.40037071730E+01  0.51975517919E+01  0.51100000000E-03 0. -1.
        -11    1    3    3    0    0 -0.14909099829E+02 -0.22639330537E+02 -0.19495344732E+02  0.33389953749E+02  0.51100000000E-03 0.  1.
         12    1    3    3    0    0  0.48887341802E+01 -0.96321123647E+01 -0.50910133616E+01  0.11941345299E+02  0.00000000000E+00 0. -1.
</event>
<event>
 7    1  0.2991278E-011  0.5052886E+02  0.7816164E-02  0.1300439E+00
        -11   -1    0    0    0    0  0.00000000000E+00  0.00000000000E+00  0.45593999997E+02  0.45594000000E+02  0.51100000000E-03 0.  1.
         11   -1    0    0    0    0 -0.00000000000E+00 -0.00000000000E+00 -0.45593999997E+02  0.45594000000E+02  0.51100000000E-03 0. -1.
    9900012    2    1    2    0    0 -0.23225952222E+02  0.63452379347E+01  0.32763680542E+02  0.50528860022E+02  0.30000000524E+02 0.  0.
         12    1    1    2    0    0  0.23225952222E+02 -0.63452379347E+01 -0.32763680542E+02  0.40659139978E+02  0.00000000000E+00 0. -1.
         11    1    3    3    0    0  0.30218776028E+01 -0.76607341937E+00  0.43504450276E+01  0.53521009828E+01  0.51100000000E-03 0. -1.
        -11    1    3    3    0    0 -0.23368460480E+02  0.81857132486E+01  0.10321443676E+02  0.26825790695E+02  0.51100000000E-03 0.  1.
        -12    1    3    3    0    0 -0.28793693448E+01 -0.10744018945E+01  0.18091791838E+02  0.18350968344E+02  0.00000000000E+00 0.  1.
</event>
<event>
 7    1  0.2991278E-011  0.5052884E+02  0.7816164E-02  0.1300439E+00
        -11   -1    0    0    0    0  0.00000000000E+00  0.00000000000E+00  0.45593999997E+02  0.45594000000E+02  0.51100000000E-03 0. -1.
         11   -1    0    0    0    0 -0.00000000000E+00 -0.00000000000E+00 -0.45593999997E+02  0.45594000000E+02  0.51100000000E-03 0.  1.
    9900012    2    1    2    0    0 -0.21479282244E+02  0.33265882447E+02 -0.92297863127E+01  0.50528837981E+02  0.29999933528E+02 0.  0.
         12    1    1    2    0    0  0.21479282244E+02 -0.33265882447E+02  0.92297863127E+01  0.40659162019E+02  0.00000000000E+00 0. -1.
         11    1    3    3    0    0  0.16766010031E+01 -0.32080222897E+01  0.16600299244E+01  0.39822226891E+01  0.51100000000E-03 0. -1.
        -11    1    3    3    0    0 -0.16892935740E+02  0.34834237247E+02 -0.84330318003E+01  0.39622107316E+02  0.51100000000E-03 0.  1.
         12    1    3    3    0    0 -0.62629475070E+01  0.16396674893E+01 -0.24567844367E+01  0.69245079767E+01  0.00000000000E+00 0. -1.
</event>
<event>
 7    1  0.2991278E-011  0.5052886E+02  0.7816164E-02  0.1300439E+00
        -11   -1    0    0    0    0  0.00000000000E+00  0.00000000000E+00  0.45593999997E+02  0.45594000000E+02  0.51100000000E-03 0. -1.
         11   -1    0    0    0    0 -0.00000000000E+00 -0.00000000000E+00 -0.45593999997E+02  0.45594000000E+02  0.51100000000E-03 0.  1.
    9900012    2    1    2    0    0  0.53655250399E+00  0.32382136240E+02  0.24582007619E+02  0.50528859151E+02  0.29999997874E+02 0.  0.
         12    1    1    2    0    0 -0.53655250399E+00 -0.32382136240E+02 -0.24582007619E+02  0.40659140849E+02  0.00000000000E+00 0. -1.
         11    1    3    3    0    0  0.17754353495E+01  0.14379891346E+01  0.13767824130E+02  0.13956108518E+02  0.51100000000E-03 0. -1.
        -11    1    3    3    0    0  0.52144307796E+01  0.23896690176E+02  0.38768216463E+01  0.24764325875E+02  0.51100000000E-03 0.  1.
        -12    1    3    3    0    0 -0.64533136251E+01  0.70474569294E+01  0.69373618428E+01  0.11808424758E+02  0.00000000000E+00 0.  1.
</event>
<event>
 7    1  0.2991278E-011  0.5052886E+02  0.7816164E-02  0.1300439E+00
        -11   -1    0    0    0    0  0.00000000000E+00  0.00000000000E+00  0.45593999997E+02  0.45594000000E+02  0.51100000000E-03 0.  1.
         11   -1    0    0    0    0 -0.00000000000E+00 -0.00000000000E+00 -0.45593999997E+02  0.45594000000E+02  0.51100000000E-03 0. -1.
    9900012    2    1    2    0    0  0.30023995650E+02 -0.16629670182E+02  0.21798611470E+02  0.50528859488E+02  0.29999998901E+02 0.  0.
         12    1    1    2    0    0 -0.30023995650E+02  0.16629670182E+02 -0.21798611470E+02  0.40659140512E+02  0.00000000000E+00 0. -1.
         11    1    3    3    0    0  0.60067419232E+01  0.23973115381E+01  0.32535783678E+00  0.64756396692E+01  0.51100000000E-03 0. -1.
        -11    1    3    3    0    0  0.21415939398E+02 -0.24258359227E+02  0.16221567969E+02  0.36197371732E+02  0.51100000000E-03 0.  1.
        -12    1    3    3    0    0  0.26013143289E+01  0.52313775069E+01  0.52516856644E+01  0.78558480875E+01  0.00000000000E+00 0.  1.
</event>
<event>
 7    1  0.2991278E-011  0.5052886E+02  0.7816164E-02  0.1300439E+00
        -11   -1    0    0    0    0  0.00000000000E+00  0.00000000000E+00  0.45593999997E+02  0.45594000000E+02  0.51100000000E-03 0.  1.
         11   -1    0    0    0    0 -0.00000000000E+00 -0.00000000000E+00 -0.45593999997E+02  0.45594000000E+02  0.51100000000E-03 0. -1.
    9900012    2    1    2    0    0 -0.34168267357E+02  0.56431610665E+01  0.21303750832E+02  0.50528861292E+02  0.30000004383E+02 0.  0.
         12    1    1    2    0    0  0.34168267357E+02 -0.56431610665E+01 -0.21303750832E+02  0.40659138708E+02  0.00000000000E+00 0. -1.
         11    1    3    3    0    0 -0.14855373822E+02 -0.68097454074E+01  0.22915579554E+01  0.16501696944E+02  0.51100000000E-03 0. -1.
        -11    1    3    3    0    0 -0.20294364904E+02  0.63780890928E+01  0.11072843225E+02  0.23982266879E+02  0.51100000000E-03 0.  1.
         12    1    3    3    0    0  0.98147136952E+00  0.60748173811E+01  0.79393496518E+01  0.10044897469E+02  0.00000000000E+00 0. -1.
</event>
<event>
 7    1  0.2991278E-011  0.5052885E+02  0.7816164E-02  0.1300439E+00
        -11   -1    0    0    0    0  0.00000000000E+00  0.00000000000E+00  0.45593999997E+02  0.45594000000E+02  0.51100000000E-03 0.  1.
         11   -1    0    0    0    0 -0.00000000000E+00 -0.00000000000E+00 -0.45593999997E+02  0.45594000000E+02  0.51100000000E-03 0. -1.
    9900012    2    1    2    0    0  0.24862086241E+02  0.93336284470E+00  0.32158548241E+02  0.50528846991E+02  0.29999960914E+02 0.  0.
         12    1    1    2    0    0 -0.24862086241E+02 -0.93336284470E+00 -0.32158548241E+02  0.40659153009E+02  0.00000000000E+00 0. -1.
         11    1    3    3    0    0  0.13028642155E+02  0.10279573562E+02  0.17253510520E+02  0.23939481501E+02  0.51100000000E-03 0. -1.
        -11    1    3    3    0    0 -0.38556767850E+01 -0.35281634395E+01  0.27356738200E+01  0.58989907812E+01  0.51100000000E-03 0.  1.
        -12    1    3    3    0    0  0.15689120871E+02 -0.58180472780E+01  0.12169363901E+02  0.20690374708E+02  0.00000000000E+00 0.  1.
</event>
<event>
 7    1  0.2991278E-011  0.5052890E+02  0.7816164E-02  0.1300439E+00
        -11   -1    0    0    0    0  0.00000000000E+00  0.00000000000E+00  0.45593999997E+02  0.45594000000E+02  0.51100000000E-03 0.  1.
         11   -1    0    0    0    0 -0.00000000000E+00 -0.00000000000E+00 -0.45593999997E+02  0.45594000000E+02  0.51100000000E-03 0. -1.
    9900012    2    1    2    0    0 -0.36955713318E+01  0.15871177808E+02  0.37250648031E+02  0.50528901250E+02  0.30000125838E+02 0.  0.
         12    1    1    2    0    0  0.36955713318E+01 -0.15871177808E+02 -0.37250648031E+02  0.40659098750E+02  0.00000000000E+00 0. -1.
         11    1    3    3    0    0 -0.44241030463E+00 -0.15813939663E+01 -0.30579305305E+01  0.34709470098E+01  0.51100000000E-03 0. -1.
        -11    1    3    3    0    0  0.55894150416E+01  0.85791813436E+01  0.26522789625E+02  0.28430657445E+02  0.51100000000E-03 0.  1.
        -12    1    3    3    0    0 -0.88425760688E+01  0.88733904306E+01  0.13785788936E+02  0.18627296794E+02  0.00000000000E+00 0.  1.
</event>
<event>
 7    1  0.2991278E-011  0.5052893E+02  0.7816164E-02  0.1300439E+00
        -11   -1    0    0    0    0  0.00000000000E+00  0.00000000000E+00  0.45593999997E+02  0.45594000000E+02  0.51100000000E-03 0.  1.
         11   -1    0    0    0    0 -0.00000000000E+00 -0.00000000000E+00 -0.45593999997E+02  0.45594000000E+02  0.51100000000E-03 0. -1.
    9900012    2    1    2    0    0  0.22269807627E+02  0.56627784481E+00  0.34013161483E+02  0.50528927747E+02  0.30000206380E+02 0.  0.
         12    1    1    2    0    0 -0.22269807627E+02 -0.56627784481E+00 -0.34013161483E+02  0.40659072253E+02  0.00000000000E+00 0. -1.
         11    1    3    3    0    0 -0.15025904667E+01 -0.70535410378E+01  0.21530789784E+01  0.75263516149E+01  0.51100000000E-03 0. -1.
        -11    1    3    3    0    0  0.11142801019E+02  0.10135103676E+02  0.11666292758E+02  0.19052158094E+02  0.51100000000E-03 0.  1.
        -12    1    3    3    0    0  0.12629597075E+02 -0.25152847934E+01  0.20193789747E+02  0.23950418038E+02  0.00000000000E+00 0.  1.
</event>
<event>
 7    1  0.2991278E-011  0.5052887E+02  0.7816164E-02  0.1300439E+00
        -11   -1    0    0    0    0  0.00000000000E+00  0.00000000000E+00  0.45593999997E+02  0.45594000000E+02  0.51100000000E-03 0. -1.
         11   -1    0    0    0    0 -0.00000000000E+00 -0.00000000000E+00 -0.45593999997E+02  0.45594000000E+02  0.51100000000E-03 0.  1.
    9900012    2    1    2    0    0 -0.36736954760E+02  0.12981331100E+02 -0.11620941578E+02  0.50528867135E+02  0.30000022145E+02 0.  0.
         12    1    1    2    0    0  0.36736954760E+02 -0.12981331100E+02  0.11620941578E+02  0.40659132865E+02  0.00000000000E+00 0. -1.
         11    1    3    3    0    0 -0.21419227681E+01  0.23518435526E+01 -0.21574678041E+00  0.31883456799E+01  0.51100000000E-03 0. -1.
        -11    1    3    3    0    0 -0.24806007079E+02  0.64272564665E+01  0.65625864835E+01  0.26452129489E+02  0.51100000000E-03 0.  1.
        -12    1    3    3    0    0 -0.97890249129E+01  0.42022310811E+01 -0.17967781281E+02  0.20888391967E+02  0.00000000000E+00 0.  1.
</event>
<event>
 7    1  0.2991278E-011  0.5052886E+02  0.7816164E-02  0.1300439E+00
        -11   -1    0    0    0    0  0.00000000000E+00  0.00000000000E+00  0.45593999997E+02  0.45594000000E+02  0.51100000000E-03 0.  1.
         11   -1    0    0    0    0 -0.00000000000E+00 -0.00000000000E+00 -0.45593999997E+02  0.45594000000E+02  0.51100000000E-03 0. -1.
    9900012    2    1    2    0    0  0.23576088844E+02  0.72657657069E+01  0.32319384857E+02  0.50528856452E+02  0.29999989672E+02 0.  0.
         12    1    1    2    0    0 -0.23576088844E+02 -0.72657657069E+01 -0.32319384857E+02  0.40659143548E+02  0.00000000000E+00 0. -1.
         11    1    3    3    0    0  0.20092985848E+02  0.12277226107E+02  0.12049487379E+02  0.26450869693E+02  0.51100000000E-03 0. -1.
        -11    1    3    3    0    0 -0.28833021769E+01 -0.32957683353E+01  0.15032962214E+02  0.15657760809E+02  0.51100000000E-03 0.  1.
         12    1    3    3    0    0  0.63664051732E+01 -0.17156920647E+01  0.52369352638E+01  0.84202259499E+01  0.00000000000E+00 0. -1.
</event>
<event>
 7    1  0.2991278E-011  0.5052887E+02  0.7816164E-02  0.1300439E+00
        -11   -1    0    0    0    0  0.00000000000E+00  0.00000000000E+00  0.45593999997E+02  0.45594000000E+02  0.51100000000E-03 0.  1.
         11   -1    0    0    0    0 -0.00000000000E+00 -0.00000000000E+00 -0.45593999997E+02  0.45594000000E+02  0.51100000000E-03 0. -1.
    9900012    2    1    2    0    0  0.15953882301E+02 -0.14566912826E+02  0.34444790779E+02  0.50528869149E+02  0.30000028264E+02 0.  0.
         12    1    1    2    0    0 -0.15953882301E+02  0.14566912826E+02 -0.34444790779E+02  0.40659130851E+02  0.00000000000E+00 0. -1.
         11    1    3    3    0    0 -0.13366992596E+01  0.16475340280E+00 -0.14051534643E+01  0.19463722958E+01  0.51100000000E-03 0. -1.
        -11    1    3    3    0    0 -0.45676285190E+00 -0.71756698899E+01  0.25898005704E+02  0.26877603509E+02  0.51100000000E-03 0.  1.
        -12    1    3    3    0    0  0.17747344413E+02 -0.75559963386E+01  0.99519385397E+01  0.21704893344E+02  0.00000000000E+00 0.  1.
</event>
<event>
 7    1  0.2991278E-011  0.5052886E+02  0.7816164E-02  0.1300439E+00
        -11   -1    0    0    0    0  0.00000000000E+00  0.00000000000E+00  0.45593999997E+02  0.45594000000E+02  0.51100000000E-03 0. -1.
         11   -1    0    0    0    0 -0.00000000000E+00 -0.00000000000E+00 -0.45593999997E+02  0.45594000000E+02  0.51100000000E-03 0.  1.
    9900012    2    1    2    0    0 -0.37365514693E+02  0.59985893161E+01 -0.14866101657E+02  0.50528859078E+02  0.29999997654E+02 0.  0.
         12    1    1    2    0    0  0.37365514693E+02 -0.59985893161E+01  0.14866101657E+02  0.40659140922E+02  0.00000000000E+00 0. -1.
         11    1    3    3    0    0 -0.27094412723E+02 -0.43089179631E+01 -0.14902157469E+02  0.31220958862E+02  0.51100000000E-03 0. -1.
        -11    1    3    3    0    0 -0.93600282637E+01  0.32064406734E+01 -0.44612052211E+01  0.10853282599E+02  0.51100000000E-03 0.  1.
         12    1    3    3    0    0 -0.91107370633E+00  0.71010666058E+01  0.44972610338E+01  0.84546176166E+01  0.00000000000E+00 0. -1.
</event>
<event>
 7    1  0.2991278E-011  0.5052886E+02  0.7816164E-02  0.1300439E+00
        -11   -1    0    0    0    0  0.00000000000E+00  0.00000000000E+00  0.45593999997E+02  0.45594000000E+02  0.51100000000E-03 0.  1.
         11   -1    0    0    0    0 -0.00000000000E+00 -0.00000000000E+00 -0.45593999997E+02  0.45594000000E+02  0.51100000000E-03 0. -1.
    9900012    2    1    2    0    0  0.29408812760E+02 -0.26968437220E+02  0.78096443641E+01  0.50528863030E+02  0.30000009666E+02 0.  0.
         12    1    1    2    0    0 -0.29408812760E+02  0.26968437220E+02 -0.78096443641E+01  0.40659136970E+02  0.00000000000E+00 0. -1.
         11    1    3    3    0    0  0.11090520384E+02  0.28236153383E+01  0.52715166794E+01  0.12600052949E+02  0.51100000000E-03 0. -1.
        -11    1    3    3    0    0  0.10676835409E+02 -0.24757757688E+02  0.68420529104E+01  0.27816453195E+02  0.51100000000E-03 0.  1.
        -12    1    3    3    0    0  0.76414569673E+01 -0.50342948706E+01 -0.43039252257E+01  0.10112356885E+02  0.00000000000E+00 0.  1.
</event>
<event>
 7    1  0.2991278E-011  0.5052887E+02  0.7816164E-02  0.1300439E+00
        -11   -1    0    0    0    0  0.00000000000E+00  0.00000000000E+00  0.45593999997E+02  0.45594000000E+02  0.51100000000E-03 0.  1.
         11   -1    0    0    0    0 -0.00000000000E+00 -0.00000000000E+00 -0.45593999997E+02  0.45594000000E+02  0.51100000000E-03 0. -1.
    9900012    2    1    2    0    0 -0.18114086919E+01  0.20216607391E+02  0.35230272149E+02  0.50528874437E+02  0.30000044338E+02 0.  0.
         12    1    1    2    0    0  0.18114086919E+01 -0.20216607391E+02 -0.35230272149E+02  0.40659125563E+02  0.00000000000E+00 0. -1.
         11    1    3    3    0    0 -0.93068344595E+01  0.30042194320E+01  0.21722148232E+02  0.23822137312E+02  0.51100000000E-03 0. -1.
        -11    1    3    3    0    0  0.29345965497E+01  0.17520334260E+02  0.13187509303E+02  0.22124293692E+02  0.51100000000E-03 0.  1.
         12    1    3    3    0    0  0.45608292179E+01 -0.30794630153E+00  0.32061461406E+00  0.45824434323E+01  0.00000000000E+00 0. -1.
</event>
<event>
 7    1  0.2991278E-011  0.5052885E+02  0.7816164E-02  0.1300439E+00
        -11   -1    0    0    0    0  0.00000000000E+00  0.00000000000E+00  0.45593999997E+02  0.45594000000E+02  0.51100000000E-03 0. -1.
         11   -1    0    0    0    0 -0.00000000000E+00 -0.00000000000E+00 -0.45593999997E+02  0.45594000000E+02  0.51100000000E-03 0.  1.
    9900012    2    1    2    0    0  0.21978680978E+01 -0.22471956612E+02 -0.33813413457E+02  0.50528851119E+02  0.29999973461E+02 0.  0.
         12    1    1    2    0    0 -0.21978680978E+01  0.22471956612E+02  0.33813413457E+02  0.40659148881E+02  0.00000000000E+00 0. -1.
         11    1    3    3    0    0  0.18458724475E+01 -0.36844515332E+01  0.11887953987E+01  0.42890165486E+01  0.51100000000E-03 0. -1.
        -11    1    3    3    0    0  0.91575956113E+01 -0.19105181563E+02 -0.27143470541E+02  0.34433087478E+02  0.51100000000E-03 0.  1.
        -12    1    3    3    0    0 -0.88055999610E+01  0.31767648506E+00 -0.78587383140E+01  0.11806747093E+02  0.00000000000E+00 0.  1.
</event>
<event>
 7    1  0.2991278E-011  0.5052886E+02  0.7816164E-02  0.1300439E+00
        -11   -1    0    0    0    0  0.00000000000E+00  0.00000000000E+00  0.45593999997E+02  0.45594000000E+02  0.51100000000E-03 0.  1.
         11   -1    0    0    0    0 -0.00000000000E+00 -0.00000000000E+00 -0.45593999997E+02  0.45594000000E+02  0.51100000000E-03 0. -1.
    9900012    2    1    2    0    0 -0.10065478928E+02  0.34352012173E+02  0.19281882865E+02  0.50528860644E+02  0.30000002412E+02 0.  0.
         12    1    1    2    0    0  0.10065478928E+02 -0.34352012173E+02 -0.19281882865E+02  0.40659139356E+02  0.00000000000E+00 0. -1.
         11    1    3    3    0    0 -0.55054437652E+01 -0.94279905805E+00 -0.17360106421E+01  0.58491464614E+01  0.51100000000E-03 0. -1.
        -11    1    3    3    0    0  0.64201991324E+01  0.13664480079E+02  0.93859591497E+01  0.17777322694E+02  0.51100000000E-03 0.  1.
        -12    1    3    3    0    0 -0.10980234295E+02  0.21630331152E+02  0.11631934358E+02  0.26902391489E+02  0.00000000000E+00 0.  1.
</event>
<event>
 7    1  0.2991278E-011  0.5052884E+02  0.7816164E-02  0.1300439E+00
        -11   -1    0    0    0    0  0.00000000000E+00  0.00000000000E+00  0.45593999997E+02  0.45594000000E+02  0.51100000000E-03 0.  1.
         11   -1    0    0    0    0 -0.00000000000E+00 -0.00000000000E+00 -0.45593999997E+02  0.45594000000E+02  0.51100000000E-03 0. -1.
    9900012    2    1    2    0    0 -0.47681302687E+01 -0.18795718355E+02  0.35737275602E+02  0.50528844055E+02  0.29999951988E+02 0.  0.
         12    1    1    2    0    0  0.47681302687E+01  0.18795718355E+02 -0.35737275602E+02  0.40659155945E+02  0.00000000000E+00 0. -1.
         11    1    3    3    0    0 -0.10873955266E+02 -0.10650857768E+01  0.21895280209E+02  0.24469994003E+02  0.51100000000E-03 0. -1.
        -11    1    3    3    0    0  0.76008881546E+01 -0.18752971035E+02  0.12297903359E+02  0.23678805939E+02  0.51100000000E-03 0.  1.
        -12    1    3    3    0    0 -0.14950631577E+01  0.10223384576E+01  0.15440920341E+01  0.23800441124E+01  0.00000000000E+00 0.  1.
</event>
<event>
 7    1  0.2991278E-011  0.5052883E+02  0.7816164E-02  0.1300439E+00
        -11   -1    0    0    0    0  0.00000000000E+00  0.00000000000E+00  0.45593999997E+02  0.45594000000E+02  0.51100000000E-03 0.  1.
         11   -1    0    0    0    0 -0.00000000000E+00 -0.00000000000E+00 -0.45593999997E+02  0.45594000000E+02  0.51100000000E-03 0. -1.
    9900012    2    1    2    0    0 -0.26062345066E+02 -0.16281612913E+02  0.26623880020E+02  0.50528834529E+02  0.29999923036E+02 0.  0.
         12    1    1    2    0    0  0.26062345066E+02  0.16281612913E+02 -0.26623880020E+02  0.40659165471E+02  0.00000000000E+00 0. -1.
         11    1    3    3    0    0  0.50089160984E+01  0.27832441068E+01  0.34608542800E+01  0.66942662666E+01  0.51100000000E-03 0. -1.
        -11    1    3    3    0    0 -0.76023354166E+01 -0.29034965329E+01  0.85763215050E+01  0.11822820591E+02  0.51100000000E-03 0.  1.
         12    1    3    3    0    0 -0.23468925748E+02 -0.16161360487E+02  0.14586704235E+02  0.32011747672E+02  0.00000000000E+00 0. -1.
</event>
<event>
 7    1  0.2991278E-011  0.5052886E+02  0.7816164E-02  0.1300439E+00
        -11   -1    0    0    0    0  0.00000000000E+00  0.00000000000E+00  0.45593999997E+02  0.45594000000E+02  0.51100000000E-03 0.  1.
         11   -1    0    0    0    0 -0.00000000000E+00 -0.00000000000E+00 -0.45593999997E+02  0.45594000000E+02  0.51100000000E-03 0. -1.
    9900012    2    1    2    0    0 -0.14545797729E+02 -0.37464641481E+02  0.61632893924E+01  0.50528859220E+02  0.29999998085E+02 0.  0.
         12    1    1    2    0    0  0.14545797729E+02  0.37464641481E+02 -0.61632893924E+01  0.40659140780E+02  0.00000000000E+00 0. -1.
         11    1    3    3    0    0  0.62768218173E+00 -0.20314312677E+02 -0.30040709481E+01  0.20544822389E+02  0.51100000000E-03 0. -1.
        -11    1    3    3    0    0 -0.92395129788E+01 -0.25918722946E+01 -0.30548199634E+01  0.10070666678E+02  0.51100000000E-03 0.  1.
        -12    1    3    3    0    0 -0.59339669316E+01 -0.14558456509E+02  0.12222180304E+02  0.19913370153E+02  0.00000000000E+00 0.  1.
</event>
<event>
 7    1  0.2991278E-011  0.5052886E+02  0.7816164E-02  0.1300439E+00
        -11   -1    0    0    0    0  0.00000000000E+00  0.00000000000E+00  0.45593999997E+02  0.45594000000E+02  0.51100000000E-03 0. -1.
         11   -1    0    0    0    0 -0.00000000000E+00 -0.00000000000E+00 -0.45593999997E+02  0.45594000000E+02  0.51100000000E-03 0.  1.
    9900012    2    1    2    0    0 -0.20366731864E+02  0.31231978181E+02 -0.16214980863E+02  0.50528857949E+02  0.29999994223E+02 0.  0.
         12    1    1    2    0    0  0.20366731864E+02 -0.31231978181E+02  0.16214980863E+02  0.40659142051E+02  0.00000000000E+00 0. -1.
         11    1    3    3    0    0 -0.18803523216E+01  0.59239710827E+01  0.54096226446E+01  0.82397315284E+01  0.51100000000E-03 0. -1.
        -11    1    3    3    0    0 -0.97539680279E+01  0.25318139414E+02 -0.13268025334E+02  0.30202459705E+02  0.51100000000E-03 0.  1.
        -12    1    3    3    0    0 -0.87324115149E+01 -0.10132316663E-01 -0.83565781739E+01  0.12086666716E+02  0.00000000000E+00 0.  1.
</event>
<event>
 7    1  0.2991278E-011  0.5052886E+02  0.7816164E-02  0.1300439E+00
        -11   -1    0    0    0    0  0.00000000000E+00  0.00000000000E+00  0.45593999997E+02  0.45594000000E+02  0.51100000000E-03 0.  1.
         11   -1    0    0    0    0 -0.00000000000E+00 -0.00000000000E+00 -0.45593999997E+02  0.45594000000E+02  0.51100000000E-03 0. -1.
    9900012    2    1    2    0    0 -0.10677982265E+02  0.21775423906E+02  0.32633985384E+02  0.50528863344E+02  0.30000010621E+02 0.  0.
         12    1    1    2    0    0  0.10677982265E+02 -0.21775423906E+02 -0.32633985384E+02  0.40659136656E+02  0.00000000000E+00 0. -1.
         11    1    3    3    0    0 -0.11160210825E+02  0.20737836072E+02  0.91472641608E+01  0.25264215652E+02  0.51100000000E-03 0.  1.
        -11    1    3    3    0    0 -0.40646360228E+01 -0.51377629193E+00  0.71989472841E+01  0.82831198432E+01  0.51100000000E-03 0. -1.
         12    1    3    3    0    0  0.45468645835E+01  0.15513641257E+01  0.16287773939E+02  0.16981527849E+02  0.00000000000E+00 0. -1.
</event>
<event>
 7    1  0.2991278E-011  0.5052886E+02  0.7816164E-02  0.1300439E+00
        -11   -1    0    0    0    0  0.00000000000E+00  0.00000000000E+00  0.45593999997E+02  0.45594000000E+02  0.51100000000E-03 0.  1.
         11   -1    0    0    0    0 -0.00000000000E+00 -0.00000000000E+00 -0.45593999997E+02  0.45594000000E+02  0.51100000000E-03 0. -1.
    9900012    2    1    2    0    0 -0.27298185257E+02 -0.21591014666E+02  0.21019110589E+02  0.50528857823E+02  0.29999993837E+02 0.  0.
         12    1    1    2    0    0  0.27298185257E+02  0.21591014666E+02 -0.21019110589E+02  0.40659142177E+02  0.00000000000E+00 0. -1.
         11    1    3    3    0    0 -0.49879819529E+00 -0.78046428551E+01 -0.21806509898E+01  0.81188970148E+01  0.51100000000E-03 0. -1.
        -11    1    3    3    0    0 -0.26924519581E+02 -0.12428521167E+02  0.25907911017E+02  0.39377883978E+02  0.51100000000E-03 0.  1.
         12    1    3    3    0    0  0.12513251889E+00 -0.13578506446E+01 -0.27081494385E+01  0.30320768298E+01  0.00000000000E+00 0. -1.
</event>
<event>
 7    1  0.2991278E-011  0.5052886E+02  0.7816164E-02  0.1300439E+00
        -11   -1    0    0    0    0  0.00000000000E+00  0.00000000000E+00  0.45593999997E+02  0.45594000000E+02  0.51100000000E-03 0.  1.
         11   -1    0    0    0    0 -0.00000000000E+00 -0.00000000000E+00 -0.45593999997E+02  0.45594000000E+02  0.51100000000E-03 0. -1.
    9900012    2    1    2    0    0 -0.12650640287E+02 -0.11178983092E+02  0.36988608453E+02  0.50528861815E+02  0.30000005973E+02 0.  0.
         12    1    1    2    0    0  0.12650640287E+02  0.11178983092E+02 -0.36988608453E+02  0.40659138185E+02  0.00000000000E+00 0. -1.
         11    1    3    3    0    0  0.62826535266E+01  0.50323586923E+01  0.14260830792E+02  0.16375825612E+02  0.51100000000E-03 0. -1.
        -11    1    3    3    0    0 -0.11970118753E+02 -0.12758223915E+02  0.17756043713E+02  0.24926554295E+02  0.51100000000E-03 0.  1.
         12    1    3    3    0    0 -0.69631750604E+01 -0.34531178698E+01  0.49717339489E+01  0.92264819083E+01  0.00000000000E+00 0. -1.
</event>
<event>
 7    1  0.2991278E-011  0.5052886E+02  0.7816164E-02  0.1300439E+00
        -11   -1    0    0    0    0  0.00000000000E+00  0.00000000000E+00  0.45593999997E+02  0.45594000000E+02  0.51100000000E-03 0.  1.
         11   -1    0    0    0    0 -0.00000000000E+00 -0.00000000000E+00 -0.45593999997E+02  0.45594000000E+02  0.51100000000E-03 0. -1.
    9900012    2    1    2    0    0 -0.12468160771E+02 -0.36021444380E+02  0.14148019033E+02  0.50528856738E+02  0.29999990539E+02 0.  0.
         12    1    1    2    0    0  0.12468160771E+02  0.36021444380E+02 -0.14148019033E+02  0.40659143262E+02  0.00000000000E+00 0. -1.
         11    1    3    3    0    0  0.48773449625E+01 -0.78359579397E+01 -0.75916240812E+00  0.92610506175E+01  0.51100000000E-03 0.  1.
        -11    1    3    3    0    0 -0.33589275483E+01 -0.12508218896E+01  0.98730061467E+01  0.10503485151E+02  0.51100000000E-03 0. -1.
        -12    1    3    3    0    0 -0.13986578185E+02 -0.26934664551E+02  0.50341752948E+01  0.30764320970E+02  0.00000000000E+00 0.  1.
</event>
<event>
 7    1  0.2991278E-011  0.5052886E+02  0.7816164E-02  0.1300439E+00
        -11   -1    0    0    0    0  0.00000000000E+00  0.00000000000E+00  0.45593999997E+02  0.45594000000E+02  0.51100000000E-03 0.  1.
         11   -1    0    0    0    0 -0.00000000000E+00 -0.00000000000E+00 -0.45593999997E+02  0.45594000000E+02  0.51100000000E-03 0. -1.
    9900012    2    1    2    0    0 -0.93542238894E+01 -0.37298549394E+02  0.13209182946E+02  0.50528858278E+02  0.29999995220E+02 0.  0.
         12    1    1    2    0    0  0.93542238894E+01  0.37298549394E+02 -0.13209182946E+02  0.40659141722E+02  0.00000000000E+00 0. -1.
         11    1    3    3    0    0 -0.45835936020E+01 -0.57221001811E+01  0.16584313261E+02  0.18132600679E+02  0.51100000000E-03 0.  1.
        -11    1    3    3    0    0 -0.27493735122E+01 -0.22803450023E+02 -0.42229958729E+01  0.23353588205E+02  0.51100000000E-03 0. -1.
        -12    1    3    3    0    0 -0.20212567753E+01 -0.87729991905E+01  0.84786555787E+00  0.90426693931E+01  0.00000000000E+00 0.  1.
</event>
<event>
 7    1  0.2991278E-011  0.5052886E+02  0.7816164E-02  0.1300439E+00
        -11   -1    0    0    0    0  0.00000000000E+00  0.00000000000E+00  0.45593999997E+02  0.45594000000E+02  0.51100000000E-03 0. -1.
         11   -1    0    0    0    0 -0.00000000000E+00 -0.00000000000E+00 -0.45593999997E+02  0.45594000000E+02  0.51100000000E-03 0.  1.
    9900012    2    1    2    0    0  0.57258611053E+01 -0.23820138555E+02 -0.32449673981E+02  0.50528858006E+02  0.29999994395E+02 0.  0.
         12    1    1    2    0    0 -0.57258611053E+01  0.23820138555E+02  0.32449673981E+02  0.40659141994E+02  0.00000000000E+00 0. -1.
         11    1    3    3    0    0  0.12478470424E+01 -0.15857390938E+02 -0.93535336159E+00  0.15933890165E+02  0.51100000000E-03 0. -1.
        -11    1    3    3    0    0  0.38886081404E+01  0.12975556969E+01 -0.47851967427E+01  0.63010342154E+01  0.51100000000E-03 0.  1.
         12    1    3    3    0    0  0.58940592251E+00 -0.92603033140E+01 -0.26729123877E+02  0.28293933626E+02  0.00000000000E+00 0. -1.
</event>
<event>
 7    1  0.2991278E-011  0.5052887E+02  0.7816164E-02  0.1300439E+00
        -11   -1    0    0    0    0  0.00000000000E+00  0.00000000000E+00  0.45593999997E+02  0.45594000000E+02  0.51100000000E-03 0. -1.
         11   -1    0    0    0    0 -0.00000000000E+00 -0.00000000000E+00 -0.45593999997E+02  0.45594000000E+02  0.51100000000E-03 0.  1.
    9900012    2    1    2    0    0  0.13690774167E+02  0.36240396752E+02 -0.12343473259E+02  0.50528868355E+02  0.30000025852E+02 0.  0.
         12    1    1    2    0    0 -0.13690774167E+02 -0.36240396752E+02  0.12343473259E+02  0.40659131645E+02  0.00000000000E+00 0. -1.
         11    1    3    3    0    0 -0.70611791872E+01  0.67806568049E+01 -0.24942908960E+01  0.10102427706E+02  0.51100000000E-03 0. -1.
        -11    1    3    3    0    0  0.87507072643E+01  0.24698974214E+02 -0.79056896333E+01  0.27369949465E+02  0.51100000000E-03 0.  1.
         12    1    3    3    0    0  0.12001246090E+02  0.47607657328E+01 -0.19434927300E+01  0.13056491185E+02  0.00000000000E+00 0. -1.
</event>
<event>
 7    1  0.2991278E-011  0.5052887E+02  0.7816164E-02  0.1300439E+00
        -11   -1    0    0    0    0  0.00000000000E+00  0.00000000000E+00  0.45593999997E+02  0.45594000000E+02  0.51100000000E-03 0. -1.
         11   -1    0    0    0    0 -0.00000000000E+00 -0.00000000000E+00 -0.45593999997E+02  0.45594000000E+02  0.51100000000E-03 0.  1.
    9900012    2    1    2    0    0  0.52784501723E+01 -0.17516949953E+02 -0.36310592348E+02  0.50528872014E+02  0.30000036975E+02 0.  0.
         12    1    1    2    0    0 -0.52784501723E+01  0.17516949953E+02  0.36310592348E+02  0.40659127986E+02  0.00000000000E+00 0. -1.
         11    1    3    3    0    0 -0.27678397506E+01  0.43035674679E+01 -0.12409640191E+02  0.13423144184E+02  0.51100000000E-03 0. -1.
        -11    1    3    3    0    0  0.84828316862E+01 -0.18656744916E+02 -0.26131805121E+02  0.33209995535E+02  0.51100000000E-03 0.  1.
        -12    1    3    3    0    0 -0.43654176327E+00 -0.31637725046E+01  0.22308529642E+01  0.38957322958E+01  0.00000000000E+00 0.  1.
</event>
<event>
 7    1  0.2991278E-011  0.5052890E+02  0.7816164E-02  0.1300439E+00
        -11   -1    0    0    0    0  0.00000000000E+00  0.00000000000E+00  0.45593999997E+02  0.45594000000E+02  0.51100000000E-03 0.  1.
         11   -1    0    0    0    0 -0.00000000000E+00 -0.00000000000E+00 -0.45593999997E+02  0.45594000000E+02  0.51100000000E-03 0. -1.
    9900012    2    1    2    0    0  0.12553815453E+02  0.20543838927E+02  0.32764534254E+02  0.50528901323E+02  0.30000126062E+02 0.  0.
         12    1    1    2    0    0 -0.12553815453E+02 -0.20543838927E+02 -0.32764534254E+02  0.40659098677E+02  0.00000000000E+00 0. -1.
         11    1    3    3    0    0 -0.42468485954E+01 -0.20966261415E+00  0.89837299259E+01  0.99391692332E+01  0.51100000000E-03 0. -1.
        -11    1    3    3    0    0  0.19202759449E+02  0.21336133884E+02  0.24782299168E+02  0.37922802268E+02  0.51100000000E-03 0.  1.
        -12    1    3    3    0    0 -0.24020954005E+01 -0.58263234285E+00 -0.10014948394E+01  0.26669298216E+01  0.00000000000E+00 0.  1.
</event>
<event>
 7    1  0.2991278E-011  0.5052874E+02  0.7816164E-02  0.1300439E+00
        -11   -1    0    0    0    0  0.00000000000E+00  0.00000000000E+00  0.45593999997E+02  0.45594000000E+02  0.51100000000E-03 0. -1.
         11   -1    0    0    0    0 -0.00000000000E+00 -0.00000000000E+00 -0.45593999997E+02  0.45594000000E+02  0.51100000000E-03 0.  1.
    9900012    2    1    2    0    0  0.17941451098E+02  0.40504967126E+01 -0.36261181532E+02  0.50528739342E+02  0.29999633703E+02 0.  0.
         12    1    1    2    0    0 -0.17941451098E+02 -0.40504967126E+01  0.36261181532E+02  0.40659260658E+02  0.00000000000E+00 0. -1.
         11    1    3    3    0    0  0.51490512712E+00  0.84675873448E+01 -0.32535900998E+01  0.90857587207E+01  0.51100000000E-03 0. -1.
        -11    1    3    3    0    0  0.18253084212E+02 -0.82867035189E+01 -0.22086382097E+02  0.29827048344E+02  0.51100000000E-03 0.  1.
        -12    1    3    3    0    0 -0.82653824145E+00  0.38696128867E+01 -0.10921209335E+02  0.11615932278E+02  0.00000000000E+00 0.  1.
</event>
<event>
 7    1  0.2991278E-011  0.5052886E+02  0.7816164E-02  0.1300439E+00
        -11   -1    0    0    0    0  0.00000000000E+00  0.00000000000E+00  0.45593999997E+02  0.45594000000E+02  0.51100000000E-03 0.  1.
         11   -1    0    0    0    0 -0.00000000000E+00 -0.00000000000E+00 -0.45593999997E+02  0.45594000000E+02  0.51100000000E-03 0. -1.
    9900012    2    1    2    0    0 -0.20233873412E+02  0.34313331733E+02  0.81456251399E+01  0.50528861091E+02  0.30000003772E+02 0.  0.
         12    1    1    2    0    0  0.20233873412E+02 -0.34313331733E+02 -0.81456251399E+01  0.40659138909E+02  0.00000000000E+00 0. -1.
         11    1    3    3    0    0 -0.38948570094E+01  0.87311669942E+01 -0.58983079228E+01  0.11233575781E+02  0.51100000000E-03 0. -1.
        -11    1    3    3    0    0 -0.15261095287E+02  0.23545892982E+02  0.18961220757E+02  0.33864996656E+02  0.51100000000E-03 0.  1.
        -12    1    3    3    0    0 -0.10779211164E+01  0.20362717573E+01 -0.49172876941E+01  0.54302886543E+01  0.00000000000E+00 0.  1.
</event>
<event>
 7    1  0.2991278E-011  0.5052886E+02  0.7816164E-02  0.1300439E+00
        -11   -1    0    0    0    0  0.00000000000E+00  0.00000000000E+00  0.45593999997E+02  0.45594000000E+02  0.51100000000E-03 0.  1.
         11   -1    0    0    0    0 -0.00000000000E+00 -0.00000000000E+00 -0.45593999997E+02  0.45594000000E+02  0.51100000000E-03 0. -1.
    9900012    2    1    2    0    0  0.12375246605E+02  0.22876159124E+02  0.31252207016E+02  0.50528858000E+02  0.29999994377E+02 0.  0.
         12    1    1    2    0    0 -0.12375246605E+02 -0.22876159124E+02 -0.31252207016E+02  0.40659142000E+02  0.00000000000E+00 0. -1.
         11    1    3    3    0    0  0.11400754432E+01  0.19832073971E+01 -0.52028615460E+01  0.56835422163E+01  0.51100000000E-03 0. -1.
        -11    1    3    3    0    0  0.97887636693E+01  0.12988663128E+02  0.15770151893E+02  0.22654424623E+02  0.51100000000E-03 0.  1.
         12    1    3    3    0    0  0.14464074927E+01  0.79042885994E+01  0.20684916669E+02  0.22190891161E+02  0.00000000000E+00 0. -1.
</event>
<event>
 7    1  0.2991278E-011  0.5052886E+02  0.7816164E-02  0.1300439E+00
        -11   -1    0    0    0    0  0.00000000000E+00  0.00000000000E+00  0.45593999997E+02  0.45594000000E+02  0.51100000000E-03 0.  1.
         11   -1    0    0    0    0 -0.00000000000E+00 -0.00000000000E+00 -0.45593999997E+02  0.45594000000E+02  0.51100000000E-03 0. -1.
    9900012    2    1    2    0    0 -0.18563954943E+00 -0.25067695463E+02  0.32011591398E+02  0.50528858325E+02  0.29999995365E+02 0.  0.
         12    1    1    2    0    0  0.18563954943E+00  0.25067695463E+02 -0.32011591398E+02  0.40659141675E+02  0.00000000000E+00 0. -1.
         11    1    3    3    0    0  0.92500442087E+01 -0.17237401389E+02  0.31111132709E+02  0.36750427253E+02  0.51100000000E-03 0. -1.
        -11    1    3    3    0    0 -0.68935814386E+01 -0.58980274480E+01  0.34358092053E+01  0.97011843599E+01  0.51100000000E-03 0.  1.
         12    1    3    3    0    0 -0.25421023195E+01 -0.19322666258E+01 -0.25353505164E+01  0.40772467128E+01  0.00000000000E+00 0. -1.
</event>
<event>
 7    1  0.2991278E-011  0.5052886E+02  0.7816164E-02  0.1300439E+00
        -11   -1    0    0    0    0  0.00000000000E+00  0.00000000000E+00  0.45593999997E+02  0.45594000000E+02  0.51100000000E-03 0.  1.
         11   -1    0    0    0    0 -0.00000000000E+00 -0.00000000000E+00 -0.45593999997E+02  0.45594000000E+02  0.51100000000E-03 0. -1.
    9900012    2    1    2    0    0 -0.40063549890E+01 -0.20976613732E+02  0.34599083466E+02  0.50528858585E+02  0.29999996154E+02 0.  0.
         12    1    1    2    0    0  0.40063549890E+01  0.20976613732E+02 -0.34599083466E+02  0.40659141415E+02  0.00000000000E+00 0. -1.
         11    1    3    3    0    0  0.44312668853E+01 -0.73716132157E+01 -0.26561427629E+01  0.90017721727E+01  0.51100000000E-03 0. -1.
        -11    1    3    3    0    0 -0.91945594184E+01 -0.66811135043E+01  0.22292021253E+02  0.25022218374E+02  0.51100000000E-03 0.  1.
        -12    1    3    3    0    0  0.75693754407E+00 -0.69238870116E+01  0.14963204976E+02  0.16504868037E+02  0.00000000000E+00 0.  1.
</event>
<event>
 7    1  0.2991278E-011  0.5052885E+02  0.7816164E-02  0.1300439E+00
        -11   -1    0    0    0    0  0.00000000000E+00  0.00000000000E+00  0.45593999997E+02  0.45594000000E+02  0.51100000000E-03 0.  1.
         11   -1    0    0    0    0 -0.00000000000E+00 -0.00000000000E+00 -0.45593999997E+02  0.45594000000E+02  0.51100000000E-03 0. -1.
    9900012    2    1    2    0    0  0.15138231241E+02 -0.28219057169E+02  0.25053653659E+02  0.50528846119E+02  0.29999958264E+02 0.  0.
         12    1    1    2    0    0 -0.15138231241E+02  0.28219057169E+02 -0.25053653659E+02  0.40659153881E+02  0.00000000000E+00 0. -1.
         11    1    3    3    0    0  0.80262351585E+01 -0.27098162823E+01  0.80681068490E+01  0.11698628274E+02  0.51100000000E-03 0. -1.
        -11    1    3    3    0    0  0.47323760729E+01 -0.21358577505E+02  0.73382051494E+00  0.21888871811E+02  0.51100000000E-03 0.  1.
        -12    1    3    3    0    0  0.23796200100E+01 -0.41506633815E+01  0.16251726295E+02  0.16941346035E+02  0.00000000000E+00 0.  1.
</event>
<event>
 7    1  0.2991278E-011  0.5052885E+02  0.7816164E-02  0.1300439E+00
        -11   -1    0    0    0    0  0.00000000000E+00  0.00000000000E+00  0.45593999997E+02  0.45594000000E+02  0.51100000000E-03 0.  1.
         11   -1    0    0    0    0 -0.00000000000E+00 -0.00000000000E+00 -0.45593999997E+02  0.45594000000E+02  0.51100000000E-03 0. -1.
    9900012    2    1    2    0    0  0.32732910793E+02 -0.16035830353E+02  0.18015963736E+02  0.50528852770E+02  0.29999978480E+02 0.  0.
         12    1    1    2    0    0 -0.32732910793E+02  0.16035830353E+02 -0.18015963736E+02  0.40659147230E+02  0.00000000000E+00 0. -1.
         11    1    3    3    0    0  0.13594880296E+02 -0.41709768663E+01 -0.29988949033E+01  0.14533106659E+02  0.51100000000E-03 0. -1.
        -11    1    3    3    0    0  0.65211924737E+01 -0.10519189991E+02  0.19665246687E+02  0.23235774936E+02  0.51100000000E-03 0.  1.
        -12    1    3    3    0    0  0.12616838024E+02 -0.13456634953E+01  0.13496119526E+01  0.12759971175E+02  0.00000000000E+00 0.  1.
</event>
<event>
 7    1  0.2991278E-011  0.5052885E+02  0.7816164E-02  0.1300439E+00
        -11   -1    0    0    0    0  0.00000000000E+00  0.00000000000E+00  0.45593999997E+02  0.45594000000E+02  0.51100000000E-03 0. -1.
         11   -1    0    0    0    0 -0.00000000000E+00 -0.00000000000E+00 -0.45593999997E+02  0.45594000000E+02  0.51100000000E-03 0.  1.
    9900012    2    1    2    0    0  0.34266793786E+02  0.10418078320E+02 -0.19246210799E+02  0.50528854136E+02  0.29999982633E+02 0.  0.
         12    1    1    2    0    0 -0.34266793786E+02 -0.10418078320E+02  0.19246210799E+02  0.40659145864E+02  0.00000000000E+00 0. -1.
         11    1    3    3    0    0  0.59300085187E+01 -0.26110297577E+01 -0.59610041352E+01  0.88043198482E+01  0.51100000000E-03 0. -1.
        -11    1    3    3    0    0  0.32232795542E+01  0.95196977082E+01 -0.12914175853E+02  0.16364293867E+02  0.51100000000E-03 0.  1.
        -12    1    3    3    0    0  0.25113505713E+02  0.35094103691E+01 -0.37103081014E+00  0.25360240421E+02  0.00000000000E+00 0.  1.
</event>
<event>
 7    1  0.2991278E-011  0.5052886E+02  0.7816164E-02  0.1300439E+00
        -11   -1    0    0    0    0  0.00000000000E+00  0.00000000000E+00  0.45593999997E+02  0.45594000000E+02  0.51100000000E-03 0.  1.
         11   -1    0    0    0    0 -0.00000000000E+00 -0.00000000000E+00 -0.45593999997E+02  0.45594000000E+02  0.51100000000E-03 0. -1.
    9900012    2    1    2    0    0  0.90490966620E+01 -0.25996261474E+02  0.29924464966E+02  0.50528863702E+02  0.30000011708E+02 0.  0.
         12    1    1    2    0    0 -0.90490966620E+01  0.25996261474E+02 -0.29924464966E+02  0.40659136298E+02  0.00000000000E+00 0. -1.
         11    1    3    3    0    0  0.36678043121E+00  0.71243348815E+00  0.20869882094E+01  0.22355333608E+01  0.51100000000E-03 0. -1.
        -11    1    3    3    0    0 -0.64477616089E+01  0.22176322068E+01  0.48534527902E+01  0.83694400420E+01  0.51100000000E-03 0.  1.
        -12    1    3    3    0    0  0.15130077840E+02 -0.28926327169E+02  0.22984023966E+02  0.39923890299E+02  0.00000000000E+00 0.  1.
</event>
<event>
 7    1  0.2991278E-011  0.5052886E+02  0.7816164E-02  0.1300439E+00
        -11   -1    0    0    0    0  0.00000000000E+00  0.00000000000E+00  0.45593999997E+02  0.45594000000E+02  0.51100000000E-03 0.  1.
         11   -1    0    0    0    0 -0.00000000000E+00 -0.00000000000E+00 -0.45593999997E+02  0.45594000000E+02  0.51100000000E-03 0. -1.
    9900012    2    1    2    0    0 -0.88305320949E+01  0.10035653059E+02  0.38398863967E+02  0.50528863470E+02  0.30000011005E+02 0.  0.
         12    1    1    2    0    0  0.88305320949E+01 -0.10035653059E+02 -0.38398863967E+02  0.40659136530E+02  0.00000000000E+00 0. -1.
         11    1    3    3    0    0 -0.13709411257E+02 -0.21119768870E+01  0.15725021966E+02  0.20968660413E+02  0.51100000000E-03 0. -1.
        -11    1    3    3    0    0  0.79270189806E+01  0.38678587163E+01  0.16757867900E+02  0.18937373043E+02  0.51100000000E-03 0.  1.
         12    1    3    3    0    0 -0.30481398181E+01  0.82797712294E+01  0.59159741006E+01  0.10622830015E+02  0.00000000000E+00 0. -1.
</event>
<event>
 7    1  0.2991278E-011  0.5052886E+02  0.7816164E-02  0.1300439E+00
        -11   -1    0    0    0    0  0.00000000000E+00  0.00000000000E+00  0.45593999997E+02  0.45594000000E+02  0.51100000000E-03 0. -1.
         11   -1    0    0    0    0 -0.00000000000E+00 -0.00000000000E+00 -0.45593999997E+02  0.45594000000E+02  0.51100000000E-03 0.  1.
    9900012    2    1    2    0    0  0.25566210532E+02 -0.25587407485E+02  0.18569307171E+02  0.50528859434E+02  0.29999998736E+02 0.  0.
         12    1    1    2    0    0 -0.25566210532E+02  0.25587407485E+02 -0.18569307171E+02  0.40659140566E+02  0.00000000000E+00 0. -1.
         11    1    3    3    0    0  0.11624262264E+02 -0.23746257861E+02  0.15307839780E+02  0.30550584194E+02  0.51100000000E-03 0.  1.
        -11    1    3    3    0    0  0.13806427473E+02  0.24721560889E+01  0.55612479151E+01  0.15088289297E+02  0.51100000000E-03 0. -1.
        -12    1    3    3    0    0  0.13552079532E+00 -0.43133057129E+01 -0.22997805247E+01  0.48899859427E+01  0.00000000000E+00 0.  1.
</event>
<event>
 7    1  0.2991278E-011  0.5052884E+02  0.7816164E-02  0.1300439E+00
        -11   -1    0    0    0    0  0.00000000000E+00  0.00000000000E+00  0.45593999997E+02  0.45594000000E+02  0.51100000000E-03 0. -1.
         11   -1    0    0    0    0 -0.00000000000E+00 -0.00000000000E+00 -0.45593999997E+02  0.45594000000E+02  0.51100000000E-03 0.  1.
    9900012    2    1    2    0    0  0.39598400296E+02  0.77175765000E+01 -0.50569903259E+01  0.50528838127E+02  0.29999933971E+02 0.  0.
         12    1    1    2    0    0 -0.39598400296E+02 -0.77175765000E+01  0.50569903259E+01  0.40659161873E+02  0.00000000000E+00 0. -1.
         11    1    3    3    0    0  0.48113449049E+01 -0.55695638254E+01 -0.63753649221E+01  0.97372665132E+01  0.51100000000E-03 0.  1.
        -11    1    3    3    0    0  0.22612477365E+02  0.16412180526E+02  0.30373092971E+01  0.28105320675E+02  0.51100000000E-03 0. -1.
        -12    1    3    3    0    0  0.12174578026E+02 -0.31250402010E+01 -0.17189347009E+01  0.12686250939E+02  0.00000000000E+00 0.  1.
</event>
<event>
 7    1  0.2991278E-011  0.5052888E+02  0.7816164E-02  0.1300439E+00
        -11   -1    0    0    0    0  0.00000000000E+00  0.00000000000E+00  0.45593999997E+02  0.45594000000E+02  0.51100000000E-03 0.  1.
         11   -1    0    0    0    0 -0.00000000000E+00 -0.00000000000E+00 -0.45593999997E+02  0.45594000000E+02  0.51100000000E-03 0. -1.
    9900012    2    1    2    0    0  0.38326718079E+02  0.98820057924E+01 -0.93044533356E+01  0.50528877911E+02  0.30000054897E+02 0.  0.
         12    1    1    2    0    0 -0.38326718079E+02 -0.98820057924E+01  0.93044533356E+01  0.40659122089E+02  0.00000000000E+00 0. -1.
         11    1    3    3    0    0  0.15568144361E+02  0.11214460205E+02 -0.19226490898E+01  0.19282837351E+02  0.51100000000E-03 0. -1.
        -11    1    3    3    0    0  0.32646531027E+01 -0.70351549345E+01  0.31451450972E+01  0.83691877012E+01  0.51100000000E-03 0.  1.
         12    1    3    3    0    0  0.19493920616E+02  0.57027005217E+01 -0.10526949343E+02  0.22876852858E+02  0.00000000000E+00 0. -1.
</event>
<event>
 7    1  0.2991278E-011  0.5052887E+02  0.7816164E-02  0.1300439E+00
        -11   -1    0    0    0    0  0.00000000000E+00  0.00000000000E+00  0.45593999997E+02  0.45594000000E+02  0.51100000000E-03 0.  1.
         11   -1    0    0    0    0 -0.00000000000E+00 -0.00000000000E+00 -0.45593999997E+02  0.45594000000E+02  0.51100000000E-03 0. -1.
    9900012    2    1    2    0    0 -0.31382943393E+02 -0.33723201397E+01  0.25630121880E+02  0.50528870315E+02  0.30000031811E+02 0.  0.
         12    1    1    2    0    0  0.31382943393E+02  0.33723201397E+01 -0.25630121880E+02  0.40659129685E+02  0.00000000000E+00 0. -1.
         11    1    3    3    0    0 -0.68455968041E+00 -0.33239359818E+01 -0.55142079065E+01  0.64748483738E+01  0.51100000000E-03 0. -1.
        -11    1    3    3    0    0 -0.17599898829E+02 -0.26629825071E+01  0.17896913937E+02  0.25241779718E+02  0.51100000000E-03 0.  1.
         12    1    3    3    0    0 -0.13098484883E+02  0.26145983491E+01  0.13247415850E+02  0.18812242223E+02  0.00000000000E+00 0. -1.
</event>
<event>
 7    1  0.2991278E-011  0.5052886E+02  0.7816164E-02  0.1300439E+00
        -11   -1    0    0    0    0  0.00000000000E+00  0.00000000000E+00  0.45593999997E+02  0.45594000000E+02  0.51100000000E-03 0.  1.
         11   -1    0    0    0    0 -0.00000000000E+00 -0.00000000000E+00 -0.45593999997E+02  0.45594000000E+02  0.51100000000E-03 0. -1.
    9900012    2    1    2    0    0  0.33382549419E+01  0.57516662182E+01  0.40111591246E+02  0.50528863725E+02  0.30000011778E+02 0.  0.
         12    1    1    2    0    0 -0.33382549419E+01 -0.57516662182E+01 -0.40111591246E+02  0.40659136275E+02  0.00000000000E+00 0. -1.
         11    1    3    3    0    0 -0.97568285807E+00  0.11392195961E+02  0.14761898197E+02  0.18672110874E+02  0.51100000000E-03 0.  1.
        -11    1    3    3    0    0 -0.18813593387E+01 -0.10802810247E+02  0.17151265303E+02  0.20356967454E+02  0.51100000000E-03 0. -1.
         12    1    3    3    0    0  0.61952971387E+01  0.51622805041E+01  0.81984277466E+01  0.11499785396E+02  0.00000000000E+00 0. -1.
</event>
<event>
 7    1  0.2991278E-011  0.5052887E+02  0.7816164E-02  0.1300439E+00
        -11   -1    0    0    0    0  0.00000000000E+00  0.00000000000E+00  0.45593999997E+02  0.45594000000E+02  0.51100000000E-03 0.  1.
         11   -1    0    0    0    0 -0.00000000000E+00 -0.00000000000E+00 -0.45593999997E+02  0.45594000000E+02  0.51100000000E-03 0. -1.
    9900012    2    1    2    0    0 -0.76053840038E+01  0.31563158127E+02  0.24476317814E+02  0.50528868793E+02  0.30000027182E+02 0.  0.
         12    1    1    2    0    0  0.76053840038E+01 -0.31563158127E+02 -0.24476317814E+02  0.40659131207E+02  0.00000000000E+00 0. -1.
         11    1    3    3    0    0 -0.13082920037E+02  0.21226369588E+02  0.19477467137E+02  0.31640058294E+02  0.51100000000E-03 0. -1.
        -11    1    3    3    0    0  0.97826086948E+01  0.86300935074E+01  0.15970546879E+01  0.13142622674E+02  0.51100000000E-03 0.  1.
        -12    1    3    3    0    0 -0.43050726619E+01  0.17066950325E+01  0.34017959889E+01  0.57461878240E+01  0.00000000000E+00 0.  1.
</event>
<event>
 7    1  0.2991278E-011  0.5052887E+02  0.7816164E-02  0.1300439E+00
        -11   -1    0    0    0    0  0.00000000000E+00  0.00000000000E+00  0.45593999997E+02  0.45594000000E+02  0.51100000000E-03 0.  1.
         11   -1    0    0    0    0 -0.00000000000E+00 -0.00000000000E+00 -0.45593999997E+02  0.45594000000E+02  0.51100000000E-03 0. -1.
    9900012    2    1    2    0    0 -0.29802066192E+01 -0.49574705807E+01  0.40245577430E+02  0.50528872505E+02  0.30000038465E+02 0.  0.
         12    1    1    2    0    0  0.29802066192E+01  0.49574705807E+01 -0.40245577430E+02  0.40659127495E+02  0.00000000000E+00 0. -1.
         11    1    3    3    0    0 -0.10836055664E+01 -0.64513527231E+01 -0.23192087379E+01  0.69406687295E+01  0.51100000000E-03 0. -1.
        -11    1    3    3    0    0 -0.51015500300E+01  0.14781023755E+01  0.16666671548E+02  0.17492528122E+02  0.51100000000E-03 0.  1.
         12    1    3    3    0    0  0.32049489773E+01  0.15779766994E-01  0.25898114619E+02  0.26095675653E+02  0.00000000000E+00 0. -1.
</event>
<event>
 7    1  0.2991278E-011  0.5052885E+02  0.7816164E-02  0.1300439E+00
        -11   -1    0    0    0    0  0.00000000000E+00  0.00000000000E+00  0.45593999997E+02  0.45594000000E+02  0.51100000000E-03 0.  1.
         11   -1    0    0    0    0 -0.00000000000E+00 -0.00000000000E+00 -0.45593999997E+02  0.45594000000E+02  0.51100000000E-03 0. -1.
    9900012    2    1    2    0    0 -0.26529331347E+01  0.29562677162E+02  0.27788063076E+02  0.50528851156E+02  0.29999973574E+02 0.  0.
         12    1    1    2    0    0  0.26529331347E+01 -0.29562677162E+02 -0.27788063076E+02  0.40659148844E+02  0.00000000000E+00 0. -1.
         11    1    3    3    0    0  0.28057469921E+01 -0.37285131682E+01  0.39720532711E+00  0.46831398615E+01  0.51100000000E-03 0. -1.
        -11    1    3    3    0    0  0.22407650189E-01  0.29656812418E+02  0.19149680072E+02  0.35302085944E+02  0.51100000000E-03 0.  1.
        -12    1    3    3    0    0 -0.54810877771E+01  0.36343779129E+01  0.82411776770E+01  0.10543625351E+02  0.00000000000E+00 0.  1.
</event>
<event>
 7    1  0.2991278E-011  0.5052891E+02  0.7816164E-02  0.1300439E+00
        -11   -1    0    0    0    0  0.00000000000E+00  0.00000000000E+00  0.45593999997E+02  0.45594000000E+02  0.51100000000E-03 0. -1.
         11   -1    0    0    0    0 -0.00000000000E+00 -0.00000000000E+00 -0.45593999997E+02  0.45594000000E+02  0.51100000000E-03 0.  1.
    9900012    2    1    2    0    0  0.33430117960E+02 -0.20991796035E+02 -0.97433594292E+01  0.50528913186E+02  0.30000162120E+02 0.  0.
         12    1    1    2    0    0 -0.33430117960E+02  0.20991796035E+02  0.97433594292E+01  0.40659086814E+02  0.00000000000E+00 0. -1.
         11    1    3    3    0    0  0.26939792895E+01 -0.12857486160E+02  0.11878387062E+01  0.13190278080E+02  0.51100000000E-03 0. -1.
        -11    1    3    3    0    0  0.23507047979E+02  0.13984262671E+01 -0.90503665817E+01  0.25227882120E+02  0.51100000000E-03 0.  1.
        -12    1    3    3    0    0  0.72290906916E+01 -0.95327361416E+01 -0.18808315538E+01  0.12110752987E+02  0.00000000000E+00 0.  1.
</event>
<event>
 7    1  0.2991278E-011  0.5052887E+02  0.7816164E-02  0.1300439E+00
        -11   -1    0    0    0    0  0.00000000000E+00  0.00000000000E+00  0.45593999997E+02  0.45594000000E+02  0.51100000000E-03 0.  1.
         11   -1    0    0    0    0 -0.00000000000E+00 -0.00000000000E+00 -0.45593999997E+02  0.45594000000E+02  0.51100000000E-03 0. -1.
    9900012    2    1    2    0    0 -0.30953471022E+02 -0.26189156191E+02 -0.30291705503E+01  0.50528866407E+02  0.30000019931E+02 0.  0.
         12    1    1    2    0    0  0.30953471022E+02  0.26189156191E+02  0.30291705503E+01  0.40659133593E+02  0.00000000000E+00 0. -1.
         11    1    3    3    0    0 -0.10097085421E+02 -0.10094098411E+02 -0.11288597467E+02  0.18200944749E+02  0.51100000000E-03 0. -1.
        -11    1    3    3    0    0 -0.23700199279E+02 -0.15585744545E+02  0.75315239019E+01  0.29348572903E+02  0.51100000000E-03 0.  1.
         12    1    3    3    0    0  0.28438136777E+01 -0.50931323528E+00  0.72790301512E+00  0.29793487551E+01  0.00000000000E+00 0. -1.
</event>
<event>
 7    1  0.2991278E-011  0.5052886E+02  0.7816164E-02  0.1300439E+00
        -11   -1    0    0    0    0  0.00000000000E+00  0.00000000000E+00  0.45593999997E+02  0.45594000000E+02  0.51100000000E-03 0.  1.
         11   -1    0    0    0    0 -0.00000000000E+00 -0.00000000000E+00 -0.45593999997E+02  0.45594000000E+02  0.51100000000E-03 0. -1.
    9900012    2    1    2    0    0 -0.18287921087E+02 -0.35938665409E+02 -0.52086308783E+01  0.50528861240E+02  0.30000004226E+02 0.  0.
         12    1    1    2    0    0  0.18287921087E+02  0.35938665409E+02  0.52086308783E+01  0.40659138760E+02  0.00000000000E+00 0. -1.
         11    1    3    3    0    0 -0.83984717010E+01 -0.18073592414E+02  0.11884013617E+02  0.23203854197E+02  0.51100000000E-03 0. -1.
        -11    1    3    3    0    0 -0.24314923374E+01 -0.75315137862E+01 -0.99580472170E+01  0.12720006271E+02  0.51100000000E-03 0.  1.
        -12    1    3    3    0    0 -0.74579570486E+01 -0.10333559208E+02 -0.71345972782E+01  0.14605000773E+02  0.00000000000E+00 0.  1.
</event>
<event>
 7    1  0.2991278E-011  0.5052886E+02  0.7816164E-02  0.1300439E+00
        -11   -1    0    0    0    0  0.00000000000E+00  0.00000000000E+00  0.45593999997E+02  0.45594000000E+02  0.51100000000E-03 0.  1.
         11   -1    0    0    0    0 -0.00000000000E+00 -0.00000000000E+00 -0.45593999997E+02  0.45594000000E+02  0.51100000000E-03 0. -1.
    9900012    2    1    2    0    0  0.34682098658E+02  0.10025691834E+02  0.18703021970E+02  0.50528862099E+02  0.30000006836E+02 0.  0.
         12    1    1    2    0    0 -0.34682098658E+02 -0.10025691834E+02 -0.18703021970E+02  0.40659137901E+02  0.00000000000E+00 0. -1.
         11    1    3    3    0    0  0.12867116276E+02  0.14476468446E+01 -0.49214463602E+01  0.13852039460E+02  0.51100000000E-03 0. -1.
        -11    1    3    3    0    0  0.59643803273E+01  0.77888505461E+01  0.16685817598E+02  0.19356046463E+02  0.51100000000E-03 0.  1.
        -12    1    3    3    0    0  0.15850602054E+02  0.78919444298E+00  0.69386507319E+01  0.17320776176E+02  0.00000000000E+00 0.  1.
</event>
<event>
 7    1  0.3053323E-011  0.5052886E+02  0.7816164E-02  0.1300439E+00
        -11   -1    0    0    0    0  0.00000000000E+00  0.00000000000E+00  0.45593999997E+02  0.45594000000E+02  0.51100000000E-03 0. -1.
         11   -1    0    0    0    0 -0.00000000000E+00 -0.00000000000E+00 -0.45593999997E+02  0.45594000000E+02  0.51100000000E-03 0.  1.
    9900012    2    1    2    0    0 -0.25672052022E+02 -0.15563896036E+02 -0.27420368520E+02  0.50528859273E+02  0.29999998247E+02 0.  0.
         12    1    1    2    0    0  0.25672052022E+02  0.15563896036E+02  0.27420368520E+02  0.40659140727E+02  0.00000000000E+00 0. -1.
         11    1    3    3    0    0 -0.70210861521E+00 -0.69931627154E+01  0.18705515669E+01  0.72729804549E+01  0.51100000000E-03 0. -1.
        -11    1    3    3    0    0 -0.20291438043E+02 -0.11647517708E+02 -0.29500772471E+02  0.37652393061E+02  0.51100000000E-03 0.  1.
        -12    1    3    3    0    0 -0.46785053640E+01  0.30767843877E+01  0.20985238335E+00  0.56034857573E+01  0.00000000000E+00 0.  1.
</event>
<event>
 7    1  0.2991278E-011  0.5052895E+02  0.7816164E-02  0.1300438E+00
        -11   -1    0    0    0    0  0.00000000000E+00  0.00000000000E+00  0.45593999997E+02  0.45594000000E+02  0.51100000000E-03 0. -1.
         11   -1    0    0    0    0 -0.00000000000E+00 -0.00000000000E+00 -0.45593999997E+02  0.45594000000E+02  0.51100000000E-03 0.  1.
    9900012    2    1    2    0    0  0.14883890019E+02  0.37060380500E+02  0.76260242882E+01  0.50528951421E+02  0.30000278337E+02 0.  0.
         12    1    1    2    0    0 -0.14883890019E+02 -0.37060380500E+02 -0.76260242882E+01  0.40659048579E+02  0.00000000000E+00 0. -1.
         11    1    3    3    0    0 -0.35656937452E+01 -0.17687199450E+01  0.49288543684E+01  0.63353096037E+01  0.51100000000E-03 0. -1.
        -11    1    3    3    0    0  0.12271360174E+02  0.31580784141E+02  0.53642031888E+01  0.34303161423E+02  0.51100000000E-03 0.  1.
         12    1    3    3    0    0  0.61782235900E+01  0.72483163042E+01 -0.26670332690E+01  0.98904803944E+01  0.00000000000E+00 0. -1.
</event>
<event>
 7    1  0.2991278E-011  0.5052886E+02  0.7816164E-02  0.1300439E+00
        -11   -1    0    0    0    0  0.00000000000E+00  0.00000000000E+00  0.45593999997E+02  0.45594000000E+02  0.51100000000E-03 0.  1.
         11   -1    0    0    0    0 -0.00000000000E+00 -0.00000000000E+00 -0.45593999997E+02  0.45594000000E+02  0.51100000000E-03 0. -1.
    9900012    2    1    2    0    0 -0.22282828963E+02  0.23765710156E+02  0.24327603753E+02  0.50528858959E+02  0.29999997292E+02 0.  0.
         12    1    1    2    0    0  0.22282828963E+02 -0.23765710156E+02 -0.24327603753E+02  0.40659141041E+02  0.00000000000E+00 0. -1.
         11    1    3    3    0    0 -0.10506728491E+01 -0.20070625951E+00 -0.59208490677E+01  0.60166976310E+01  0.51100000000E-03 0. -1.
        -11    1    3    3    0    0 -0.15610720284E+02  0.14236076438E+02  0.22487054065E+02  0.30854951967E+02  0.51100000000E-03 0.  1.
        -12    1    3    3    0    0 -0.56214358301E+01  0.97303399782E+01  0.77613987553E+01  0.13657209361E+02  0.00000000000E+00 0.  1.
</event>
<event>
 7    1  0.2991278E-011  0.5052889E+02  0.7816164E-02  0.1300439E+00
        -11   -1    0    0    0    0  0.00000000000E+00  0.00000000000E+00  0.45593999997E+02  0.45594000000E+02  0.51100000000E-03 0.  1.
         11   -1    0    0    0    0 -0.00000000000E+00 -0.00000000000E+00 -0.45593999997E+02  0.45594000000E+02  0.51100000000E-03 0. -1.
    9900012    2    1    2    0    0  0.49455129552E+01  0.22798067376E+02  0.33300955606E+02  0.50528885170E+02  0.30000076962E+02 0.  0.
         12    1    1    2    0    0 -0.49455129552E+01 -0.22798067376E+02 -0.33300955606E+02  0.40659114830E+02  0.00000000000E+00 0. -1.
         11    1    3    3    0    0  0.49198884671E+01 -0.76021694166E+00  0.26037157219E+01  0.56180573287E+01  0.51100000000E-03 0. -1.
        -11    1    3    3    0    0  0.38351125434E+00  0.16120143796E+02  0.33319279391E+02  0.37015949215E+02  0.51100000000E-03 0.  1.
        -12    1    3    3    0    0 -0.35788676625E+00  0.74381405214E+01 -0.26220395062E+01  0.78948786264E+01  0.00000000000E+00 0.  1.
</event>
<event>
 7    1  0.2991278E-011  0.5052885E+02  0.7816164E-02  0.1300439E+00
        -11   -1    0    0    0    0  0.00000000000E+00  0.00000000000E+00  0.45593999997E+02  0.45594000000E+02  0.51100000000E-03 0.  1.
         11   -1    0    0    0    0 -0.00000000000E+00 -0.00000000000E+00 -0.45593999997E+02  0.45594000000E+02  0.51100000000E-03 0. -1.
    9900012    2    1    2    0    0  0.53290851622E+01  0.27713483317E+02  0.29269950540E+02  0.50528852064E+02  0.29999976335E+02 0.  0.
         12    1    1    2    0    0 -0.53290851622E+01 -0.27713483317E+02 -0.29269950540E+02  0.40659147936E+02  0.00000000000E+00 0. -1.
         11    1    3    3    0    0 -0.43548753776E+00 -0.34893581298E+01  0.27567212029E+01  0.44681966838E+01  0.51100000000E-03 0. -1.
        -11    1    3    3    0    0 -0.38751867846E+01  0.22847656619E+02  0.23392359277E+02  0.32927723250E+02  0.51100000000E-03 0.  1.
        -12    1    3    3    0    0  0.96397594846E+01  0.83551848277E+01  0.31208700601E+01  0.13132932131E+02  0.00000000000E+00 0.  1.
</event>
<event>
 7    1  0.2991278E-011  0.5052886E+02  0.7816164E-02  0.1300439E+00
        -11   -1    0    0    0    0  0.00000000000E+00  0.00000000000E+00  0.45593999997E+02  0.45594000000E+02  0.51100000000E-03 0.  1.
         11   -1    0    0    0    0 -0.00000000000E+00 -0.00000000000E+00 -0.45593999997E+02  0.45594000000E+02  0.51100000000E-03 0. -1.
    9900012    2    1    2    0    0  0.22768030124E+02  0.11061958869E+02  0.31818475684E+02  0.50528861733E+02  0.30000005724E+02 0.  0.
         12    1    1    2    0    0 -0.22768030124E+02 -0.11061958869E+02 -0.31818475684E+02  0.40659138267E+02  0.00000000000E+00 0. -1.
         11    1    3    3    0    0  0.20941741351E+01  0.11366560232E+01  0.23903294449E+02  0.24021761758E+02  0.51100000000E-03 0. -1.
        -11    1    3    3    0    0  0.12841407014E+01 -0.20246182098E+01  0.15613751791E+01  0.28611167308E+01  0.51100000000E-03 0.  1.
         12    1    3    3    0    0  0.19389715288E+02  0.11949921055E+02  0.63538060567E+01  0.23645983244E+02  0.00000000000E+00 0. -1.
</event>
<event>
 7    1  0.2991278E-011  0.5052887E+02  0.7816164E-02  0.1300439E+00
        -11   -1    0    0    0    0  0.00000000000E+00  0.00000000000E+00  0.45593999997E+02  0.45594000000E+02  0.51100000000E-03 0. -1.
         11   -1    0    0    0    0 -0.00000000000E+00 -0.00000000000E+00 -0.45593999997E+02  0.45594000000E+02  0.51100000000E-03 0.  1.
    9900012    2    1    2    0    0 -0.34640873383E+02 -0.17811561303E+02 -0.11658619307E+02  0.50528865369E+02  0.30000016774E+02 0.  0.
         12    1    1    2    0    0  0.34640873383E+02  0.17811561303E+02  0.11658619307E+02  0.40659134631E+02  0.00000000000E+00 0. -1.
         11    1    3    3    0    0  0.79664537935E+00 -0.52724331401E+01  0.41686474698E+01  0.67683688630E+01  0.51100000000E-03 0. -1.
        -11    1    3    3    0    0 -0.87483502667E+01 -0.77644037124E+01 -0.11315942680E+02  0.16274831993E+02  0.51100000000E-03 0.  1.
         12    1    3    3    0    0 -0.26689168496E+02 -0.47747244505E+01 -0.45113240970E+01  0.27485664513E+02  0.00000000000E+00 0. -1.
</event>
<event>
 7    1  0.2991278E-011  0.5052885E+02  0.7816164E-02  0.1300439E+00
        -11   -1    0    0    0    0  0.00000000000E+00  0.00000000000E+00  0.45593999997E+02  0.45594000000E+02  0.51100000000E-03 0.  1.
         11   -1    0    0    0    0 -0.00000000000E+00 -0.00000000000E+00 -0.45593999997E+02  0.45594000000E+02  0.51100000000E-03 0. -1.
    9900012    2    1    2    0    0  0.46544628309E+01  0.40319709349E+02  0.24131760569E+01  0.50528850907E+02  0.29999972818E+02 0.  0.
         12    1    1    2    0    0 -0.46544628309E+01 -0.40319709349E+02 -0.24131760569E+01  0.40659149093E+02  0.00000000000E+00 0. -1.
         11    1    3    3    0    0 -0.10216172294E+01 -0.96461639526E+00  0.67012276025E+00  0.15566795843E+01  0.51100000000E-03 0. -1.
        -11    1    3    3    0    0  0.32608002771E+01  0.32917747387E+02 -0.98117507128E+01  0.34503352935E+02  0.51100000000E-03 0.  1.
        -12    1    3    3    0    0  0.24152797832E+01  0.83665783578E+01  0.11554804009E+02  0.14468818388E+02  0.00000000000E+00 0.  1.
</event>
<event>
 7    1  0.2991278E-011  0.5052886E+02  0.7816164E-02  0.1300439E+00
        -11   -1    0    0    0    0  0.00000000000E+00  0.00000000000E+00  0.45593999997E+02  0.45594000000E+02  0.51100000000E-03 0.  1.
         11   -1    0    0    0    0 -0.00000000000E+00 -0.00000000000E+00 -0.45593999997E+02  0.45594000000E+02  0.51100000000E-03 0. -1.
    9900012    2    1    2    0    0  0.97473993025E+01 -0.52485583725E+01  0.39122964745E+02  0.50528861684E+02  0.30000005574E+02 0.  0.
         12    1    1    2    0    0 -0.97473993025E+01  0.52485583725E+01 -0.39122964745E+02  0.40659138316E+02  0.00000000000E+00 0. -1.
         11    1    3    3    0    0  0.10336548736E+02 -0.16857819777E+01  0.58845334230E+01  0.12013069321E+02  0.51100000000E-03 0. -1.
        -11    1    3    3    0    0 -0.32019804143E+01 -0.10757132695E+02  0.24171145870E+02  0.26649819424E+02  0.51100000000E-03 0.  1.
         12    1    3    3    0    0  0.26128309811E+01  0.71943563002E+01  0.90672854528E+01  0.11865972939E+02  0.00000000000E+00 0. -1.
</event>
<event>
 7    1  0.2991278E-011  0.5052880E+02  0.7816164E-02  0.1300439E+00
        -11   -1    0    0    0    0  0.00000000000E+00  0.00000000000E+00  0.45593999997E+02  0.45594000000E+02  0.51100000000E-03 0. -1.
         11   -1    0    0    0    0 -0.00000000000E+00 -0.00000000000E+00 -0.45593999997E+02  0.45594000000E+02  0.51100000000E-03 0.  1.
    9900012    2    1    2    0    0  0.31247285977E+02 -0.18722360298E+01  0.25947491848E+02  0.50528800772E+02  0.29999820426E+02 0.  0.
         12    1    1    2    0    0 -0.31247285977E+02  0.18722360298E+01 -0.25947491848E+02  0.40659199228E+02  0.00000000000E+00 0. -1.
         11    1    3    3    0    0 -0.43586494896E+01  0.39020715102E+01  0.55518538423E+00  0.58764120444E+01  0.51100000000E-03 0. -1.
        -11    1    3    3    0    0  0.28471272999E+02 -0.32609843099E+01  0.16857629225E+02  0.33247963370E+02  0.51100000000E-03 0.  1.
         12    1    3    3    0    0  0.71346624667E+01 -0.25133232301E+01  0.85346772388E+01  0.11404425358E+02  0.00000000000E+00 0. -1.
</event>
<event>
 7    1  0.2991278E-011  0.5052883E+02  0.7816164E-02  0.1300439E+00
        -11   -1    0    0    0    0  0.00000000000E+00  0.00000000000E+00  0.45593999997E+02  0.45594000000E+02  0.51100000000E-03 0. -1.
         11   -1    0    0    0    0 -0.00000000000E+00 -0.00000000000E+00 -0.45593999997E+02  0.45594000000E+02  0.51100000000E-03 0.  1.
    9900012    2    1    2    0    0 -0.90401990559E+01 -0.35613470377E+02 -0.17410436724E+02  0.50528834021E+02  0.29999921489E+02 0.  0.
         12    1    1    2    0    0  0.90401990559E+01  0.35613470377E+02  0.17410436724E+02  0.40659165979E+02  0.00000000000E+00 0. -1.
         11    1    3    3    0    0 -0.88747370223E+01 -0.10374849238E+02  0.34128556402E+01  0.14072883067E+02  0.51100000000E-03 0. -1.
        -11    1    3    3    0    0  0.78574939872E+01 -0.12447550773E+02 -0.87577370205E+01  0.17128330041E+02  0.51100000000E-03 0.  1.
        -12    1    3    3    0    0 -0.80229560208E+01 -0.12791070365E+02 -0.12065555344E+02  0.19327620913E+02  0.00000000000E+00 0.  1.
</event>
<event>
 7    1  0.2991278E-011  0.5052885E+02  0.7816164E-02  0.1300439E+00
        -11   -1    0    0    0    0  0.00000000000E+00  0.00000000000E+00  0.45593999997E+02  0.45594000000E+02  0.51100000000E-03 0.  1.
         11   -1    0    0    0    0 -0.00000000000E+00 -0.00000000000E+00 -0.45593999997E+02  0.45594000000E+02  0.51100000000E-03 0. -1.
    9900012    2    1    2    0    0  0.36485077300E+01 -0.33979736945E+02  0.22027983632E+02  0.50528853497E+02  0.29999980688E+02 0.  0.
         12    1    1    2    0    0 -0.36485077300E+01  0.33979736945E+02 -0.22027983632E+02  0.40659146503E+02  0.00000000000E+00 0. -1.
         11    1    3    3    0    0  0.97187929017E+01 -0.29508541307E+02  0.15131387576E+02  0.34556733581E+02  0.51100000000E-03 0. -1.
        -11    1    3    3    0    0 -0.15768798606E+01  0.38124314775E+01 -0.26747909645E+00  0.41343353992E+01  0.51100000000E-03 0.  1.
        -12    1    3    3    0    0 -0.44934053112E+01 -0.82836271151E+01  0.71640751527E+01  0.11837784517E+02  0.00000000000E+00 0.  1.
</event>
<event>
 7    1  0.2991278E-011  0.5052885E+02  0.7816164E-02  0.1300439E+00
        -11   -1    0    0    0    0  0.00000000000E+00  0.00000000000E+00  0.45593999997E+02  0.45594000000E+02  0.51100000000E-03 0. -1.
         11   -1    0    0    0    0 -0.00000000000E+00 -0.00000000000E+00 -0.45593999997E+02  0.45594000000E+02  0.51100000000E-03 0.  1.
    9900012    2    1    2    0    0  0.73087987019E+01  0.16195595376E+02 -0.36571171192E+02  0.50528850840E+02  0.29999972613E+02 0.  0.
         12    1    1    2    0    0 -0.73087987019E+01 -0.16195595376E+02  0.36571171192E+02  0.40659149160E+02  0.00000000000E+00 0. -1.
         11    1    3    3    0    0 -0.10256575566E+02  0.33880255701E+01 -0.88359191984E+01  0.13955268824E+02  0.51100000000E-03 0. -1.
        -11    1    3    3    0    0  0.66527766862E+01  0.68194834397E+01 -0.19340842599E+02  0.21559985731E+02  0.51100000000E-03 0.  1.
         12    1    3    3    0    0  0.10912597582E+02  0.59880863666E+01 -0.83944093949E+01  0.15013596285E+02  0.00000000000E+00 0. -1.
</event>
<event>
 7    1  0.2991278E-011  0.5052886E+02  0.7816164E-02  0.1300439E+00
        -11   -1    0    0    0    0  0.00000000000E+00  0.00000000000E+00  0.45593999997E+02  0.45594000000E+02  0.51100000000E-03 0. -1.
         11   -1    0    0    0    0 -0.00000000000E+00 -0.00000000000E+00 -0.45593999997E+02  0.45594000000E+02  0.51100000000E-03 0.  1.
    9900012    2    1    2    0    0  0.13847981958E+02 -0.33636730698E+02 -0.18165058935E+02  0.50528860530E+02  0.30000002067E+02 0.  0.
         12    1    1    2    0    0 -0.13847981958E+02  0.33636730698E+02  0.18165058935E+02  0.40659139470E+02  0.00000000000E+00 0. -1.
         11    1    3    3    0    0  0.14048674367E+02 -0.65016604191E+01  0.74455292602E+00  0.15498103078E+02  0.51100000000E-03 0. -1.
        -11    1    3    3    0    0  0.25463712188E+01 -0.26088835828E+02 -0.18451505409E+02  0.32055723566E+02  0.51100000000E-03 0.  1.
        -12    1    3    3    0    0 -0.27470636281E+01 -0.10462344507E+01 -0.45810645245E+00  0.29750338863E+01  0.00000000000E+00 0.  1.
</event>
<event>
 7    1  0.2991278E-011  0.5052885E+02  0.7816164E-02  0.1300439E+00
        -11   -1    0    0    0    0  0.00000000000E+00  0.00000000000E+00  0.45593999997E+02  0.45594000000E+02  0.51100000000E-03 0. -1.
         11   -1    0    0    0    0 -0.00000000000E+00 -0.00000000000E+00 -0.45593999997E+02  0.45594000000E+02  0.51100000000E-03 0.  1.
    9900012    2    1    2    0    0  0.87036081092E+01  0.39193752661E+02 -0.64236938343E+01  0.50528845013E+02  0.29999954903E+02 0.  0.
         12    1    1    2    0    0 -0.87036081092E+01 -0.39193752661E+02  0.64236938343E+01  0.40659154987E+02  0.00000000000E+00 0. -1.
         11    1    3    3    0    0 -0.55973148841E+01 -0.77468492624E+00 -0.12883932259E+01  0.57956904690E+01  0.51100000000E-03 0. -1.
        -11    1    3    3    0    0  0.10102644366E+02  0.27015279051E+02  0.27917330686E+01  0.28977275565E+02  0.51100000000E-03 0.  1.
        -12    1    3    3    0    0  0.41982786270E+01  0.12953158536E+02 -0.79270336770E+01  0.15755878979E+02  0.00000000000E+00 0.  1.
</event>
<event>
 7    1  0.2991278E-011  0.5052882E+02  0.7816164E-02  0.1300439E+00
        -11   -1    0    0    0    0  0.00000000000E+00  0.00000000000E+00  0.45593999997E+02  0.45594000000E+02  0.51100000000E-03 0.  1.
         11   -1    0    0    0    0 -0.00000000000E+00 -0.00000000000E+00 -0.45593999997E+02  0.45594000000E+02  0.51100000000E-03 0. -1.
    9900012    2    1    2    0    0  0.27093997050E+02 -0.10049341744E+02  0.28602365941E+02  0.50528815514E+02  0.29999865237E+02 0.  0.
         12    1    1    2    0    0 -0.27093997050E+02  0.10049341744E+02 -0.28602365941E+02  0.40659184486E+02  0.00000000000E+00 0. -1.
         11    1    3    3    0    0  0.12889267674E+02 -0.76424465743E+01  0.29218188626E+02  0.32836606975E+02  0.51100000000E-03 0. -1.
        -11    1    3    3    0    0  0.14945352585E+02 -0.25663127245E+01  0.16967394276E+01  0.15258717175E+02  0.51100000000E-03 0.  1.
         12    1    3    3    0    0 -0.74062320937E+00  0.15941755479E+00 -0.23125621123E+01  0.24334913639E+01  0.00000000000E+00 0. -1.
</event>
<event>
 7    1  0.2991278E-011  0.5052885E+02  0.7816164E-02  0.1300439E+00
        -11   -1    0    0    0    0  0.00000000000E+00  0.00000000000E+00  0.45593999997E+02  0.45594000000E+02  0.51100000000E-03 0.  1.
         11   -1    0    0    0    0 -0.00000000000E+00 -0.00000000000E+00 -0.45593999997E+02  0.45594000000E+02  0.51100000000E-03 0. -1.
    9900012    2    1    2    0    0 -0.15596772865E+02  0.93190292518E+00  0.37537166511E+02  0.50528848059E+02  0.29999964161E+02 0.  0.
         12    1    1    2    0    0  0.15596772865E+02 -0.93190292518E+00 -0.37537166511E+02  0.40659151941E+02  0.00000000000E+00 0. -1.
         11    1    3    3    0    0 -0.37792570052E+01 -0.12592242350E+02  0.81882366292E+01  0.15488530281E+02  0.51100000000E-03 0. -1.
        -11    1    3    3    0    0 -0.12427998788E+02  0.13379006764E+02  0.29120920676E+02  0.34372678061E+02  0.51100000000E-03 0.  1.
        -12    1    3    3    0    0  0.61048292809E+00  0.14513851164E+00  0.22800920608E+00  0.66763971655E+00  0.00000000000E+00 0.  1.
</event>
<event>
 7    1  0.2991278E-011  0.5052886E+02  0.7816164E-02  0.1300439E+00
        -11   -1    0    0    0    0  0.00000000000E+00  0.00000000000E+00  0.45593999997E+02  0.45594000000E+02  0.51100000000E-03 0. -1.
         11   -1    0    0    0    0 -0.00000000000E+00 -0.00000000000E+00 -0.45593999997E+02  0.45594000000E+02  0.51100000000E-03 0.  1.
    9900012    2    1    2    0    0  0.27817794178E+02  0.24950690717E+02 -0.16024941758E+02  0.50528863284E+02  0.30000010437E+02 0.  0.
         12    1    1    2    0    0 -0.27817794178E+02 -0.24950690717E+02  0.16024941758E+02  0.40659136716E+02  0.00000000000E+00 0. -1.
         11    1    3    3    0    0  0.15863323932E+02  0.11872387953E+02 -0.14806898899E+01  0.19869350384E+02  0.51100000000E-03 0. -1.
        -11    1    3    3    0    0  0.66803102987E+01  0.16536644469E+02 -0.16248124053E+02  0.24126514284E+02  0.51100000000E-03 0.  1.
        -12    1    3    3    0    0  0.52741599470E+01 -0.34583417049E+01  0.17038721850E+01  0.65329986160E+01  0.00000000000E+00 0.  1.
</event>
<event>
 7    1  0.2991278E-011  0.5052886E+02  0.7816164E-02  0.1300439E+00
        -11   -1    0    0    0    0  0.00000000000E+00  0.00000000000E+00  0.45593999997E+02  0.45594000000E+02  0.51100000000E-03 0.  1.
         11   -1    0    0    0    0 -0.00000000000E+00 -0.00000000000E+00 -0.45593999997E+02  0.45594000000E+02  0.51100000000E-03 0. -1.
    9900012    2    1    2    0    0  0.22290453517E+02 -0.15678725596E+01  0.33968269458E+02  0.50528857457E+02  0.29999992727E+02 0.  0.
         12    1    1    2    0    0 -0.22290453517E+02  0.15678725596E+01 -0.33968269458E+02  0.40659142543E+02  0.00000000000E+00 0. -1.
         11    1    3    3    0    0 -0.42516007095E+01  0.31290494600E+01  0.93728150096E+01  0.10757170659E+02  0.51100000000E-03 0. -1.
        -11    1    3    3    0    0  0.23014542590E+02 -0.11654450769E+01  0.25844741417E+02  0.34626263039E+02  0.51100000000E-03 0.  1.
        -12    1    3    3    0    0  0.35275116362E+01 -0.35314769427E+01 -0.12492869685E+01  0.51454237600E+01  0.00000000000E+00 0.  1.
</event>
<event>
 7    1  0.2991278E-011  0.5052886E+02  0.7816164E-02  0.1300439E+00
        -11   -1    0    0    0    0  0.00000000000E+00  0.00000000000E+00  0.45593999997E+02  0.45594000000E+02  0.51100000000E-03 0.  1.
         11   -1    0    0    0    0 -0.00000000000E+00 -0.00000000000E+00 -0.45593999997E+02  0.45594000000E+02  0.51100000000E-03 0. -1.
    9900012    2    1    2    0    0 -0.54209302920E+01 -0.97388000890E+01  0.39101600982E+02  0.50528856972E+02  0.29999991252E+02 0.  0.
         12    1    1    2    0    0  0.54209302920E+01  0.97388000890E+01 -0.39101600982E+02  0.40659143028E+02  0.00000000000E+00 0. -1.
         11    1    3    3    0    0 -0.15497527005E+02 -0.34429205326E+01  0.14049892700E+02  0.21199682314E+02  0.51100000000E-03 0. -1.
        -11    1    3    3    0    0 -0.17211586996E+01 -0.18005811438E+01  0.57348519254E+01  0.62524400511E+01  0.51100000000E-03 0.  1.
         12    1    3    3    0    0  0.11797755413E+02 -0.44952984127E+01  0.19316856356E+02  0.23076734606E+02  0.00000000000E+00 0. -1.
</event>
<event>
 7    1  0.2991278E-011  0.5052886E+02  0.7816164E-02  0.1300439E+00
        -11   -1    0    0    0    0  0.00000000000E+00  0.00000000000E+00  0.45593999997E+02  0.45594000000E+02  0.51100000000E-03 0.  1.
         11   -1    0    0    0    0 -0.00000000000E+00 -0.00000000000E+00 -0.45593999997E+02  0.45594000000E+02  0.51100000000E-03 0. -1.
    9900012    2    1    2    0    0  0.30061476994E+02  0.16175414994E+02  0.22086854646E+02  0.50528860837E+02  0.30000003000E+02 0.  0.
         12    1    1    2    0    0 -0.30061476994E+02 -0.16175414994E+02 -0.22086854646E+02  0.40659139163E+02  0.00000000000E+00 0. -1.
         11    1    3    3    0    0  0.52444615742E+01 -0.20628924347E+01 -0.19793300702E+01  0.59730771122E+01  0.51100000000E-03 0. -1.
        -11    1    3    3    0    0  0.24462056908E+02  0.12458789092E+02  0.26609072697E+02  0.38231615240E+02  0.51100000000E-03 0.  1.
        -12    1    3    3    0    0  0.35495851228E+00  0.57795183368E+01 -0.25428879801E+01  0.63241684853E+01  0.00000000000E+00 0.  1.
</event>
<event>
 7    1  0.2991278E-011  0.5052883E+02  0.7816164E-02  0.1300439E+00
        -11   -1    0    0    0    0  0.00000000000E+00  0.00000000000E+00  0.45593999997E+02  0.45594000000E+02  0.51100000000E-03 0.  1.
         11   -1    0    0    0    0 -0.00000000000E+00 -0.00000000000E+00 -0.45593999997E+02  0.45594000000E+02  0.51100000000E-03 0. -1.
    9900012    2    1    2    0    0  0.13099366317E+01  0.14506977995E+02  0.37960507583E+02  0.50528825384E+02  0.29999895237E+02 0.  0.
         12    1    1    2    0    0 -0.13099366317E+01 -0.14506977995E+02 -0.37960507583E+02  0.40659174616E+02  0.00000000000E+00 0. -1.
         11    1    3    3    0    0  0.93209511915E+01  0.79255063246E+01  0.51899647304E+01  0.13290203752E+02  0.51100000000E-03 0. -1.
        -11    1    3    3    0    0  0.30404380753E+01  0.30542850778E+01  0.17717756997E+02  0.18234358620E+02  0.51100000000E-03 0.  1.
         12    1    3    3    0    0 -0.11051452635E+02  0.35271865928E+01  0.15052785856E+02  0.19004263012E+02  0.00000000000E+00 0. -1.
</event>
<event>
 7    1  0.2991278E-011  0.5052886E+02  0.7816164E-02  0.1300439E+00
        -11   -1    0    0    0    0  0.00000000000E+00  0.00000000000E+00  0.45593999997E+02  0.45594000000E+02  0.51100000000E-03 0.  1.
         11   -1    0    0    0    0 -0.00000000000E+00 -0.00000000000E+00 -0.45593999997E+02  0.45594000000E+02  0.51100000000E-03 0. -1.
    9900012    2    1    2    0    0  0.20576305889E+02  0.34890675415E+02 -0.35245067875E+01  0.50528859047E+02  0.29999997559E+02 0.  0.
         12    1    1    2    0    0 -0.20576305889E+02 -0.34890675415E+02  0.35245067875E+01  0.40659140953E+02  0.00000000000E+00 0. -1.
         11    1    3    3    0    0  0.12773199485E+02  0.19363537416E+02  0.63507507689E+01  0.24050639117E+02  0.51100000000E-03 0.  1.
        -11    1    3    3    0    0 -0.18553045991E+01  0.12996869376E+02 -0.99833763053E+01  0.16493288679E+02  0.51100000000E-03 0. -1.
         12    1    3    3    0    0  0.96584110039E+01  0.25302686227E+01  0.10811874894E+00  0.99849312510E+01  0.00000000000E+00 0. -1.
</event>
<event>
 7    1  0.2991278E-011  0.5052886E+02  0.7816164E-02  0.1300439E+00
        -11   -1    0    0    0    0  0.00000000000E+00  0.00000000000E+00  0.45593999997E+02  0.45594000000E+02  0.51100000000E-03 0. -1.
         11   -1    0    0    0    0 -0.00000000000E+00 -0.00000000000E+00 -0.45593999997E+02  0.45594000000E+02  0.51100000000E-03 0.  1.
    9900012    2    1    2    0    0 -0.13076345588E+02  0.38039538451E+02  0.59302779911E+01  0.50528862078E+02  0.30000006773E+02 0.  0.
         12    1    1    2    0    0  0.13076345588E+02 -0.38039538451E+02 -0.59302779911E+01  0.40659137922E+02  0.00000000000E+00 0. -1.
         11    1    3    3    0    0 -0.51533998797E+01  0.52155513090E+01 -0.32264723832E+01  0.80105948642E+01  0.51100000000E-03 0. -1.
        -11    1    3    3    0    0  0.14939844420E+00  0.21533167717E+02  0.16206470574E+02  0.26950868643E+02  0.51100000000E-03 0.  1.
        -12    1    3    3    0    0 -0.80723441528E+01  0.11290819424E+02 -0.70497202001E+01  0.15567398572E+02  0.00000000000E+00 0.  1.
</event>
<event>
 7    1  0.2991278E-011  0.5052886E+02  0.7816164E-02  0.1300439E+00
        -11   -1    0    0    0    0  0.00000000000E+00  0.00000000000E+00  0.45593999997E+02  0.45594000000E+02  0.51100000000E-03 0.  1.
         11   -1    0    0    0    0 -0.00000000000E+00 -0.00000000000E+00 -0.45593999997E+02  0.45594000000E+02  0.51100000000E-03 0. -1.
    9900012    2    1    2    0    0  0.12292982900E+02 -0.37164756100E+02 -0.10992230178E+02  0.50528860206E+02  0.30000001081E+02 0.  0.
         12    1    1    2    0    0 -0.12292982900E+02  0.37164756100E+02  0.10992230178E+02  0.40659139794E+02  0.00000000000E+00 0. -1.
         11    1    3    3    0    0  0.32093713265E+01 -0.37885851950E+00 -0.40177388388E+01  0.51561442694E+01  0.51100000000E-03 0. -1.
        -11    1    3    3    0    0  0.44914607274E+01 -0.17810711657E+02  0.87109573395E+01  0.20329177239E+02  0.51100000000E-03 0.  1.
        -12    1    3    3    0    0  0.45921508456E+01 -0.18975185924E+02 -0.15685448679E+02  0.25043538697E+02  0.00000000000E+00 0.  1.
</event>
<event>
 7    1  0.2991278E-011  0.5052886E+02  0.7816164E-02  0.1300439E+00
        -11   -1    0    0    0    0  0.00000000000E+00  0.00000000000E+00  0.45593999997E+02  0.45594000000E+02  0.51100000000E-03 0.  1.
         11   -1    0    0    0    0 -0.00000000000E+00 -0.00000000000E+00 -0.45593999997E+02  0.45594000000E+02  0.51100000000E-03 0. -1.
    9900012    2    1    2    0    0  0.38496992480E+02  0.12129860886E+02  0.49003374025E+01  0.50528864965E+02  0.30000015547E+02 0.  0.
         12    1    1    2    0    0 -0.38496992480E+02 -0.12129860886E+02 -0.49003374025E+01  0.40659135035E+02  0.00000000000E+00 0. -1.
         11    1    3    3    0    0  0.17105849377E+02 -0.13123793388E+01  0.75817757347E+01  0.18756752011E+02  0.51100000000E-03 0. -1.
        -11    1    3    3    0    0  0.97257015193E+01  0.15203753316E+02  0.36037812776E+01  0.18404635957E+02  0.51100000000E-03 0.  1.
        -12    1    3    3    0    0  0.11665441584E+02 -0.17615130918E+01 -0.62852196099E+01  0.13367476997E+02  0.00000000000E+00 0.  1.
</event>
<event>
 7    1  0.2991278E-011  0.5052888E+02  0.7816164E-02  0.1300439E+00
        -11   -1    0    0    0    0  0.00000000000E+00  0.00000000000E+00  0.45593999997E+02  0.45594000000E+02  0.51100000000E-03 0.  1.
         11   -1    0    0    0    0 -0.00000000000E+00 -0.00000000000E+00 -0.45593999997E+02  0.45594000000E+02  0.51100000000E-03 0. -1.
    9900012    2    1    2    0    0  0.11888377259E+02 -0.14956850375E+02  0.35890434801E+02  0.50528878057E+02  0.30000055342E+02 0.  0.
         12    1    1    2    0    0 -0.11888377259E+02  0.14956850375E+02 -0.35890434801E+02  0.40659121943E+02  0.00000000000E+00 0. -1.
         11    1    3    3    0    0  0.13078561673E+02 -0.70672962708E+01  0.42359855505E+01  0.15457652663E+02  0.51100000000E-03 0. -1.
        -11    1    3    3    0    0  0.41918948218E+01 -0.85812992685E+01  0.22259049489E+02  0.24221394752E+02  0.51100000000E-03 0.  1.
         12    1    3    3    0    0 -0.53820792363E+01  0.69174516405E+00  0.93953997609E+01  0.10849830641E+02  0.00000000000E+00 0. -1.
</event>
<event>
 7    1  0.2991278E-011  0.5052886E+02  0.7816164E-02  0.1300439E+00
        -11   -1    0    0    0    0  0.00000000000E+00  0.00000000000E+00  0.45593999997E+02  0.45594000000E+02  0.51100000000E-03 0.  1.
         11   -1    0    0    0    0 -0.00000000000E+00 -0.00000000000E+00 -0.45593999997E+02  0.45594000000E+02  0.51100000000E-03 0. -1.
    9900012    2    1    2    0    0  0.36673299769E+02 -0.17042934183E+02  0.42158148478E+01  0.50528860605E+02  0.30000002294E+02 0.  0.
         12    1    1    2    0    0 -0.36673299769E+02  0.17042934183E+02 -0.42158148478E+01  0.40659139395E+02  0.00000000000E+00 0. -1.
         11    1    3    3    0    0  0.31722032005E+02 -0.15468327576E+02 -0.48212273441E+01  0.35620228886E+02  0.51100000000E-03 0.  1.
        -11    1    3    3    0    0 -0.22826456892E+01  0.37340983292E+00  0.66580321600E+01  0.70483543293E+01  0.51100000000E-03 0. -1.
        -12    1    3    3    0    0  0.72339134536E+01 -0.19480164402E+01  0.23790100318E+01  0.78602773893E+01  0.00000000000E+00 0.  1.
</event>
<event>
 7    1  0.2991278E-011  0.5052886E+02  0.7816164E-02  0.1300439E+00
        -11   -1    0    0    0    0  0.00000000000E+00  0.00000000000E+00  0.45593999997E+02  0.45594000000E+02  0.51100000000E-03 0.  1.
         11   -1    0    0    0    0 -0.00000000000E+00 -0.00000000000E+00 -0.45593999997E+02  0.45594000000E+02  0.51100000000E-03 0. -1.
    9900012    2    1    2    0    0  0.11256226147E+02  0.37683150792E+02  0.10317137609E+02  0.50528858234E+02  0.29999995089E+02 0.  0.
         12    1    1    2    0    0 -0.11256226147E+02 -0.37683150792E+02 -0.10317137609E+02  0.40659141766E+02  0.00000000000E+00 0. -1.
         11    1    3    3    0    0  0.70237384626E+01 -0.22966027805E+01  0.46250715465E+01  0.87177160652E+01  0.51100000000E-03 0. -1.
        -11    1    3    3    0    0  0.45093515600E+01  0.30683545983E+02  0.83889360724E+01  0.32127690459E+02  0.51100000000E-03 0.  1.
         12    1    3    3    0    0 -0.27686387574E+00  0.92962075901E+01 -0.26968700099E+01  0.96834517097E+01  0.00000000000E+00 0. -1.
</event>
<event>
 7    1  0.2991278E-011  0.5052885E+02  0.7816164E-02  0.1300439E+00
        -11   -1    0    0    0    0  0.00000000000E+00  0.00000000000E+00  0.45593999997E+02  0.45594000000E+02  0.51100000000E-03 0.  1.
         11   -1    0    0    0    0 -0.00000000000E+00 -0.00000000000E+00 -0.45593999997E+02  0.45594000000E+02  0.51100000000E-03 0. -1.
    9900012    2    1    2    0    0  0.22620376616E+02  0.29204911244E+02  0.16987011541E+02  0.50528845555E+02  0.29999956550E+02 0.  0.
         12    1    1    2    0    0 -0.22620376616E+02 -0.29204911244E+02 -0.16987011541E+02  0.40659154445E+02  0.00000000000E+00 0. -1.
         11    1    3    3    0    0 -0.55683197080E+01  0.53352777110E+01 -0.14408490329E+01  0.78452163018E+01  0.51100000000E-03 0. -1.
        -11    1    3    3    0    0  0.11421915117E+02  0.16764279910E+02  0.10055568338E+02  0.22641017661E+02  0.51100000000E-03 0.  1.
         12    1    3    3    0    0  0.16766781208E+02  0.71053536232E+01  0.83722922359E+01  0.20042611593E+02  0.00000000000E+00 0. -1.
</event>
<event>
 7    1  0.2991278E-011  0.5052887E+02  0.7816164E-02  0.1300439E+00
        -11   -1    0    0    0    0  0.00000000000E+00  0.00000000000E+00  0.45593999997E+02  0.45594000000E+02  0.51100000000E-03 0.  1.
         11   -1    0    0    0    0 -0.00000000000E+00 -0.00000000000E+00 -0.45593999997E+02  0.45594000000E+02  0.51100000000E-03 0. -1.
    9900012    2    1    2    0    0 -0.16162906158E+02  0.22477461301E+02  0.29777322121E+02  0.50528871692E+02  0.30000035995E+02 0.  0.
         12    1    1    2    0    0  0.16162906158E+02 -0.22477461301E+02 -0.29777322121E+02  0.40659128308E+02  0.00000000000E+00 0. -1.
         11    1    3    3    0    0 -0.78107548789E+01  0.21111569076E+02  0.12655469986E+02  0.25823771247E+02  0.51100000000E-03 0. -1.
        -11    1    3    3    0    0 -0.99474941833E+01 -0.46195497692E+01  0.75924153798E+01  0.13339327275E+02  0.51100000000E-03 0.  1.
         12    1    3    3    0    0  0.15953429037E+01  0.59854419948E+01  0.95294367559E+01  0.11365773169E+02  0.00000000000E+00 0. -1.
</event>
<event>
 7    1  0.2991278E-011  0.5052886E+02  0.7816164E-02  0.1300439E+00
        -11   -1    0    0    0    0  0.00000000000E+00  0.00000000000E+00  0.45593999997E+02  0.45594000000E+02  0.51100000000E-03 0.  1.
         11   -1    0    0    0    0 -0.00000000000E+00 -0.00000000000E+00 -0.45593999997E+02  0.45594000000E+02  0.51100000000E-03 0. -1.
    9900012    2    1    2    0    0  0.30211623476E+02 -0.15597350067E+02  0.22296773518E+02  0.50528860419E+02  0.30000001730E+02 0.  0.
         12    1    1    2    0    0 -0.30211623476E+02  0.15597350067E+02 -0.22296773518E+02  0.40659139581E+02  0.00000000000E+00 0. -1.
         11    1    3    3    0    0 -0.23666774112E+01 -0.12449254162E+00  0.32345725361E+01  0.40098778178E+01  0.51100000000E-03 0. -1.
        -11    1    3    3    0    0  0.29494890436E+02 -0.90265345725E+01  0.57019778263E+01  0.31367808971E+02  0.51100000000E-03 0.  1.
        -12    1    3    3    0    0  0.30834104507E+01 -0.64463229533E+01  0.13360223155E+02  0.15151173631E+02  0.00000000000E+00 0.  1.
</event>
<event>
 7    1  0.2991278E-011  0.5052886E+02  0.7816164E-02  0.1300439E+00
        -11   -1    0    0    0    0  0.00000000000E+00  0.00000000000E+00  0.45593999997E+02  0.45594000000E+02  0.51100000000E-03 0.  1.
         11   -1    0    0    0    0 -0.00000000000E+00 -0.00000000000E+00 -0.45593999997E+02  0.45594000000E+02  0.51100000000E-03 0. -1.
    9900012    2    1    2    0    0 -0.41371092816E+01 -0.12518935309E+02  0.38462009125E+02  0.50528861293E+02  0.30000004385E+02 0.  0.
         12    1    1    2    0    0  0.41371092816E+01  0.12518935309E+02 -0.38462009125E+02  0.40659138707E+02  0.00000000000E+00 0. -1.
         11    1    3    3    0    0  0.82814617870E+01 -0.51651045818E+01  0.19307144781E+02  0.21633926008E+02  0.51100000000E-03 0. -1.
        -11    1    3    3    0    0 -0.13565538085E+02 -0.25173942905E+01  0.19528045977E+02  0.23910367573E+02  0.51100000000E-03 0.  1.
         12    1    3    3    0    0  0.11469670162E+01 -0.48364364364E+01 -0.37318163263E+00  0.49845677115E+01  0.00000000000E+00 0. -1.
</event>
<event>
 7    1  0.2991278E-011  0.5052886E+02  0.7816164E-02  0.1300439E+00
        -11   -1    0    0    0    0  0.00000000000E+00  0.00000000000E+00  0.45593999997E+02  0.45594000000E+02  0.51100000000E-03 0.  1.
         11   -1    0    0    0    0 -0.00000000000E+00 -0.00000000000E+00 -0.45593999997E+02  0.45594000000E+02  0.51100000000E-03 0. -1.
    9900012    2    1    2    0    0 -0.23383414069E+02  0.98923180000E+01  0.31757256584E+02  0.50528863823E+02  0.30000012076E+02 0.  0.
         12    1    1    2    0    0  0.23383414069E+02 -0.98923180000E+01 -0.31757256584E+02  0.40659136177E+02  0.00000000000E+00 0. -1.
         11    1    3    3    0    0 -0.44342601967E+01  0.31064338144E+01 -0.45431850642E+01  0.70677524945E+01  0.51100000000E-03 0. -1.
        -11    1    3    3    0    0 -0.17778551079E+02  0.38956866158E+01  0.20749582895E+02  0.27600696427E+02  0.51100000000E-03 0.  1.
         12    1    3    3    0    0 -0.11706027940E+01  0.28901975699E+01  0.15550858753E+02  0.15860414901E+02  0.00000000000E+00 0. -1.
</event>
<event>
 7    1  0.2991278E-011  0.5052886E+02  0.7816164E-02  0.1300439E+00
        -11   -1    0    0    0    0  0.00000000000E+00  0.00000000000E+00  0.45593999997E+02  0.45594000000E+02  0.51100000000E-03 0.  1.
         11   -1    0    0    0    0 -0.00000000000E+00 -0.00000000000E+00 -0.45593999997E+02  0.45594000000E+02  0.51100000000E-03 0. -1.
    9900012    2    1    2    0    0 -0.20079669661E+02 -0.34617598449E+02 -0.71829155423E+01  0.50528861645E+02  0.30000005457E+02 0.  0.
         12    1    1    2    0    0  0.20079669661E+02  0.34617598449E+02  0.71829155423E+01  0.40659138355E+02  0.00000000000E+00 0. -1.
         11    1    3    3    0    0  0.39426568749E+01 -0.21811123036E+01 -0.43631661500E+01  0.62720820489E+01  0.51100000000E-03 0. -1.
        -11    1    3    3    0    0 -0.19977713873E+02 -0.20270694631E+02  0.54810416730E+01  0.28983649365E+02  0.51100000000E-03 0.  1.
         12    1    3    3    0    0 -0.40446126627E+01 -0.12165791514E+02 -0.83007910652E+01  0.15273130232E+02  0.00000000000E+00 0. -1.
</event>
<event>
 7    1  0.2991278E-011  0.5052886E+02  0.7816164E-02  0.1300439E+00
        -11   -1    0    0    0    0  0.00000000000E+00  0.00000000000E+00  0.45593999997E+02  0.45594000000E+02  0.51100000000E-03 0.  1.
         11   -1    0    0    0    0 -0.00000000000E+00 -0.00000000000E+00 -0.45593999997E+02  0.45594000000E+02  0.51100000000E-03 0. -1.
    9900012    2    1    2    0    0 -0.65399235201E+01  0.15794928768E+01  0.40098631746E+02  0.50528860003E+02  0.30000000464E+02 0.  0.
         12    1    1    2    0    0  0.65399235201E+01 -0.15794928768E+01 -0.40098631746E+02  0.40659139997E+02  0.00000000000E+00 0. -1.
         11    1    3    3    0    0  0.44471765069E+01  0.68489659297E+01  0.41166764953E+01  0.91450937020E+01  0.51100000000E-03 0. -1.
        -11    1    3    3    0    0 -0.14508827526E+02 -0.74098293922E+01  0.29591737711E+02  0.33779913984E+02  0.51100000000E-03 0.  1.
        -12    1    3    3    0    0  0.35217274988E+01  0.21403563393E+01  0.63902175405E+01  0.76038523164E+01  0.00000000000E+00 0.  1.
</event>
<event>
 7    1  0.2991278E-011  0.5052871E+02  0.7816164E-02  0.1300439E+00
        -11   -1    0    0    0    0  0.00000000000E+00  0.00000000000E+00  0.45593999997E+02  0.45594000000E+02  0.51100000000E-03 0.  1.
         11   -1    0    0    0    0 -0.00000000000E+00 -0.00000000000E+00 -0.45593999997E+02  0.45594000000E+02  0.51100000000E-03 0. -1.
    9900012    2    1    2    0    0 -0.38588128640E+02  0.79013641836E+01 -0.10084755785E+02  0.50528714134E+02  0.29999557079E+02 0.  0.
         12    1    1    2    0    0  0.38588128640E+02 -0.79013641836E+01  0.10084755785E+02  0.40659285866E+02  0.00000000000E+00 0. -1.
         11    1    3    3    0    0 -0.12232073659E+02 -0.66780865276E+01 -0.12546808320E+02  0.18752142943E+02  0.51100000000E-03 0. -1.
        -11    1    3    3    0    0 -0.20869632106E+02  0.75550293006E+01 -0.99299487071E+00  0.22217246703E+02  0.51100000000E-03 0.  1.
         12    1    3    3    0    0 -0.54864228738E+01  0.70244214106E+01  0.34550474048E+01  0.95593244883E+01  0.00000000000E+00 0. -1.
</event>
<event>
 7    1  0.2991278E-011  0.5052886E+02  0.7816164E-02  0.1300439E+00
        -11   -1    0    0    0    0  0.00000000000E+00  0.00000000000E+00  0.45593999997E+02  0.45594000000E+02  0.51100000000E-03 0. -1.
         11   -1    0    0    0    0 -0.00000000000E+00 -0.00000000000E+00 -0.45593999997E+02  0.45594000000E+02  0.51100000000E-03 0.  1.
    9900012    2    1    2    0    0 -0.24135497441E+00 -0.39952097524E+02 -0.75456622901E+01  0.50528863657E+02  0.30000011572E+02 0.  0.
         12    1    1    2    0    0  0.24135497441E+00  0.39952097524E+02  0.75456622901E+01  0.40659136343E+02  0.00000000000E+00 0. -1.
         11    1    3    3    0    0 -0.16218816876E+01 -0.23699127016E+02 -0.15990705472E+02  0.28635324047E+02  0.51100000000E-03 0. -1.
        -11    1    3    3    0    0 -0.51286058117E+01 -0.63680650153E+01  0.20024645900E+01  0.84181182165E+01  0.51100000000E-03 0.  1.
         12    1    3    3    0    0  0.65091325249E+01 -0.98849054924E+01  0.64425785919E+01  0.13475421394E+02  0.00000000000E+00 0. -1.
</event>
<event>
 7    1  0.2991278E-011  0.5052887E+02  0.7816164E-02  0.1300439E+00
        -11   -1    0    0    0    0  0.00000000000E+00  0.00000000000E+00  0.45593999997E+02  0.45594000000E+02  0.51100000000E-03 0.  1.
         11   -1    0    0    0    0 -0.00000000000E+00 -0.00000000000E+00 -0.45593999997E+02  0.45594000000E+02  0.51100000000E-03 0. -1.
    9900012    2    1    2    0    0 -0.10253044091E+02  0.22711728695E+02  0.32128143986E+02  0.50528866101E+02  0.30000019000E+02 0.  0.
         12    1    1    2    0    0  0.10253044091E+02 -0.22711728695E+02 -0.32128143986E+02  0.40659133899E+02  0.00000000000E+00 0. -1.
         11    1    3    3    0    0 -0.77982052975E+01  0.61408502572E+01  0.69489255888E+01  0.12116501758E+02  0.51100000000E-03 0. -1.
        -11    1    3    3    0    0  0.12445293810E+01 -0.54091642147E+01  0.12093745903E+01  0.56807128112E+01  0.51100000000E-03 0.  1.
        -12    1    3    3    0    0 -0.36993681748E+01  0.21980042653E+02  0.23969843807E+02  0.32731651532E+02  0.00000000000E+00 0.  1.
</event>
<event>
 7    1  0.2991278E-011  0.5052886E+02  0.7816164E-02  0.1300439E+00
        -11   -1    0    0    0    0  0.00000000000E+00  0.00000000000E+00  0.45593999997E+02  0.45594000000E+02  0.51100000000E-03 0. -1.
         11   -1    0    0    0    0 -0.00000000000E+00 -0.00000000000E+00 -0.45593999997E+02  0.45594000000E+02  0.51100000000E-03 0.  1.
    9900012    2    1    2    0    0 -0.31998059349E+02 -0.13400808688E+02 -0.21206325586E+02  0.50528859325E+02  0.29999998403E+02 0.  0.
         12    1    1    2    0    0  0.31998059349E+02  0.13400808688E+02  0.21206325586E+02  0.40659140675E+02  0.00000000000E+00 0. -1.
         11    1    3    3    0    0 -0.64675835226E+01  0.66541093279E+00 -0.44623551601E+01  0.78857480411E+01  0.51100000000E-03 0. -1.
        -11    1    3    3    0    0 -0.32736527045E+01  0.29345351573E+01  0.53829071511E+01  0.69501070695E+01  0.51100000000E-03 0.  1.
        -12    1    3    3    0    0 -0.22256823122E+02 -0.17000754779E+02 -0.22126877577E+02  0.35693004214E+02  0.00000000000E+00 0.  1.
</event>
<event>
 7    1  0.2991278E-011  0.5052885E+02  0.7816164E-02  0.1300439E+00
        -11   -1    0    0    0    0  0.00000000000E+00  0.00000000000E+00  0.45593999997E+02  0.45594000000E+02  0.51100000000E-03 0.  1.
         11   -1    0    0    0    0 -0.00000000000E+00 -0.00000000000E+00 -0.45593999997E+02  0.45594000000E+02  0.51100000000E-03 0. -1.
    9900012    2    1    2    0    0  0.34362850808E+02 -0.11537093717E+02  0.18418914521E+02  0.50528850240E+02  0.29999970789E+02 0.  0.
         12    1    1    2    0    0 -0.34362850808E+02  0.11537093717E+02 -0.18418914521E+02  0.40659149760E+02  0.00000000000E+00 0. -1.
         11    1    3    3    0    0  0.14224287509E+01 -0.45718862012E+00 -0.37544151952E+01  0.40407868917E+01  0.51100000000E-03 0.  1.
        -11    1    3    3    0    0  0.29475832337E+02 -0.45126525978E+00  0.13969088675E+02  0.32621523124E+02  0.51100000000E-03 0. -1.
        -12    1    3    3    0    0  0.34645897200E+01 -0.10628639837E+02  0.82042410418E+01  0.13866540224E+02  0.00000000000E+00 0.  1.
</event>
<event>
 7    1  0.2991278E-011  0.5052892E+02  0.7816164E-02  0.1300439E+00
        -11   -1    0    0    0    0  0.00000000000E+00  0.00000000000E+00  0.45593999997E+02  0.45594000000E+02  0.51100000000E-03 0. -1.
         11   -1    0    0    0    0 -0.00000000000E+00 -0.00000000000E+00 -0.45593999997E+02  0.45594000000E+02  0.51100000000E-03 0.  1.
    9900012    2    1    2    0    0  0.22889099378E+02 -0.32367624363E+02 -0.90325393595E+01  0.50528920515E+02  0.30000184398E+02 0.  0.
         12    1    1    2    0    0 -0.22889099378E+02  0.32367624363E+02  0.90325393595E+01  0.40659079485E+02  0.00000000000E+00 0. -1.
         11    1    3    3    0    0  0.46054356537E+01  0.36477721877E+01 -0.75059127747E+01  0.95317892516E+01  0.51100000000E-03 0. -1.
        -11    1    3    3    0    0  0.16603124807E+02 -0.29031611929E+02  0.77902430875E+00  0.33453028617E+02  0.51100000000E-03 0.  1.
         12    1    3    3    0    0  0.16805389182E+01 -0.69837846219E+01 -0.23056508936E+01  0.75441026467E+01  0.00000000000E+00 0. -1.
</event>
<event>
 7    1  0.2991278E-011  0.5052885E+02  0.7816164E-02  0.1300439E+00
        -11   -1    0    0    0    0  0.00000000000E+00  0.00000000000E+00  0.45593999997E+02  0.45594000000E+02  0.51100000000E-03 0.  1.
         11   -1    0    0    0    0 -0.00000000000E+00 -0.00000000000E+00 -0.45593999997E+02  0.45594000000E+02  0.51100000000E-03 0. -1.
    9900012    2    1    2    0    0  0.58580736105E+01  0.50822193845E+01  0.39912658890E+02  0.50528851953E+02  0.29999975995E+02 0.  0.
         12    1    1    2    0    0 -0.58580736105E+01 -0.50822193845E+01 -0.39912658890E+02  0.40659148047E+02  0.00000000000E+00 0. -1.
         11    1    3    3    0    0 -0.44286106496E+01  0.10673760508E+02  0.15865055054E+02  0.19627575698E+02  0.51100000000E-03 0. -1.
        -11    1    3    3    0    0  0.87623635647E+01 -0.55373252231E+01  0.45096749690E+01  0.11303899967E+02  0.51100000000E-03 0.  1.
         12    1    3    3    0    0  0.15243206954E+01 -0.54215900828E-01  0.19537928867E+02  0.19597376288E+02  0.00000000000E+00 0. -1.
</event>
<event>
 7    1  0.2991278E-011  0.5052888E+02  0.7816164E-02  0.1300439E+00
        -11   -1    0    0    0    0  0.00000000000E+00  0.00000000000E+00  0.45593999997E+02  0.45594000000E+02  0.51100000000E-03 0.  1.
         11   -1    0    0    0    0 -0.00000000000E+00 -0.00000000000E+00 -0.45593999997E+02  0.45594000000E+02  0.51100000000E-03 0. -1.
    9900012    2    1    2    0    0 -0.38611745881E+02  0.98970734783E+01 -0.80215203987E+01  0.50528883274E+02  0.30000071199E+02 0.  0.
         12    1    1    2    0    0  0.38611745881E+02 -0.98970734783E+01  0.80215203987E+01  0.40659116726E+02  0.00000000000E+00 0. -1.
         11    1    3    3    0    0 -0.65435061433E+01 -0.48014380675E+01  0.20823116604E+01  0.83789797872E+01  0.51100000000E-03 0. -1.
        -11    1    3    3    0    0 -0.35116891865E+02  0.13560625182E+02 -0.96755017471E+01  0.38867749921E+02  0.51100000000E-03 0.  1.
        -12    1    3    3    0    0  0.30486521273E+01  0.11378863641E+01 -0.42833031200E+00  0.32821535655E+01  0.00000000000E+00 0.  1.
</event>
<event>
 7    1  0.2991278E-011  0.5052886E+02  0.7816164E-02  0.1300439E+00
        -11   -1    0    0    0    0  0.00000000000E+00  0.00000000000E+00  0.45593999997E+02  0.45594000000E+02  0.51100000000E-03 0.  1.
         11   -1    0    0    0    0 -0.00000000000E+00 -0.00000000000E+00 -0.45593999997E+02  0.45594000000E+02  0.51100000000E-03 0. -1.
    9900012    2    1    2    0    0 -0.25299566811E+02  0.29894426636E+02  0.10927991159E+02  0.50528858156E+02  0.29999994851E+02 0.  0.
         12    1    1    2    0    0  0.25299566811E+02 -0.29894426636E+02 -0.10927991159E+02  0.40659141844E+02  0.00000000000E+00 0. -1.
         11    1    3    3    0    0  0.36215086851E+01  0.42066819530E+01 -0.40608573539E+01  0.68776493746E+01  0.51100000000E-03 0. -1.
        -11    1    3    3    0    0 -0.21927363249E+02  0.17957120014E+02  0.42047758917E+01  0.28652182444E+02  0.51100000000E-03 0.  1.
         12    1    3    3    0    0 -0.69937122474E+01  0.77306246692E+01  0.10784072621E+02  0.14999026338E+02  0.00000000000E+00 0. -1.
</event>
<event>
 7    1  0.2991278E-011  0.5052886E+02  0.7816164E-02  0.1300439E+00
        -11   -1    0    0    0    0  0.00000000000E+00  0.00000000000E+00  0.45593999997E+02  0.45594000000E+02  0.51100000000E-03 0. -1.
         11   -1    0    0    0    0 -0.00000000000E+00 -0.00000000000E+00 -0.45593999997E+02  0.45594000000E+02  0.51100000000E-03 0.  1.
    9900012    2    1    2    0    0 -0.19924280423E+02  0.61669179237E+01 -0.34902122073E+02  0.50528856474E+02  0.29999989739E+02 0.  0.
         12    1    1    2    0    0  0.19924280423E+02 -0.61669179237E+01  0.34902122073E+02  0.40659143526E+02  0.00000000000E+00 0. -1.
         11    1    3    3    0    0  0.23542804786E+01 -0.39876324305E+01  0.18477584468E+01  0.49857858469E+01  0.51100000000E-03 0. -1.
        -11    1    3    3    0    0 -0.19175523842E+02  0.11837313956E+02 -0.34938517041E+02  0.41575505885E+02  0.51100000000E-03 0.  1.
        -12    1    3    3    0    0 -0.31030370596E+01 -0.16827636015E+01 -0.18113634785E+01  0.39675647421E+01  0.00000000000E+00 0.  1.
</event>
<event>
 7    1  0.2991278E-011  0.5052887E+02  0.7816164E-02  0.1300439E+00
        -11   -1    0    0    0    0  0.00000000000E+00  0.00000000000E+00  0.45593999997E+02  0.45594000000E+02  0.51100000000E-03 0.  1.
         11   -1    0    0    0    0 -0.00000000000E+00 -0.00000000000E+00 -0.45593999997E+02  0.45594000000E+02  0.51100000000E-03 0. -1.
    9900012    2    1    2    0    0  0.18663262159E+02  0.92616708100E+01  0.34915169073E+02  0.50528869020E+02  0.30000027874E+02 0.  0.
         12    1    1    2    0    0 -0.18663262159E+02 -0.92616708100E+01 -0.34915169073E+02  0.40659130980E+02  0.00000000000E+00 0. -1.
         11    1    3    3    0    0  0.71642761035E+01  0.11595603158E+02  0.76372487149E+01  0.15624097826E+02  0.51100000000E-03 0. -1.
        -11    1    3    3    0    0 -0.54583731651E+00  0.27772419301E+00  0.21117158551E+02  0.21126037362E+02  0.51100000000E-03 0.  1.
         12    1    3    3    0    0  0.12044823372E+02 -0.26116565414E+01  0.61607618072E+01  0.13778733831E+02  0.00000000000E+00 0. -1.
</event>
<event>
 7    1  0.2991278E-011  0.5052884E+02  0.7816164E-02  0.1300439E+00
        -11   -1    0    0    0    0  0.00000000000E+00  0.00000000000E+00  0.45593999997E+02  0.45594000000E+02  0.51100000000E-03 0. -1.
         11   -1    0    0    0    0 -0.00000000000E+00 -0.00000000000E+00 -0.45593999997E+02  0.45594000000E+02  0.51100000000E-03 0.  1.
    9900012    2    1    2    0    0 -0.14963448918E+01 -0.34341845050E+02 -0.21715575871E+02  0.50528836151E+02  0.29999927964E+02 0.  0.
         12    1    1    2    0    0  0.14963448918E+01  0.34341845050E+02  0.21715575871E+02  0.40659163849E+02  0.00000000000E+00 0. -1.
         11    1    3    3    0    0  0.42729838668E+01 -0.97857702822E+01  0.16738391265E+01  0.10808396219E+02  0.51100000000E-03 0. -1.
        -11    1    3    3    0    0 -0.12177391139E+02 -0.10840863988E+02 -0.81020735324E+01  0.18205954596E+02  0.51100000000E-03 0.  1.
        -12    1    3    3    0    0  0.64080623803E+01 -0.13715210780E+02 -0.15287341465E+02  0.21514485336E+02  0.00000000000E+00 0.  1.
</event>
<event>
 7    1  0.2991278E-011  0.5052885E+02  0.7816164E-02  0.1300439E+00
        -11   -1    0    0    0    0  0.00000000000E+00  0.00000000000E+00  0.45593999997E+02  0.45594000000E+02  0.51100000000E-03 0.  1.
         11   -1    0    0    0    0 -0.00000000000E+00 -0.00000000000E+00 -0.45593999997E+02  0.45594000000E+02  0.51100000000E-03 0. -1.
    9900012    2    1    2    0    0  0.26637238195E+02 -0.26594157212E+02  0.15374494801E+02  0.50528846702E+02  0.29999960036E+02 0.  0.
         12    1    1    2    0    0 -0.26637238195E+02  0.26594157212E+02 -0.15374494801E+02  0.40659153298E+02  0.00000000000E+00 0. -1.
         11    1    3    3    0    0  0.17772760199E+02 -0.96307883131E+01 -0.56885315871E+01  0.20999582865E+02  0.51100000000E-03 0. -1.
        -11    1    3    3    0    0  0.67788900967E+01 -0.47871057668E+01  0.75323173788E+01  0.11207387649E+02  0.51100000000E-03 0.  1.
         12    1    3    3    0    0  0.20855878995E+01 -0.12176263132E+02  0.13530709009E+02  0.18321876188E+02  0.00000000000E+00 0. -1.
</event>
<event>
 7    1  0.2991278E-011  0.5052886E+02  0.7816164E-02  0.1300439E+00
        -11   -1    0    0    0    0  0.00000000000E+00  0.00000000000E+00  0.45593999997E+02  0.45594000000E+02  0.51100000000E-03 0.  1.
         11   -1    0    0    0    0 -0.00000000000E+00 -0.00000000000E+00 -0.45593999997E+02  0.45594000000E+02  0.51100000000E-03 0. -1.
    9900012    2    1    2    0    0  0.21074892489E+02  0.32980041626E+02  0.11015048402E+02  0.50528861662E+02  0.30000005508E+02 0.  0.
         12    1    1    2    0    0 -0.21074892489E+02 -0.32980041626E+02 -0.11015048402E+02  0.40659138338E+02  0.00000000000E+00 0. -1.
         11    1    3    3    0    0 -0.25981636591E+01  0.38876983623E+01 -0.68658672879E+00  0.47261035275E+01  0.51100000000E-03 0. -1.
        -11    1    3    3    0    0  0.17383545351E+02  0.45192263301E+01  0.22702813450E+00  0.17962811518E+02  0.51100000000E-03 0.  1.
        -12    1    3    3    0    0  0.62895107968E+01  0.24573116934E+02  0.11474606996E+02  0.27839946617E+02  0.00000000000E+00 0.  1.
</event>
<event>
 7    1  0.2991278E-011  0.5052885E+02  0.7816164E-02  0.1300439E+00
        -11   -1    0    0    0    0  0.00000000000E+00  0.00000000000E+00  0.45593999997E+02  0.45594000000E+02  0.51100000000E-03 0. -1.
         11   -1    0    0    0    0 -0.00000000000E+00 -0.00000000000E+00 -0.45593999997E+02  0.45594000000E+02  0.51100000000E-03 0.  1.
    9900012    2    1    2    0    0 -0.59531297759E+01  0.39655441805E+02  0.67210384995E+01  0.50528853706E+02  0.29999981324E+02 0.  0.
         12    1    1    2    0    0  0.59531297759E+01 -0.39655441805E+02 -0.67210384995E+01  0.40659146294E+02  0.00000000000E+00 0. -1.
         11    1    3    3    0    0  0.33691168949E+01  0.19616429270E+02 -0.31407144557E+01  0.20149921427E+02  0.51100000000E-03 0. -1.
        -11    1    3    3    0    0 -0.14945246167E+02  0.13925476899E+02  0.70373874735E+01  0.21605650015E+02  0.51100000000E-03 0.  1.
        -12    1    3    3    0    0  0.56229994964E+01  0.61135356359E+01  0.28243654816E+01  0.87732822639E+01  0.00000000000E+00 0.  1.
</event>
<event>
 7    1  0.2991278E-011  0.5052887E+02  0.7816164E-02  0.1300439E+00
        -11   -1    0    0    0    0  0.00000000000E+00  0.00000000000E+00  0.45593999997E+02  0.45594000000E+02  0.51100000000E-03 0.  1.
         11   -1    0    0    0    0 -0.00000000000E+00 -0.00000000000E+00 -0.45593999997E+02  0.45594000000E+02  0.51100000000E-03 0. -1.
    9900012    2    1    2    0    0 -0.30860432551E+02  0.23846000707E+02  0.11496379364E+02  0.50528870823E+02  0.30000033353E+02 0.  0.
         12    1    1    2    0    0  0.30860432551E+02 -0.23846000707E+02 -0.11496379364E+02  0.40659129177E+02  0.00000000000E+00 0. -1.
         11    1    3    3    0    0 -0.82629562724E+01  0.13499926328E+02 -0.79616435016E+01  0.17717568251E+02  0.51100000000E-03 0. -1.
        -11    1    3    3    0    0 -0.16083395448E+02  0.10118046314E+02  0.10428432147E+02  0.21674931779E+02  0.51100000000E-03 0.  1.
         12    1    3    3    0    0 -0.65140808307E+01  0.22802806500E+00  0.90295907194E+01  0.11136370792E+02  0.00000000000E+00 0. -1.
</event>
<event>
 7    1  0.2991278E-011  0.5052887E+02  0.7816164E-02  0.1300439E+00
        -11   -1    0    0    0    0  0.00000000000E+00  0.00000000000E+00  0.45593999997E+02  0.45594000000E+02  0.51100000000E-03 0. -1.
         11   -1    0    0    0    0 -0.00000000000E+00 -0.00000000000E+00 -0.45593999997E+02  0.45594000000E+02  0.51100000000E-03 0.  1.
    9900012    2    1    2    0    0 -0.13886809139E+02  0.14929067508E+02 -0.35177331845E+02  0.50528865720E+02  0.30000017842E+02 0.  0.
         12    1    1    2    0    0  0.13886809139E+02 -0.14929067508E+02  0.35177331845E+02  0.40659134280E+02  0.00000000000E+00 0. -1.
         11    1    3    3    0    0 -0.12943867026E+01  0.11242968064E+02 -0.68629944201E+01  0.13235575563E+02  0.51100000000E-03 0. -1.
        -11    1    3    3    0    0 -0.65995203041E+01 -0.50782253783E+01 -0.24718659265E+02  0.26083599394E+02  0.51100000000E-03 0.  1.
        -12    1    3    3    0    0 -0.59929021324E+01  0.87643248221E+01 -0.35956781595E+01  0.11209690762E+02  0.00000000000E+00 0.  1.
</event>
<event>
 7    1  0.2991278E-011  0.5052887E+02  0.7816164E-02  0.1300439E+00
        -11   -1    0    0    0    0  0.00000000000E+00  0.00000000000E+00  0.45593999997E+02  0.45594000000E+02  0.51100000000E-03 0. -1.
         11   -1    0    0    0    0 -0.00000000000E+00 -0.00000000000E+00 -0.45593999997E+02  0.45594000000E+02  0.51100000000E-03 0.  1.
    9900012    2    1    2    0    0  0.36219352350E+02  0.74183429956E+01 -0.16920142059E+02  0.50528874275E+02  0.30000043846E+02 0.  0.
         12    1    1    2    0    0 -0.36219352350E+02 -0.74183429956E+01  0.16920142059E+02  0.40659125725E+02  0.00000000000E+00 0. -1.
         11    1    3    3    0    0 -0.35715877306E+01  0.19091348146E+01 -0.29682520711E+01  0.50211109603E+01  0.51100000000E-03 0. -1.
        -11    1    3    3    0    0  0.21068015826E+02 -0.45481540904E+01 -0.10504110988E+02  0.23976725055E+02  0.51100000000E-03 0.  1.
         12    1    3    3    0    0  0.18722924254E+02  0.10057362271E+02 -0.34477790004E+01  0.21531038259E+02  0.00000000000E+00 0. -1.
</event>
<event>
 7    1  0.2991278E-011  0.5052885E+02  0.7816164E-02  0.1300439E+00
        -11   -1    0    0    0    0  0.00000000000E+00  0.00000000000E+00  0.45593999997E+02  0.45594000000E+02  0.51100000000E-03 0.  1.
         11   -1    0    0    0    0 -0.00000000000E+00 -0.00000000000E+00 -0.45593999997E+02  0.45594000000E+02  0.51100000000E-03 0. -1.
    9900012    2    1    2    0    0 -0.12649235279E+02 -0.35654504124E+02 -0.14896963429E+02  0.50528851744E+02  0.29999975361E+02 0.  0.
         12    1    1    2    0    0  0.12649235279E+02  0.35654504124E+02  0.14896963429E+02  0.40659148256E+02  0.00000000000E+00 0. -1.
         11    1    3    3    0    0 -0.44746541064E+01 -0.13812988236E+02 -0.13488317476E+02  0.19818069583E+02  0.51100000000E-03 0. -1.
        -11    1    3    3    0    0 -0.11612688185E+02 -0.42094202742E+01  0.17359470481E+01  0.12473462164E+02  0.51100000000E-03 0.  1.
        -12    1    3    3    0    0  0.34381070127E+01 -0.17632095614E+02 -0.31445930017E+01  0.18237319998E+02  0.00000000000E+00 0.  1.
</event>
<event>
 7    1  0.2991278E-011  0.5052887E+02  0.7816164E-02  0.1300439E+00
        -11   -1    0    0    0    0  0.00000000000E+00  0.00000000000E+00  0.45593999997E+02  0.45594000000E+02  0.51100000000E-03 0.  1.
         11   -1    0    0    0    0 -0.00000000000E+00 -0.00000000000E+00 -0.45593999997E+02  0.45594000000E+02  0.51100000000E-03 0. -1.
    9900012    2    1    2    0    0 -0.24497360835E+02  0.16270360709E+02  0.28077027050E+02  0.50528870970E+02  0.30000033802E+02 0.  0.
         12    1    1    2    0    0  0.24497360835E+02 -0.16270360709E+02 -0.28077027050E+02  0.40659129030E+02  0.00000000000E+00 0. -1.
         11    1    3    3    0    0 -0.25573971707E+02  0.72088911262E+01  0.23378778616E+02  0.35391572867E+02  0.51100000000E-03 0. -1.
        -11    1    3    3    0    0 -0.17138684283E+01  0.10474704317E+02  0.15986294471E+01  0.10733703549E+02  0.51100000000E-03 0.  1.
         12    1    3    3    0    0  0.27904793005E+01 -0.14132347336E+01  0.30996189868E+01  0.44035945547E+01  0.00000000000E+00 0. -1.
</event>
<event>
 7    1  0.2991278E-011  0.5052885E+02  0.7816164E-02  0.1300439E+00
        -11   -1    0    0    0    0  0.00000000000E+00  0.00000000000E+00  0.45593999997E+02  0.45594000000E+02  0.51100000000E-03 0.  1.
         11   -1    0    0    0    0 -0.00000000000E+00 -0.00000000000E+00 -0.45593999997E+02  0.45594000000E+02  0.51100000000E-03 0. -1.
    9900012    2    1    2    0    0  0.33590650312E+02 -0.21167478235E+02  0.87620178768E+01  0.50528845059E+02  0.29999955042E+02 0.  0.
         12    1    1    2    0    0 -0.33590650312E+02  0.21167478235E+02 -0.87620178768E+01  0.40659154941E+02  0.00000000000E+00 0. -1.
         11    1    3    3    0    0  0.16868157804E+01 -0.13251230327E+02  0.40480644900E+01  0.13958054271E+02  0.51100000000E-03 0. -1.
        -11    1    3    3    0    0  0.30759608256E+02 -0.90012740138E+01  0.48049903519E+00  0.32053195060E+02  0.51100000000E-03 0.  1.
         12    1    3    3    0    0  0.11442262749E+01  0.10850261056E+01  0.42334543516E+01  0.45175957284E+01  0.00000000000E+00 0. -1.
</event>
<event>
 7    1  0.2991278E-011  0.5052885E+02  0.7816164E-02  0.1300439E+00
        -11   -1    0    0    0    0  0.00000000000E+00  0.00000000000E+00  0.45593999997E+02  0.45594000000E+02  0.51100000000E-03 0.  1.
         11   -1    0    0    0    0 -0.00000000000E+00 -0.00000000000E+00 -0.45593999997E+02  0.45594000000E+02  0.51100000000E-03 0. -1.
    9900012    2    1    2    0    0  0.25280481018E+02  0.18266836583E+02  0.26084222510E+02  0.50528847240E+02  0.29999961671E+02 0.  0.
         12    1    1    2    0    0 -0.25280481018E+02 -0.18266836583E+02 -0.26084222510E+02  0.40659152760E+02  0.00000000000E+00 0. -1.
         11    1    3    3    0    0 -0.66931820193E+00 -0.50164830431E+01  0.19591327697E+01  0.54269043154E+01  0.51100000000E-03 0. -1.
        -11    1    3    3    0    0  0.85077320081E+01  0.83710121105E+01  0.17562225179E+02  0.21234102316E+02  0.51100000000E-03 0.  1.
         12    1    3    3    0    0  0.17442067211E+02  0.14912307516E+02  0.65628645605E+01  0.23867840608E+02  0.00000000000E+00 0. -1.
</event>
<event>
 7    1  0.2991278E-011  0.5052886E+02  0.7816164E-02  0.1300439E+00
        -11   -1    0    0    0    0  0.00000000000E+00  0.00000000000E+00  0.45593999997E+02  0.45594000000E+02  0.51100000000E-03 0. -1.
         11   -1    0    0    0    0 -0.00000000000E+00 -0.00000000000E+00 -0.45593999997E+02  0.45594000000E+02  0.51100000000E-03 0.  1.
    9900012    2    1    2    0    0 -0.14785130324E+02  0.37821581922E+02  0.20231731688E+01  0.50528863665E+02  0.30000011597E+02 0.  0.
         12    1    1    2    0    0  0.14785130324E+02 -0.37821581922E+02 -0.20231731688E+01  0.40659136335E+02  0.00000000000E+00 0. -1.
         11    1    3    3    0    0 -0.59223826033E+00  0.19740292079E+02  0.13683436552E+02  0.24026367051E+02  0.51100000000E-03 0. -1.
        -11    1    3    3    0    0 -0.13805970692E+02  0.18249858073E+02 -0.10330560022E+02  0.25107421553E+02  0.51100000000E-03 0.  1.
         12    1    3    3    0    0 -0.38692137220E+00 -0.16856823031E+00 -0.13297033614E+01  0.13950750610E+01  0.00000000000E+00 0. -1.
</event>
<event>
 7    1  0.2991278E-011  0.5052886E+02  0.7816164E-02  0.1300439E+00
        -11   -1    0    0    0    0  0.00000000000E+00  0.00000000000E+00  0.45593999997E+02  0.45594000000E+02  0.51100000000E-03 0. -1.
         11   -1    0    0    0    0 -0.00000000000E+00 -0.00000000000E+00 -0.45593999997E+02  0.45594000000E+02  0.51100000000E-03 0.  1.
    9900012    2    1    2    0    0 -0.15419918475E+02  0.27780297335E+02 -0.25370194205E+02  0.50528861300E+02  0.30000004407E+02 0.  0.
         12    1    1    2    0    0  0.15419918475E+02 -0.27780297335E+02  0.25370194205E+02  0.40659138700E+02  0.00000000000E+00 0. -1.
         11    1    3    3    0    0  0.25119619717E+01  0.48694409255E+01 -0.14380121202E+02  0.15388609226E+02  0.51100000000E-03 0. -1.
        -11    1    3    3    0    0 -0.20838081530E+02  0.19590877427E+02 -0.11217013744E+02  0.30722134004E+02  0.51100000000E-03 0.  1.
        -12    1    3    3    0    0  0.29062010825E+01  0.33199789828E+01  0.22694074026E+00  0.44181180697E+01  0.00000000000E+00 0.  1.
</event>
<event>
 7    1  0.2991278E-011  0.5052886E+02  0.7816164E-02  0.1300439E+00
        -11   -1    0    0    0    0  0.00000000000E+00  0.00000000000E+00  0.45593999997E+02  0.45594000000E+02  0.51100000000E-03 0.  1.
         11   -1    0    0    0    0 -0.00000000000E+00 -0.00000000000E+00 -0.45593999997E+02  0.45594000000E+02  0.51100000000E-03 0. -1.
    9900012    2    1    2    0    0 -0.60261700690E+01  0.31097915837E+02  0.25490598888E+02  0.50528859247E+02  0.29999998166E+02 0.  0.
         12    1    1    2    0    0  0.60261700690E+01 -0.31097915837E+02 -0.25490598888E+02  0.40659140753E+02  0.00000000000E+00 0. -1.
         11    1    3    3    0    0 -0.16428891411E+02  0.20318604643E+02  0.12062331957E+02  0.28779402707E+02  0.51100000000E-03 0. -1.
        -11    1    3    3    0    0  0.27081847758E+01  0.84818927790E+01  0.55034707104E+01  0.10467328218E+02  0.51100000000E-03 0.  1.
         12    1    3    3    0    0  0.76945365661E+01  0.22974184150E+01  0.79247962209E+01  0.11282128322E+02  0.00000000000E+00 0. -1.
</event>
<event>
 7    1  0.2991278E-011  0.5052887E+02  0.7816164E-02  0.1300439E+00
        -11   -1    0    0    0    0  0.00000000000E+00  0.00000000000E+00  0.45593999997E+02  0.45594000000E+02  0.51100000000E-03 0. -1.
         11   -1    0    0    0    0 -0.00000000000E+00 -0.00000000000E+00 -0.45593999997E+02  0.45594000000E+02  0.51100000000E-03 0.  1.
    9900012    2    1    2    0    0  0.20107005875E+02  0.22707788175E+02 -0.27078206161E+02  0.50528873374E+02  0.30000041108E+02 0.  0.
         12    1    1    2    0    0 -0.20107005875E+02 -0.22707788175E+02  0.27078206161E+02  0.40659126626E+02  0.00000000000E+00 0. -1.
         11    1    3    3    0    0 -0.42655994186E+01  0.16584245462E+01  0.24261049460E+01  0.51799320310E+01  0.51100000000E-03 0. -1.
        -11    1    3    3    0    0  0.19925751145E+02  0.10140168739E+02 -0.22087453769E+02  0.31427920628E+02  0.51100000000E-03 0.  1.
         12    1    3    3    0    0  0.44468541491E+01  0.10909194890E+02 -0.74168573377E+01  0.13921020715E+02  0.00000000000E+00 0. -1.
</event>
<event>
 7    1  0.2991278E-011  0.5052886E+02  0.7816164E-02  0.1300439E+00
        -11   -1    0    0    0    0  0.00000000000E+00  0.00000000000E+00  0.45593999997E+02  0.45594000000E+02  0.51100000000E-03 0. -1.
         11   -1    0    0    0    0 -0.00000000000E+00 -0.00000000000E+00 -0.45593999997E+02  0.45594000000E+02  0.51100000000E-03 0.  1.
    9900012    2    1    2    0    0  0.19209963536E+00 -0.35342892469E+02 -0.20099967049E+02  0.50528860490E+02  0.30000001945E+02 0.  0.
         12    1    1    2    0    0 -0.19209963536E+00  0.35342892469E+02  0.20099967049E+02  0.40659139510E+02  0.00000000000E+00 0. -1.
         11    1    3    3    0    0  0.89402558115E+00 -0.17538057313E+02  0.41320021761E+01  0.18040404050E+02  0.51100000000E-03 0.  1.
        -11    1    3    3    0    0  0.38579295771E+01 -0.11016930616E+02 -0.20295764078E+02  0.23413124964E+02  0.51100000000E-03 0. -1.
         12    1    3    3    0    0 -0.45598555229E+01 -0.67879045401E+01 -0.39362051470E+01  0.90753314758E+01  0.00000000000E+00 0. -1.
</event>
<event>
 7    1  0.2991278E-011  0.5052884E+02  0.7816164E-02  0.1300439E+00
        -11   -1    0    0    0    0  0.00000000000E+00  0.00000000000E+00  0.45593999997E+02  0.45594000000E+02  0.51100000000E-03 0.  1.
         11   -1    0    0    0    0 -0.00000000000E+00 -0.00000000000E+00 -0.45593999997E+02  0.45594000000E+02  0.51100000000E-03 0. -1.
    9900012    2    1    2    0    0 -0.32961764556E+02 -0.20010887749E+02  0.12893945720E+02  0.50528838826E+02  0.29999936096E+02 0.  0.
         12    1    1    2    0    0  0.32961764556E+02  0.20010887749E+02 -0.12893945720E+02  0.40659161174E+02  0.00000000000E+00 0. -1.
         11    1    3    3    0    0 -0.11665996434E+01 -0.83281581311E+01 -0.14935543489E+01  0.85410700406E+01  0.51100000000E-03 0. -1.
        -11    1    3    3    0    0 -0.29740784637E+02 -0.11825857252E+02  0.50205179624E+01  0.32397079675E+02  0.51100000000E-03 0.  1.
        -12    1    3    3    0    0 -0.20543802755E+01  0.14312763455E+00  0.93669821067E+01  0.95906891110E+01  0.00000000000E+00 0.  1.
</event>
<event>
 7    1  0.2991278E-011  0.5052886E+02  0.7816164E-02  0.1300439E+00
        -11   -1    0    0    0    0  0.00000000000E+00  0.00000000000E+00  0.45593999997E+02  0.45594000000E+02  0.51100000000E-03 0. -1.
         11   -1    0    0    0    0 -0.00000000000E+00 -0.00000000000E+00 -0.45593999997E+02  0.45594000000E+02  0.51100000000E-03 0.  1.
    9900012    2    1    2    0    0 -0.57800236925E+01 -0.21366556030E+02 -0.34106115217E+02  0.50528862212E+02  0.30000007181E+02 0.  0.
         12    1    1    2    0    0  0.57800236925E+01  0.21366556030E+02  0.34106115217E+02  0.40659137788E+02  0.00000000000E+00 0. -1.
         11    1    3    3    0    0  0.52348971729E+01 -0.16778995108E+01 -0.32495301086E+01  0.63858391279E+01  0.51100000000E-03 0. -1.
        -11    1    3    3    0    0 -0.13580930350E+02 -0.10888532321E+02 -0.30319087645E+02  0.34960676212E+02  0.51100000000E-03 0.  1.
        -12    1    3    3    0    0  0.25660094848E+01 -0.88001241973E+01 -0.53749746287E+00  0.91823468725E+01  0.00000000000E+00 0.  1.
</event>
<event>
 7    1  0.2991278E-011  0.5052889E+02  0.7816164E-02  0.1300439E+00
        -11   -1    0    0    0    0  0.00000000000E+00  0.00000000000E+00  0.45593999997E+02  0.45594000000E+02  0.51100000000E-03 0. -1.
         11   -1    0    0    0    0 -0.00000000000E+00 -0.00000000000E+00 -0.45593999997E+02  0.45594000000E+02  0.51100000000E-03 0.  1.
    9900012    2    1    2    0    0 -0.35846934766E+02  0.18076119632E+02 -0.64354121778E+01  0.50528888315E+02  0.30000086523E+02 0.  0.
         12    1    1    2    0    0  0.35846934766E+02 -0.18076119632E+02  0.64354121778E+01  0.40659111685E+02  0.00000000000E+00 0. -1.
         11    1    3    3    0    0 -0.10263818181E+02  0.14686497225E+02  0.33944896730E+01  0.18236274970E+02  0.51100000000E-03 0. -1.
        -11    1    3    3    0    0 -0.27329201752E+02  0.17463531124E+01 -0.64256373746E+01  0.28128701242E+02  0.51100000000E-03 0.  1.
        -12    1    3    3    0    0  0.17460851667E+01  0.16432692943E+01 -0.34042644761E+01  0.41639121036E+01  0.00000000000E+00 0.  1.
</event>
<event>
 7    1  0.2991278E-011  0.5052886E+02  0.7816164E-02  0.1300439E+00
        -11   -1    0    0    0    0  0.00000000000E+00  0.00000000000E+00  0.45593999997E+02  0.45594000000E+02  0.51100000000E-03 0.  1.
         11   -1    0    0    0    0 -0.00000000000E+00 -0.00000000000E+00 -0.45593999997E+02  0.45594000000E+02  0.51100000000E-03 0. -1.
    9900012    2    1    2    0    0 -0.45837330849E+01 -0.20204735056E+01  0.40349382690E+02  0.50528860736E+02  0.30000002694E+02 0.  0.
         12    1    1    2    0    0  0.45837330849E+01  0.20204735056E+01 -0.40349382690E+02  0.40659139264E+02  0.00000000000E+00 0. -1.
         11    1    3    3    0    0 -0.49608647991E+01 -0.12158537488E+02  0.85828729607E+01  0.15687763446E+02  0.51100000000E-03 0. -1.
        -11    1    3    3    0    0  0.46599630619E+01  0.20590794426E+01  0.97384833145E+01  0.10990592405E+02  0.51100000000E-03 0.  1.
         12    1    3    3    0    0 -0.42828313478E+01  0.80789845399E+01  0.22028026415E+02  0.23850504885E+02  0.00000000000E+00 0. -1.
</event>
<event>
 7    1  0.2991278E-011  0.5052885E+02  0.7816164E-02  0.1300439E+00
        -11   -1    0    0    0    0  0.00000000000E+00  0.00000000000E+00  0.45593999997E+02  0.45594000000E+02  0.51100000000E-03 0.  1.
         11   -1    0    0    0    0 -0.00000000000E+00 -0.00000000000E+00 -0.45593999997E+02  0.45594000000E+02  0.51100000000E-03 0. -1.
    9900012    2    1    2    0    0  0.29951715892E+02  0.20838892877E+02 -0.17938822289E+02  0.50528854826E+02  0.29999984728E+02 0.  0.
         12    1    1    2    0    0 -0.29951715892E+02 -0.20838892877E+02  0.17938822289E+02  0.40659145174E+02  0.00000000000E+00 0. -1.
         11    1    3    3    0    0  0.10335120706E+02 -0.55185731335E+01  0.86189989934E+00  0.11747861131E+02  0.51100000000E-03 0. -1.
        -11    1    3    3    0    0  0.18061033527E+02  0.21967570713E+02 -0.12804772238E+02  0.31188736547E+02  0.51100000000E-03 0.  1.
         12    1    3    3    0    0  0.15555616588E+01  0.43898952975E+01 -0.59959499503E+01  0.75922571481E+01  0.00000000000E+00 0. -1.
</event>
<event>
 7    1  0.2991278E-011  0.5052880E+02  0.7816164E-02  0.1300439E+00
        -11   -1    0    0    0    0  0.00000000000E+00  0.00000000000E+00  0.45593999997E+02  0.45594000000E+02  0.51100000000E-03 0. -1.
         11   -1    0    0    0    0 -0.00000000000E+00 -0.00000000000E+00 -0.45593999997E+02  0.45594000000E+02  0.51100000000E-03 0.  1.
    9900012    2    1    2    0    0  0.52947487964E+01  0.13321240130E+02 -0.38048404930E+02  0.50528795370E+02  0.29999804005E+02 0.  0.
         12    1    1    2    0    0 -0.52947487964E+01 -0.13321240130E+02  0.38048404930E+02  0.40659204630E+02  0.00000000000E+00 0. -1.
         11    1    3    3    0    0 -0.25000831598E+01 -0.40486914863E+01 -0.25640237580E+01  0.54052323401E+01  0.51100000000E-03 0. -1.
        -11    1    3    3    0    0  0.47587021542E+01  0.17089259911E+02 -0.11942015386E+02  0.21384568788E+02  0.51100000000E-03 0.  1.
        -12    1    3    3    0    0  0.30361298020E+01  0.28067170552E+00 -0.23542365787E+02  0.23738994242E+02  0.00000000000E+00 0.  1.
</event>
<event>
 7    1  0.2991278E-011  0.5052886E+02  0.7816164E-02  0.1300439E+00
        -11   -1    0    0    0    0  0.00000000000E+00  0.00000000000E+00  0.45593999997E+02  0.45594000000E+02  0.51100000000E-03 0.  1.
         11   -1    0    0    0    0 -0.00000000000E+00 -0.00000000000E+00 -0.45593999997E+02  0.45594000000E+02  0.51100000000E-03 0. -1.
    9900012    2    1    2    0    0 -0.30625221710E+02  0.14844686183E+02  0.22246271332E+02  0.50528862026E+02  0.30000006613E+02 0.  0.
         12    1    1    2    0    0  0.30625221710E+02 -0.14844686183E+02 -0.22246271332E+02  0.40659137974E+02  0.00000000000E+00 0. -1.
         11    1    3    3    0    0 -0.73545347679E+01 -0.12998899804E+01 -0.59293868574E+01  0.95360644072E+01  0.51100000000E-03 0. -1.
        -11    1    3    3    0    0 -0.20606677320E+02  0.16912948337E+02  0.27112653434E+02  0.38023400007E+02  0.51100000000E-03 0.  1.
        -12    1    3    3    0    0 -0.26640096220E+01 -0.76837217373E+00  0.10630047555E+01  0.29693976113E+01  0.00000000000E+00 0.  1.
</event>
<event>
 7    1  0.2991278E-011  0.5052887E+02  0.7816164E-02  0.1300439E+00
        -11   -1    0    0    0    0  0.00000000000E+00  0.00000000000E+00  0.45593999997E+02  0.45594000000E+02  0.51100000000E-03 0.  1.
         11   -1    0    0    0    0 -0.00000000000E+00 -0.00000000000E+00 -0.45593999997E+02  0.45594000000E+02  0.51100000000E-03 0. -1.
    9900012    2    1    2    0    0  0.76374702028E+01 -0.18087852766E+02  0.35604264975E+02  0.50528867530E+02  0.30000023344E+02 0.  0.
         12    1    1    2    0    0 -0.76374702028E+01  0.18087852766E+02 -0.35604264975E+02  0.40659132470E+02  0.00000000000E+00 0. -1.
         11    1    3    3    0    0  0.15578585359E+02 -0.36653404818E+01  0.26115787931E+02  0.30629420859E+02  0.51100000000E-03 0. -1.
        -11    1    3    3    0    0 -0.83028804701E+01 -0.11393090969E+02  0.61610509224E+01  0.15385021763E+02  0.51100000000E-03 0.  1.
         12    1    3    3    0    0  0.36176531394E+00 -0.30294213155E+01  0.33274261217E+01  0.45144249074E+01  0.00000000000E+00 0. -1.
</event>
<event>
 7    1  0.2991278E-011  0.5052886E+02  0.7816164E-02  0.1300439E+00
        -11   -1    0    0    0    0  0.00000000000E+00  0.00000000000E+00  0.45593999997E+02  0.45594000000E+02  0.51100000000E-03 0.  1.
         11   -1    0    0    0    0 -0.00000000000E+00 -0.00000000000E+00 -0.45593999997E+02  0.45594000000E+02  0.51100000000E-03 0. -1.
    9900012    2    1    2    0    0  0.89794258974E+01  0.91532776484E+01  0.38584360907E+02  0.50528862187E+02  0.30000007102E+02 0.  0.
         12    1    1    2    0    0 -0.89794258974E+01 -0.91532776484E+01 -0.38584360907E+02  0.40659137813E+02  0.00000000000E+00 0. -1.
         11    1    3    3    0    0  0.20174804674E+01  0.14185430935E+02  0.22005119478E+02  0.26258750194E+02  0.51100000000E-03 0.  1.
        -11    1    3    3    0    0 -0.12011492764E+01 -0.65272361397E+01  0.14140149878E+02  0.15620224391E+02  0.51100000000E-03 0. -1.
        -12    1    3    3    0    0  0.81630947065E+01  0.14950828530E+01  0.24390915514E+01  0.86498876016E+01  0.00000000000E+00 0.  1.
</event>
<event>
 7    1  0.2991278E-011  0.5052886E+02  0.7816164E-02  0.1300439E+00
        -11   -1    0    0    0    0  0.00000000000E+00  0.00000000000E+00  0.45593999997E+02  0.45594000000E+02  0.51100000000E-03 0.  1.
         11   -1    0    0    0    0 -0.00000000000E+00 -0.00000000000E+00 -0.45593999997E+02  0.45594000000E+02  0.51100000000E-03 0. -1.
    9900012    2    1    2    0    0 -0.82121819626E+00  0.75932788685E+01  0.39935365054E+02  0.50528860003E+02  0.30000000466E+02 0.  0.
         12    1    1    2    0    0  0.82121819626E+00 -0.75932788685E+01 -0.39935365054E+02  0.40659139997E+02  0.00000000000E+00 0. -1.
         11    1    3    3    0    0 -0.12671634253E+01 -0.64550076294E+01  0.23622787758E+02  0.24521601261E+02  0.51100000000E-03 0. -1.
        -11    1    3    3    0    0  0.55932385472E+01  0.11686891352E+02  0.15632033804E+02  0.20303404346E+02  0.51100000000E-03 0.  1.
         12    1    3    3    0    0 -0.51472933181E+01  0.23613951458E+01  0.68054349110E+00  0.57038543969E+01  0.00000000000E+00 0. -1.
</event>
<event>
 7    1  0.2991278E-011  0.5052886E+02  0.7816164E-02  0.1300439E+00
        -11   -1    0    0    0    0  0.00000000000E+00  0.00000000000E+00  0.45593999997E+02  0.45594000000E+02  0.51100000000E-03 0.  1.
         11   -1    0    0    0    0 -0.00000000000E+00 -0.00000000000E+00 -0.45593999997E+02  0.45594000000E+02  0.51100000000E-03 0. -1.
    9900012    2    1    2    0    0  0.24186087285E+02  0.16895706952E+02  0.27977384707E+02  0.50528858511E+02  0.29999995930E+02 0.  0.
         12    1    1    2    0    0 -0.24186087285E+02 -0.16895706952E+02 -0.27977384707E+02  0.40659141489E+02  0.00000000000E+00 0. -1.
         11    1    3    3    0    0  0.23108071228E+02  0.34713208563E+01  0.10253712921E+02  0.25518065234E+02  0.51100000000E-03 0. -1.
        -11    1    3    3    0    0  0.14311466372E+01  0.12132631402E+02  0.67534848735E+01  0.13959172025E+02  0.51100000000E-03 0.  1.
         12    1    3    3    0    0 -0.35313057974E+00  0.12917546935E+01  0.10970186913E+02  0.11051621252E+02  0.00000000000E+00 0. -1.
</event>
<event>
 7    1  0.2991278E-011  0.5052884E+02  0.7816164E-02  0.1300439E+00
        -11   -1    0    0    0    0  0.00000000000E+00  0.00000000000E+00  0.45593999997E+02  0.45594000000E+02  0.51100000000E-03 0. -1.
         11   -1    0    0    0    0 -0.00000000000E+00 -0.00000000000E+00 -0.45593999997E+02  0.45594000000E+02  0.51100000000E-03 0.  1.
    9900012    2    1    2    0    0  0.66543406328E+01 -0.31800984699E+02 -0.24445539447E+02  0.50528840196E+02  0.29999940260E+02 0.  0.
         12    1    1    2    0    0 -0.66543406328E+01  0.31800984699E+02  0.24445539447E+02  0.40659159804E+02  0.00000000000E+00 0. -1.
         11    1    3    3    0    0  0.53362531681E+01 -0.27555776491E+02 -0.38571907888E+01  0.28331507848E+02  0.51100000000E-03 0. -1.
        -11    1    3    3    0    0  0.18279501987E+01 -0.51264243571E+01 -0.86776701324E+01  0.10243221554E+02  0.51100000000E-03 0.  1.
         12    1    3    3    0    0 -0.50986273405E+00  0.88121614951E+00 -0.11910678526E+02  0.11954110794E+02  0.00000000000E+00 0. -1.
</event>
<event>
 7    1  0.2991278E-011  0.5052887E+02  0.7816164E-02  0.1300439E+00
        -11   -1    0    0    0    0  0.00000000000E+00  0.00000000000E+00  0.45593999997E+02  0.45594000000E+02  0.51100000000E-03 0.  1.
         11   -1    0    0    0    0 -0.00000000000E+00 -0.00000000000E+00 -0.45593999997E+02  0.45594000000E+02  0.51100000000E-03 0. -1.
    9900012    2    1    2    0    0  0.39070817839E+02 -0.68717317342E+01  0.89115216497E+01  0.50528871606E+02  0.30000035733E+02 0.  0.
         12    1    1    2    0    0 -0.39070817839E+02  0.68717317342E+01 -0.89115216497E+01  0.40659128394E+02  0.00000000000E+00 0. -1.
         11    1    3    3    0    0  0.23157181217E+02  0.56059557437E+01  0.41234241230E+01  0.24180248313E+02  0.51100000000E-03 0. -1.
        -11    1    3    3    0    0  0.11850645509E+02 -0.16266523296E+02  0.22835012045E+01  0.20254677414E+02  0.51100000000E-03 0.  1.
        -12    1    3    3    0    0  0.40629911132E+01  0.37888358180E+01  0.25045963222E+01  0.60939458792E+01  0.00000000000E+00 0.  1.
</event>
<event>
 7    1  0.2991278E-011  0.5052886E+02  0.7816164E-02  0.1300439E+00
        -11   -1    0    0    0    0  0.00000000000E+00  0.00000000000E+00  0.45593999997E+02  0.45594000000E+02  0.51100000000E-03 0.  1.
         11   -1    0    0    0    0 -0.00000000000E+00 -0.00000000000E+00 -0.45593999997E+02  0.45594000000E+02  0.51100000000E-03 0. -1.
    9900012    2    1    2    0    0 -0.13415408889E+02 -0.14208112843E+02  0.35655600962E+02  0.50528861468E+02  0.30000004919E+02 0.  0.
         12    1    1    2    0    0  0.13415408889E+02  0.14208112843E+02 -0.35655600962E+02  0.40659138532E+02  0.00000000000E+00 0. -1.
         11    1    3    3    0    0  0.42143256739E-01  0.20985805085E+01 -0.16468118549E+01  0.26679216164E+01  0.51100000000E-03 0. -1.
        -11    1    3    3    0    0 -0.17930387117E+02 -0.10321971901E+02  0.33752965523E+02  0.39589197617E+02  0.51100000000E-03 0.  1.
        -12    1    3    3    0    0  0.44728349710E+01 -0.59847214497E+01  0.35494472934E+01  0.82717422347E+01  0.00000000000E+00 0.  1.
</event>
<event>
 7    1  0.2991278E-011  0.5052886E+02  0.7816164E-02  0.1300439E+00
        -11   -1    0    0    0    0  0.00000000000E+00  0.00000000000E+00  0.45593999997E+02  0.45594000000E+02  0.51100000000E-03 0.  1.
         11   -1    0    0    0    0 -0.00000000000E+00 -0.00000000000E+00 -0.45593999997E+02  0.45594000000E+02  0.51100000000E-03 0. -1.
    9900012    2    1    2    0    0  0.33961026599E+02  0.45366974838E+01  0.21891381667E+02  0.50528861506E+02  0.30000005035E+02 0.  0.
         12    1    1    2    0    0 -0.33961026599E+02 -0.45366974838E+01 -0.21891381667E+02  0.40659138494E+02  0.00000000000E+00 0. -1.
         11    1    3    3    0    0  0.27953274476E+02 -0.83351123693E+01  0.12014238448E+02  0.31546815654E+02  0.51100000000E-03 0. -1.
        -11    1    3    3    0    0  0.68838459027E+01  0.93460093457E+01  0.44083098142E+01  0.12416457658E+02  0.51100000000E-03 0.  1.
         12    1    3    3    0    0 -0.87609377943E+00  0.35258005074E+01  0.54688334051E+01  0.65655881946E+01  0.00000000000E+00 0. -1.
</event>
<event>
 7    1  0.2991278E-011  0.5052884E+02  0.7816164E-02  0.1300439E+00
        -11   -1    0    0    0    0  0.00000000000E+00  0.00000000000E+00  0.45593999997E+02  0.45594000000E+02  0.51100000000E-03 0.  1.
         11   -1    0    0    0    0 -0.00000000000E+00 -0.00000000000E+00 -0.45593999997E+02  0.45594000000E+02  0.51100000000E-03 0. -1.
    9900012    2    1    2    0    0 -0.11131099756E+02 -0.13635581719E+02  0.36651559709E+02  0.50528839904E+02  0.29999939373E+02 0.  0.
         12    1    1    2    0    0  0.11131099756E+02  0.13635581719E+02 -0.36651559709E+02  0.40659160096E+02  0.00000000000E+00 0. -1.
         11    1    3    3    0    0 -0.47296888641E+01 -0.91295688298E+01  0.20244477923E+01  0.10479378459E+02  0.51100000000E-03 0. -1.
        -11    1    3    3    0    0  0.51383104604E+00  0.22320517204E+01  0.28548395329E+02  0.28640128375E+02  0.51100000000E-03 0.  1.
        -12    1    3    3    0    0 -0.69152419376E+01 -0.67380646100E+01  0.60787165877E+01  0.11409333070E+02  0.00000000000E+00 0.  1.
</event>
<event>
 7    1  0.2991278E-011  0.5052887E+02  0.7816164E-02  0.1300439E+00
        -11   -1    0    0    0    0  0.00000000000E+00  0.00000000000E+00  0.45593999997E+02  0.45594000000E+02  0.51100000000E-03 0. -1.
         11   -1    0    0    0    0 -0.00000000000E+00 -0.00000000000E+00 -0.45593999997E+02  0.45594000000E+02  0.51100000000E-03 0.  1.
    9900012    2    1    2    0    0 -0.61862084851E+01  0.13078810985E+02 -0.37997903755E+02  0.50528866192E+02  0.30000019278E+02 0.  0.
         12    1    1    2    0    0  0.61862084851E+01 -0.13078810985E+02  0.37997903755E+02  0.40659133808E+02  0.00000000000E+00 0. -1.
         11    1    3    3    0    0  0.29297073333E+01 -0.16533121083E+01  0.31294490938E+01  0.45945704781E+01  0.51100000000E-03 0. -1.
        -11    1    3    3    0    0 -0.42905500848E+01 -0.59935671316E+00 -0.10134261295E+02  0.11021401942E+02  0.51100000000E-03 0.  1.
         12    1    3    3    0    0 -0.48253657336E+01  0.15331479806E+02 -0.30993091554E+02  0.34912893773E+02  0.00000000000E+00 0. -1.
</event>
<event>
 7    1  0.2991278E-011  0.5052886E+02  0.7816164E-02  0.1300439E+00
        -11   -1    0    0    0    0  0.00000000000E+00  0.00000000000E+00  0.45593999997E+02  0.45594000000E+02  0.51100000000E-03 0.  1.
         11   -1    0    0    0    0 -0.00000000000E+00 -0.00000000000E+00 -0.45593999997E+02  0.45594000000E+02  0.51100000000E-03 0. -1.
    9900012    2    1    2    0    0  0.10518557226E+02  0.64573236896E+01  0.38740530410E+02  0.50528858693E+02  0.29999996484E+02 0.  0.
         12    1    1    2    0    0 -0.10518557226E+02 -0.64573236896E+01 -0.38740530410E+02  0.40659141307E+02  0.00000000000E+00 0. -1.
         11    1    3    3    0    0 -0.25744615874E+01  0.12676738849E+02  0.11850414341E+02  0.17543086405E+02  0.51100000000E-03 0. -1.
        -11    1    3    3    0    0 -0.58454305668E+00 -0.53134660394E+01  0.86638208756E+01  0.10180196676E+02  0.51100000000E-03 0.  1.
         12    1    3    3    0    0  0.13677561870E+02 -0.90594912003E+00  0.18226295194E+02  0.22805575612E+02  0.00000000000E+00 0. -1.
</event>
<event>
 7    1  0.2991278E-011  0.5052888E+02  0.7816164E-02  0.1300439E+00
        -11   -1    0    0    0    0  0.00000000000E+00  0.00000000000E+00  0.45593999997E+02  0.45594000000E+02  0.51100000000E-03 0. -1.
         11   -1    0    0    0    0 -0.00000000000E+00 -0.00000000000E+00 -0.45593999997E+02  0.45594000000E+02  0.51100000000E-03 0.  1.
    9900012    2    1    2    0    0  0.30427091227E+02 -0.24849760491E+02 -0.10480742714E+02  0.50528875012E+02  0.30000046085E+02 0.  0.
         12    1    1    2    0    0 -0.30427091227E+02  0.24849760491E+02  0.10480742714E+02  0.40659124988E+02  0.00000000000E+00 0. -1.
         11    1    3    3    0    0 -0.25655736561E+01 -0.42282357412E+00  0.23746518409E+01  0.35213519543E+01  0.51100000000E-03 0. -1.
        -11    1    3    3    0    0  0.12680257693E+02 -0.59178564230E+01 -0.13604931981E+02  0.19516765466E+02  0.51100000000E-03 0.  1.
        -12    1    3    3    0    0  0.20312407190E+02 -0.18509080494E+02  0.74953742573E+00  0.27490757591E+02  0.00000000000E+00 0.  1.
</event>
<event>
 7    1  0.2991278E-011  0.5052886E+02  0.7816164E-02  0.1300439E+00
        -11   -1    0    0    0    0  0.00000000000E+00  0.00000000000E+00  0.45593999997E+02  0.45594000000E+02  0.51100000000E-03 0.  1.
         11   -1    0    0    0    0 -0.00000000000E+00 -0.00000000000E+00 -0.45593999997E+02  0.45594000000E+02  0.51100000000E-03 0. -1.
    9900012    2    1    2    0    0 -0.33599095245E+02 -0.22616751788E+02 -0.35705925402E+01  0.50528858423E+02  0.29999995663E+02 0.  0.
         12    1    1    2    0    0  0.33599095245E+02  0.22616751788E+02  0.35705925402E+01  0.40659141577E+02  0.00000000000E+00 0. -1.
         11    1    3    3    0    0 -0.21058888852E+02 -0.15004443810E+01  0.33330977664E+01  0.21373761345E+02  0.51100000000E-03 0. -1.
        -11    1    3    3    0    0 -0.74457763335E+01 -0.18764531164E+02  0.90928982526E-01  0.20188003451E+02  0.51100000000E-03 0.  1.
        -12    1    3    3    0    0 -0.50944300589E+01 -0.23517762427E+01 -0.69946192892E+01  0.89670936273E+01  0.00000000000E+00 0.  1.
</event>
<event>
 7    1  0.2991278E-011  0.5052886E+02  0.7816164E-02  0.1300439E+00
        -11   -1    0    0    0    0  0.00000000000E+00  0.00000000000E+00  0.45593999997E+02  0.45594000000E+02  0.51100000000E-03 0.  1.
         11   -1    0    0    0    0 -0.00000000000E+00 -0.00000000000E+00 -0.45593999997E+02  0.45594000000E+02  0.51100000000E-03 0. -1.
    9900012    2    1    2    0    0 -0.34272163254E+02 -0.20896889844E+02 -0.64733952462E+01  0.50528855576E+02  0.29999987009E+02 0.  0.
         12    1    1    2    0    0  0.34272163254E+02  0.20896889844E+02  0.64733952462E+01  0.40659144424E+02  0.00000000000E+00 0. -1.
         11    1    3    3    0    0 -0.63221703101E+01  0.24843028530E+01 -0.84254389548E+01  0.10822643852E+02  0.51100000000E-03 0. -1.
        -11    1    3    3    0    0 -0.23700699372E+02 -0.11129155705E+02 -0.16852194941E+01  0.26237782347E+02  0.51100000000E-03 0.  1.
         12    1    3    3    0    0 -0.42492935713E+01 -0.12252036992E+02  0.36372632027E+01  0.13468429378E+02  0.00000000000E+00 0. -1.
</event>
<event>
 7    1  0.2991278E-011  0.5052886E+02  0.7816164E-02  0.1300439E+00
        -11   -1    0    0    0    0  0.00000000000E+00  0.00000000000E+00  0.45593999997E+02  0.45594000000E+02  0.51100000000E-03 0.  1.
         11   -1    0    0    0    0 -0.00000000000E+00 -0.00000000000E+00 -0.45593999997E+02  0.45594000000E+02  0.51100000000E-03 0. -1.
    9900012    2    1    2    0    0 -0.19793409247E+01  0.40545603186E+02  0.23026657555E+01  0.50528855914E+02  0.29999988035E+02 0.  0.
         12    1    1    2    0    0  0.19793409247E+01 -0.40545603186E+02 -0.23026657555E+01  0.40659144086E+02  0.00000000000E+00 0. -1.
         11    1    3    3    0    0 -0.83054893567E+01  0.18259844700E+02  0.41772236130E+01  0.20490297199E+02  0.51100000000E-03 0.  1.
        -11    1    3    3    0    0  0.96312782055E+01  0.86159793684E+01  0.56323145479E+01  0.14096793528E+02  0.51100000000E-03 0. -1.
         12    1    3    3    0    0 -0.33051297735E+01  0.13669779118E+02 -0.75068724054E+01  0.15941765187E+02  0.00000000000E+00 0. -1.
</event>
<event>
 7    1  0.2991278E-011  0.5052886E+02  0.7816164E-02  0.1300439E+00
        -11   -1    0    0    0    0  0.00000000000E+00  0.00000000000E+00  0.45593999997E+02  0.45594000000E+02  0.51100000000E-03 0.  1.
         11   -1    0    0    0    0 -0.00000000000E+00 -0.00000000000E+00 -0.45593999997E+02  0.45594000000E+02  0.51100000000E-03 0. -1.
    9900012    2    1    2    0    0  0.13890936671E+02  0.50071076973E+01  0.37883193943E+02  0.50528860407E+02  0.30000001694E+02 0.  0.
         12    1    1    2    0    0 -0.13890936671E+02 -0.50071076973E+01 -0.37883193943E+02  0.40659139593E+02  0.00000000000E+00 0. -1.
         11    1    3    3    0    0 -0.83649052387E+00  0.98294437343E+00 -0.68730297136E+00  0.14622864539E+01  0.51100000000E-03 0. -1.
        -11    1    3    3    0    0  0.82168003115E+01  0.13186072473E+02  0.33102949007E+02  0.36567657129E+02  0.51100000000E-03 0.  1.
        -12    1    3    3    0    0  0.65106268830E+01 -0.91619091496E+01  0.54675479071E+01  0.12498916825E+02  0.00000000000E+00 0.  1.
</event>
<event>
 7    1  0.2991278E-011  0.5052885E+02  0.7816164E-02  0.1300439E+00
        -11   -1    0    0    0    0  0.00000000000E+00  0.00000000000E+00  0.45593999997E+02  0.45594000000E+02  0.51100000000E-03 0.  1.
         11   -1    0    0    0    0 -0.00000000000E+00 -0.00000000000E+00 -0.45593999997E+02  0.45594000000E+02  0.51100000000E-03 0. -1.
    9900012    2    1    2    0    0  0.26917762996E+02  0.12180531928E+02  0.27932691843E+02  0.50528848553E+02  0.29999965663E+02 0.  0.
         12    1    1    2    0    0 -0.26917762996E+02 -0.12180531928E+02 -0.27932691843E+02  0.40659151447E+02  0.00000000000E+00 0. -1.
         11    1    3    3    0    0 -0.21739455765E+01 -0.30576511143E+01  0.99112131659E+01  0.10597519351E+02  0.51100000000E-03 0. -1.
        -11    1    3    3    0    0  0.17124832482E+02  0.92222707917E+01  0.18053294944E+02  0.26537362806E+02  0.51100000000E-03 0.  1.
         12    1    3    3    0    0  0.11966876090E+02  0.60159122506E+01 -0.31816266840E-01  0.13393966397E+02  0.00000000000E+00 0. -1.
</event>
<event>
 7    1  0.3248343E-011  0.5052889E+02  0.7816164E-02  0.1300439E+00
        -11   -1    0    0    0    0  0.00000000000E+00  0.00000000000E+00  0.45593999997E+02  0.45594000000E+02  0.51100000000E-03 0. -1.
         11   -1    0    0    0    0 -0.00000000000E+00 -0.00000000000E+00 -0.45593999997E+02  0.45594000000E+02  0.51100000000E-03 0.  1.
    9900012    2    1    2    0    0  0.16999824397E+02  0.23779794244E+02 -0.28261113692E+02  0.50528890431E+02  0.30000092953E+02 0.  0.
         12    1    1    2    0    0 -0.16999824397E+02 -0.23779794244E+02  0.28261113692E+02  0.40659109569E+02  0.00000000000E+00 0. -1.
         11    1    3    3    0    0  0.10759125236E+02  0.98997921995E+01  0.40011811038E+00  0.14626166832E+02  0.51100000000E-03 0. -1.
        -11    1    3    3    0    0 -0.49375171512E+01  0.53388847451E+01 -0.12632751452E+02  0.14576322425E+02  0.51100000000E-03 0.  1.
        -12    1    3    3    0    0  0.11178216312E+02  0.85411172996E+01 -0.16028480351E+02  0.21326401173E+02  0.00000000000E+00 0.  1.
</event>
<event>
 7    1  0.2991278E-011  0.5052886E+02  0.7816164E-02  0.1300439E+00
        -11   -1    0    0    0    0  0.00000000000E+00  0.00000000000E+00  0.45593999997E+02  0.45594000000E+02  0.51100000000E-03 0.  1.
         11   -1    0    0    0    0 -0.00000000000E+00 -0.00000000000E+00 -0.45593999997E+02  0.45594000000E+02  0.51100000000E-03 0. -1.
    9900012    2    1    2    0    0  0.22028030046E+01  0.25495745501E+02  0.31595572447E+02  0.50528861076E+02  0.30000003728E+02 0.  0.
         12    1    1    2    0    0 -0.22028030046E+01 -0.25495745501E+02 -0.31595572447E+02  0.40659138924E+02  0.00000000000E+00 0. -1.
         11    1    3    3    0    0 -0.10680499972E+00  0.68794929810E+01  0.28496895165E+02  0.29315727269E+02  0.51100000000E-03 0. -1.
        -11    1    3    3    0    0 -0.28047426324E+01  0.11313991824E+02  0.38261988690E+01  0.12268365428E+02  0.51100000000E-03 0.  1.
         12    1    3    3    0    0  0.51143506367E+01  0.73022606957E+01 -0.72752158652E+00  0.89447683794E+01  0.00000000000E+00 0. -1.
</event>
<event>
 7    1  0.2991278E-011  0.5052882E+02  0.7816164E-02  0.1300439E+00
        -11   -1    0    0    0    0  0.00000000000E+00  0.00000000000E+00  0.45593999997E+02  0.45594000000E+02  0.51100000000E-03 0. -1.
         11   -1    0    0    0    0 -0.00000000000E+00 -0.00000000000E+00 -0.45593999997E+02  0.45594000000E+02  0.51100000000E-03 0.  1.
    9900012    2    1    2    0    0  0.12352734374E+02 -0.36615689550E+02  0.12643962702E+02  0.50528824399E+02  0.29999892244E+02 0.  0.
         12    1    1    2    0    0 -0.12352734374E+02  0.36615689550E+02 -0.12643962702E+02  0.40659175601E+02  0.00000000000E+00 0. -1.
         11    1    3    3    0    0  0.31330184087E+01  0.19748540248E+01  0.15138593461E+01  0.40009527802E+01  0.51100000000E-03 0. -1.
        -11    1    3    3    0    0  0.26689089655E+01 -0.38524097185E+02  0.98492266780E+01  0.39852683792E+02  0.51100000000E-03 0.  1.
        -12    1    3    3    0    0  0.65508069994E+01 -0.66446389613E-01  0.12808766774E+01  0.66751878273E+01  0.00000000000E+00 0.  1.
</event>
<event>
 7    1  0.2991278E-011  0.5052887E+02  0.7816164E-02  0.1300439E+00
        -11   -1    0    0    0    0  0.00000000000E+00  0.00000000000E+00  0.45593999997E+02  0.45594000000E+02  0.51100000000E-03 0.  1.
         11   -1    0    0    0    0 -0.00000000000E+00 -0.00000000000E+00 -0.45593999997E+02  0.45594000000E+02  0.51100000000E-03 0. -1.
    9900012    2    1    2    0    0 -0.37528054791E+02 -0.11048620695E+02  0.11078720307E+02  0.50528868685E+02  0.30000026856E+02 0.  0.
         12    1    1    2    0    0  0.37528054791E+02  0.11048620695E+02 -0.11078720307E+02  0.40659131315E+02  0.00000000000E+00 0. -1.
         11    1    3    3    0    0 -0.19578544956E+02 -0.18156025290E+01 -0.21697985638E+01  0.19781907421E+02  0.51100000000E-03 0. -1.
        -11    1    3    3    0    0 -0.52021838122E+00 -0.33064164018E+01  0.11817161521E+02  0.12282032537E+02  0.51100000000E-03 0.  1.
        -12    1    3    3    0    0 -0.17429291453E+02 -0.59266017637E+01  0.14313573507E+01  0.18464928727E+02  0.00000000000E+00 0.  1.
</event>
<event>
 7    1  0.2991278E-011  0.5052886E+02  0.7816164E-02  0.1300439E+00
        -11   -1    0    0    0    0  0.00000000000E+00  0.00000000000E+00  0.45593999997E+02  0.45594000000E+02  0.51100000000E-03 0.  1.
         11   -1    0    0    0    0 -0.00000000000E+00 -0.00000000000E+00 -0.45593999997E+02  0.45594000000E+02  0.51100000000E-03 0. -1.
    9900012    2    1    2    0    0 -0.34207613030E+02  0.13470572018E+02  0.17365154080E+02  0.50528859872E+02  0.30000000068E+02 0.  0.
         12    1    1    2    0    0  0.34207613030E+02 -0.13470572018E+02 -0.17365154080E+02  0.40659140128E+02  0.00000000000E+00 0. -1.
         11    1    3    3    0    0  0.12110762052E+01  0.39104789925E+00  0.11764451517E+02  0.11833086824E+02  0.51100000000E-03 0. -1.
        -11    1    3    3    0    0 -0.24872079907E+02  0.82354628271E+01  0.66847503396E+01  0.27039398925E+02  0.51100000000E-03 0.  1.
         12    1    3    3    0    0 -0.10546609328E+02  0.48440612915E+01 -0.10840477762E+01  0.11656374123E+02  0.00000000000E+00 0. -1.
</event>
<event>
 7    1  0.2991278E-011  0.5052886E+02  0.7816164E-02  0.1300439E+00
        -11   -1    0    0    0    0  0.00000000000E+00  0.00000000000E+00  0.45593999997E+02  0.45594000000E+02  0.51100000000E-03 0.  1.
         11   -1    0    0    0    0 -0.00000000000E+00 -0.00000000000E+00 -0.45593999997E+02  0.45594000000E+02  0.51100000000E-03 0. -1.
    9900012    2    1    2    0    0  0.34021871497E+02  0.73392827743E+01  0.21019345706E+02  0.50528859506E+02  0.29999998955E+02 0.  0.
         12    1    1    2    0    0 -0.34021871497E+02 -0.73392827743E+01 -0.21019345706E+02  0.40659140494E+02  0.00000000000E+00 0. -1.
         11    1    3    3    0    0  0.11468892025E+01 -0.36935225527E+01  0.27402186627E+01  0.47398588872E+01  0.51100000000E-03 0. -1.
        -11    1    3    3    0    0  0.37073663029E+01  0.10825131632E+02  0.10667990960E+02  0.15643978750E+02  0.51100000000E-03 0.  1.
        -12    1    3    3    0    0  0.29167615991E+02  0.20767369476E+00  0.76111360837E+01  0.30145021869E+02  0.00000000000E+00 0.  1.
</event>
<event>
 7    1  0.2991278E-011  0.5052886E+02  0.7816164E-02  0.1300439E+00
        -11   -1    0    0    0    0  0.00000000000E+00  0.00000000000E+00  0.45593999997E+02  0.45594000000E+02  0.51100000000E-03 0.  1.
         11   -1    0    0    0    0 -0.00000000000E+00 -0.00000000000E+00 -0.45593999997E+02  0.45594000000E+02  0.51100000000E-03 0. -1.
    9900012    2    1    2    0    0 -0.34656852162E+02 -0.13497204799E+02  0.16428452002E+02  0.50528856202E+02  0.29999988913E+02 0.  0.
         12    1    1    2    0    0  0.34656852162E+02  0.13497204799E+02 -0.16428452002E+02  0.40659143798E+02  0.00000000000E+00 0. -1.
         11    1    3    3    0    0 -0.74774041764E+01  0.59196980605E+01  0.87197340940E+01  0.12922389921E+02  0.51100000000E-03 0. -1.
        -11    1    3    3    0    0 -0.26559799317E+02 -0.18978541745E+02  0.10830739827E+02  0.34393501014E+02  0.51100000000E-03 0.  1.
        -12    1    3    3    0    0 -0.61964866851E+00 -0.43836111442E+00 -0.31220219197E+01  0.32129652668E+01  0.00000000000E+00 0.  1.
</event>
<event>
 7    1  0.2991278E-011  0.5052887E+02  0.7816164E-02  0.1300439E+00
        -11   -1    0    0    0    0  0.00000000000E+00  0.00000000000E+00  0.45593999997E+02  0.45594000000E+02  0.51100000000E-03 0.  1.
         11   -1    0    0    0    0 -0.00000000000E+00 -0.00000000000E+00 -0.45593999997E+02  0.45594000000E+02  0.51100000000E-03 0. -1.
    9900012    2    1    2    0    0 -0.33791383607E+02 -0.19548532191E+02  0.11364945558E+02  0.50528871819E+02  0.30000036380E+02 0.  0.
         12    1    1    2    0    0  0.33791383607E+02  0.19548532191E+02 -0.11364945558E+02  0.40659128181E+02  0.00000000000E+00 0. -1.
         11    1    3    3    0    0 -0.89097949898E-01  0.26523596026E+01  0.43864578147E+01  0.51267886954E+01  0.51100000000E-03 0. -1.
        -11    1    3    3    0    0 -0.29165975517E+02 -0.21321792324E+02 -0.10444516125E+01  0.36143655531E+02  0.51100000000E-03 0.  1.
        -12    1    3    3    0    0 -0.45363101410E+01 -0.87909946961E+00  0.80229393558E+01  0.92584275922E+01  0.00000000000E+00 0.  1.
</event>
<event>
 7    1  0.2991278E-011  0.5052883E+02  0.7816164E-02  0.1300439E+00
        -11   -1    0    0    0    0  0.00000000000E+00  0.00000000000E+00  0.45593999997E+02  0.45594000000E+02  0.51100000000E-03 0. -1.
         11   -1    0    0    0    0 -0.00000000000E+00 -0.00000000000E+00 -0.45593999997E+02  0.45594000000E+02  0.51100000000E-03 0.  1.
    9900012    2    1    2    0    0 -0.19574517860E+02  0.30257477115E+02  0.18827953206E+02  0.50528825232E+02  0.29999894776E+02 0.  0.
         12    1    1    2    0    0  0.19574517860E+02 -0.30257477115E+02 -0.18827953206E+02  0.40659174768E+02  0.00000000000E+00 0. -1.
         11    1    3    3    0    0 -0.55820138806E+01 -0.78415327727E+00  0.85764071055E+01  0.10262969084E+02  0.51100000000E-03 0. -1.
        -11    1    3    3    0    0  0.14506063818E+01  0.62197236897E+01 -0.42112367665E+01  0.76500808503E+01  0.51100000000E-03 0.  1.
        -12    1    3    3    0    0 -0.15443110361E+02  0.24821906703E+02  0.14462782868E+02  0.32615775298E+02  0.00000000000E+00 0.  1.
</event>
<event>
 7    1  0.2991278E-011  0.5052886E+02  0.7816164E-02  0.1300439E+00
        -11   -1    0    0    0    0  0.00000000000E+00  0.00000000000E+00  0.45593999997E+02  0.45594000000E+02  0.51100000000E-03 0.  1.
         11   -1    0    0    0    0 -0.00000000000E+00 -0.00000000000E+00 -0.45593999997E+02  0.45594000000E+02  0.51100000000E-03 0. -1.
    9900012    2    1    2    0    0 -0.36881227536E+02  0.67895532272E+01  0.15711219498E+02  0.50528863318E+02  0.30000010541E+02 0.  0.
         12    1    1    2    0    0  0.36881227536E+02 -0.67895532272E+01 -0.15711219498E+02  0.40659136682E+02  0.00000000000E+00 0. -1.
         11    1    3    3    0    0  0.24051834550E+01  0.68647470734E+01  0.66890115607E+00  0.73045936815E+01  0.51100000000E-03 0. -1.
        -11    1    3    3    0    0 -0.22126555063E+02  0.83898757480E+00  0.32419608849E+01  0.22378531000E+02  0.51100000000E-03 0.  1.
         12    1    3    3    0    0 -0.17159855929E+02 -0.91418142099E+00  0.11800357457E+02  0.20845738636E+02  0.00000000000E+00 0. -1.
</event>
<event>
 7    1  0.2991278E-011  0.5052887E+02  0.7816164E-02  0.1300439E+00
        -11   -1    0    0    0    0  0.00000000000E+00  0.00000000000E+00  0.45593999997E+02  0.45594000000E+02  0.51100000000E-03 0.  1.
         11   -1    0    0    0    0 -0.00000000000E+00 -0.00000000000E+00 -0.45593999997E+02  0.45594000000E+02  0.51100000000E-03 0. -1.
    9900012    2    1    2    0    0  0.24164284579E+02  0.24009211694E+02  0.22199324425E+02  0.50528869411E+02  0.30000029061E+02 0.  0.
         12    1    1    2    0    0 -0.24164284579E+02 -0.24009211694E+02 -0.22199324425E+02  0.40659130589E+02  0.00000000000E+00 0. -1.
         11    1    3    3    0    0  0.67108496174E+01  0.18037280519E+01  0.24868312175E+01  0.73806007369E+01  0.51100000000E-03 0. -1.
        -11    1    3    3    0    0 -0.14053252387E+01  0.18479783880E+02  0.58027212937E+01  0.19420322499E+02  0.51100000000E-03 0.  1.
        -12    1    3    3    0    0  0.18858760200E+02  0.37256997617E+01  0.13909771913E+02  0.23727946175E+02  0.00000000000E+00 0.  1.
</event>
<event>
 7    1  0.2991278E-011  0.5052884E+02  0.7816164E-02  0.1300439E+00
        -11   -1    0    0    0    0  0.00000000000E+00  0.00000000000E+00  0.45593999997E+02  0.45594000000E+02  0.51100000000E-03 0. -1.
         11   -1    0    0    0    0 -0.00000000000E+00 -0.00000000000E+00 -0.45593999997E+02  0.45594000000E+02  0.51100000000E-03 0.  1.
    9900012    2    1    2    0    0 -0.25652770377E+02 -0.25360873485E+02 -0.18759757386E+02  0.50528843231E+02  0.29999949486E+02 0.  0.
         12    1    1    2    0    0  0.25652770377E+02  0.25360873485E+02  0.18759757386E+02  0.40659156769E+02  0.00000000000E+00 0. -1.
         11    1    3    3    0    0 -0.33339103837E+00 -0.19454183045E+02 -0.13178916401E+02  0.23500217558E+02  0.51100000000E-03 0. -1.
        -11    1    3    3    0    0 -0.17179514721E+02 -0.56482919032E+01 -0.22259155743E+01  0.18220692299E+02  0.51100000000E-03 0.  1.
         12    1    3    3    0    0 -0.81398646179E+01 -0.25839853725E+00 -0.33549254116E+01  0.88079333740E+01  0.00000000000E+00 0. -1.
</event>
<event>
 7    1  0.2991278E-011  0.5052887E+02  0.7816164E-02  0.1300439E+00
        -11   -1    0    0    0    0  0.00000000000E+00  0.00000000000E+00  0.45593999997E+02  0.45594000000E+02  0.51100000000E-03 0.  1.
         11   -1    0    0    0    0 -0.00000000000E+00 -0.00000000000E+00 -0.45593999997E+02  0.45594000000E+02  0.51100000000E-03 0. -1.
    9900012    2    1    2    0    0 -0.17746656205E+02 -0.23773647690E+02  0.27803501321E+02  0.50528870440E+02  0.30000032188E+02 0.  0.
         12    1    1    2    0    0  0.17746656205E+02  0.23773647690E+02 -0.27803501321E+02  0.40659129560E+02  0.00000000000E+00 0. -1.
         11    1    3    3    0    0 -0.82677377387E+01 -0.22150112407E+02  0.63113516493E+01  0.24470719787E+02  0.51100000000E-03 0.  1.
        -11    1    3    3    0    0 -0.59924893038E+01  0.45073872605E+01  0.90181603441E+01  0.11728328279E+02  0.51100000000E-03 0. -1.
        -12    1    3    3    0    0 -0.34864291621E+01 -0.61309225428E+01  0.12473989327E+02  0.14329822374E+02  0.00000000000E+00 0.  1.
</event>
<event>
 7    1  0.2991278E-011  0.5052886E+02  0.7816164E-02  0.1300439E+00
        -11   -1    0    0    0    0  0.00000000000E+00  0.00000000000E+00  0.45593999997E+02  0.45594000000E+02  0.51100000000E-03 0.  1.
         11   -1    0    0    0    0 -0.00000000000E+00 -0.00000000000E+00 -0.45593999997E+02  0.45594000000E+02  0.51100000000E-03 0. -1.
    9900012    2    1    2    0    0 -0.17509808782E+02  0.14476591342E+02  0.33719435039E+02  0.50528863267E+02  0.30000010387E+02 0.  0.
         12    1    1    2    0    0  0.17509808782E+02 -0.14476591342E+02 -0.33719435039E+02  0.40659136733E+02  0.00000000000E+00 0. -1.
         11    1    3    3    0    0 -0.18584925144E+02 -0.30559018415E+01  0.18200624083E+02  0.26191614993E+02  0.51100000000E-03 0. -1.
        -11    1    3    3    0    0 -0.26705140305E+01  0.55901108280E+01  0.58603946692E+01  0.85279077268E+01  0.51100000000E-03 0.  1.
         12    1    3    3    0    0  0.37456303926E+01  0.11942382356E+02  0.96584162872E+01  0.15809340547E+02  0.00000000000E+00 0. -1.
</event>
<event>
 7    1  0.2991278E-011  0.5052886E+02  0.7816164E-02  0.1300439E+00
        -11   -1    0    0    0    0  0.00000000000E+00  0.00000000000E+00  0.45593999997E+02  0.45594000000E+02  0.51100000000E-03 0. -1.
         11   -1    0    0    0    0 -0.00000000000E+00 -0.00000000000E+00 -0.45593999997E+02  0.45594000000E+02  0.51100000000E-03 0.  1.
    9900012    2    1    2    0    0  0.31017466013E+02  0.10865902989E+02  0.23937728028E+02  0.50528857501E+02  0.29999992860E+02 0.  0.
         12    1    1    2    0    0 -0.31017466013E+02 -0.10865902989E+02 -0.23937728028E+02  0.40659142499E+02  0.00000000000E+00 0. -1.
         11    1    3    3    0    0  0.19310250840E+02 -0.57625383780E+01  0.12824986855E+02  0.23886668335E+02  0.51100000000E-03 0. -1.
        -11    1    3    3    0    0  0.23422206050E+00  0.11525935143E+02  0.66942694258E+01  0.13330989622E+02  0.51100000000E-03 0.  1.
        -12    1    3    3    0    0  0.11472993112E+02  0.51025062239E+01  0.44184717472E+01  0.13311199544E+02  0.00000000000E+00 0.  1.
</event>
<event>
 7    1  0.2991278E-011  0.5052886E+02  0.7816164E-02  0.1300439E+00
        -11   -1    0    0    0    0  0.00000000000E+00  0.00000000000E+00  0.45593999997E+02  0.45594000000E+02  0.51100000000E-03 0.  1.
         11   -1    0    0    0    0 -0.00000000000E+00 -0.00000000000E+00 -0.45593999997E+02  0.45594000000E+02  0.51100000000E-03 0. -1.
    9900012    2    1    2    0    0 -0.67601552934E+01  0.20371123060E+02 -0.34532352599E+02  0.50528859203E+02  0.29999998033E+02 0.  0.
         12    1    1    2    0    0  0.67601552934E+01 -0.20371123060E+02  0.34532352599E+02  0.40659140797E+02  0.00000000000E+00 0. -1.
         11    1    3    3    0    0  0.30714966335E+00  0.28076852609E+01 -0.90828808936E+01  0.95118958693E+01  0.51100000000E-03 0. -1.
        -11    1    3    3    0    0 -0.14119721044E+02  0.49332296301E+01 -0.46142195413E+01  0.15652293736E+02  0.51100000000E-03 0.  1.
        -12    1    3    3    0    0  0.70524160874E+01  0.12630208169E+02 -0.20835252164E+02  0.25364669598E+02  0.00000000000E+00 0.  1.
</event>
<event>
 7    1  0.2991278E-011  0.5052885E+02  0.7816164E-02  0.1300439E+00
        -11   -1    0    0    0    0  0.00000000000E+00  0.00000000000E+00  0.45593999997E+02  0.45594000000E+02  0.51100000000E-03 0. -1.
         11   -1    0    0    0    0 -0.00000000000E+00 -0.00000000000E+00 -0.45593999997E+02  0.45594000000E+02  0.51100000000E-03 0.  1.
    9900012    2    1    2    0    0 -0.24248815413E+02  0.24682652740E+02 -0.21352476785E+02  0.50528847770E+02  0.29999963283E+02 0.  0.
         12    1    1    2    0    0  0.24248815413E+02 -0.24682652740E+02  0.21352476785E+02  0.40659152230E+02  0.00000000000E+00 0. -1.
         11    1    3    3    0    0 -0.20351951690E+02  0.21932902743E+02 -0.13078975295E+02  0.32654459961E+02  0.51100000000E-03 0. -1.
        -11    1    3    3    0    0  0.47473720194E+01 -0.28571745392E+01 -0.29184604305E+01  0.62624594996E+01  0.51100000000E-03 0.  1.
        -12    1    3    3    0    0 -0.86442357420E+01  0.56069245353E+01 -0.53550410599E+01  0.11611928309E+02  0.00000000000E+00 0.  1.
</event>
<event>
 7    1  0.2991278E-011  0.5052886E+02  0.7816164E-02  0.1300439E+00
        -11   -1    0    0    0    0  0.00000000000E+00  0.00000000000E+00  0.45593999997E+02  0.45594000000E+02  0.51100000000E-03 0.  1.
         11   -1    0    0    0    0 -0.00000000000E+00 -0.00000000000E+00 -0.45593999997E+02  0.45594000000E+02  0.51100000000E-03 0. -1.
    9900012    2    1    2    0    0 -0.32467718412E+02  0.16865780763E+02  0.17735795012E+02  0.50528859277E+02  0.29999998260E+02 0.  0.
         12    1    1    2    0    0  0.32467718412E+02 -0.16865780763E+02 -0.17735795012E+02  0.40659140723E+02  0.00000000000E+00 0. -1.
         11    1    3    3    0    0 -0.37940093858E+01  0.90705905967E+01  0.12091653803E+02  0.15584550457E+02  0.51100000000E-03 0.  1.
        -11    1    3    3    0    0 -0.19630285130E+02 -0.24192080357E+01 -0.92957171472E+00  0.19800625385E+02  0.51100000000E-03 0. -1.
         12    1    3    3    0    0 -0.90434238957E+01  0.10214398202E+02  0.65737129230E+01  0.15143683435E+02  0.00000000000E+00 0. -1.
</event>
<event>
 7    1  0.2991278E-011  0.5052886E+02  0.7816164E-02  0.1300439E+00
        -11   -1    0    0    0    0  0.00000000000E+00  0.00000000000E+00  0.45593999997E+02  0.45594000000E+02  0.51100000000E-03 0.  1.
         11   -1    0    0    0    0 -0.00000000000E+00 -0.00000000000E+00 -0.45593999997E+02  0.45594000000E+02  0.51100000000E-03 0. -1.
    9900012    2    1    2    0    0 -0.23994249332E+02 -0.28956804750E+02 -0.15457839814E+02  0.50528863830E+02  0.30000012098E+02 0.  0.
         12    1    1    2    0    0  0.23994249332E+02  0.28956804750E+02  0.15457839814E+02  0.40659136170E+02  0.00000000000E+00 0. -1.
         11    1    3    3    0    0 -0.89563487512E+01 -0.58323370335E+01 -0.14136873662E+02  0.17722402078E+02  0.51100000000E-03 0. -1.
        -11    1    3    3    0    0 -0.16900168792E+02 -0.17699366031E+02  0.42177947958E+01  0.24832902696E+02  0.51100000000E-03 0.  1.
        -12    1    3    3    0    0  0.18622682109E+01 -0.54251016858E+01 -0.55387609476E+01  0.79735590564E+01  0.00000000000E+00 0.  1.
</event>
<event>
 7    1  0.2991278E-011  0.5052880E+02  0.7816164E-02  0.1300439E+00
        -11   -1    0    0    0    0  0.00000000000E+00  0.00000000000E+00  0.45593999997E+02  0.45594000000E+02  0.51100000000E-03 0.  1.
         11   -1    0    0    0    0 -0.00000000000E+00 -0.00000000000E+00 -0.45593999997E+02  0.45594000000E+02  0.51100000000E-03 0. -1.
    9900012    2    1    2    0    0 -0.68043523764E+01 -0.39271807269E+02 -0.80371895063E+01  0.50528800886E+02  0.29999820773E+02 0.  0.
         12    1    1    2    0    0  0.68043523764E+01  0.39271807269E+02  0.80371895063E+01  0.40659199114E+02  0.00000000000E+00 0. -1.
         11    1    3    3    0    0 -0.64493851291E+01 -0.10743192312E+02 -0.16350208769E+02  0.20599516418E+02  0.51100000000E-03 0. -1.
        -11    1    3    3    0    0 -0.16520268227E+00 -0.13974685370E+02  0.22227449762E+01  0.14151315084E+02  0.51100000000E-03 0.  1.
         12    1    3    3    0    0 -0.18976456504E+00 -0.14553929586E+02  0.60902742865E+01  0.15777969384E+02  0.00000000000E+00 0. -1.
</event>
<event>
 7    1  0.2991278E-011  0.5052887E+02  0.7816164E-02  0.1300439E+00
        -11   -1    0    0    0    0  0.00000000000E+00  0.00000000000E+00  0.45593999997E+02  0.45594000000E+02  0.51100000000E-03 0.  1.
         11   -1    0    0    0    0 -0.00000000000E+00 -0.00000000000E+00 -0.45593999997E+02  0.45594000000E+02  0.51100000000E-03 0. -1.
    9900012    2    1    2    0    0  0.23984777909E+02  0.10457627993E+02  0.31121272587E+02  0.50528866192E+02  0.30000019277E+02 0.  0.
         12    1    1    2    0    0 -0.23984777909E+02 -0.10457627993E+02 -0.31121272587E+02  0.40659133808E+02  0.00000000000E+00 0. -1.
         11    1    3    3    0    0 -0.23065281000E+01  0.70431543185E+01  0.14990642022E+02  0.16722602762E+02  0.51100000000E-03 0. -1.
        -11    1    3    3    0    0  0.14424345217E+02 -0.10369659052E+01  0.16391482248E+01  0.14554169176E+02  0.51100000000E-03 0.  1.
        -12    1    3    3    0    0  0.11866960792E+02  0.44514395796E+01  0.14491482340E+02  0.19252094254E+02  0.00000000000E+00 0.  1.
</event>
<event>
 7    1  0.2991278E-011  0.5052887E+02  0.7816164E-02  0.1300439E+00
        -11   -1    0    0    0    0  0.00000000000E+00  0.00000000000E+00  0.45593999997E+02  0.45594000000E+02  0.51100000000E-03 0. -1.
         11   -1    0    0    0    0 -0.00000000000E+00 -0.00000000000E+00 -0.45593999997E+02  0.45594000000E+02  0.51100000000E-03 0.  1.
    9900012    2    1    2    0    0 -0.11656351997E+00  0.33900960970E+02  0.22447192356E+02  0.50528865892E+02  0.30000018365E+02 0.  0.
         12    1    1    2    0    0  0.11656351997E+00 -0.33900960970E+02 -0.22447192356E+02  0.40659134108E+02  0.00000000000E+00 0. -1.
         11    1    3    3    0    0  0.73178400523E+01 -0.18166629256E+01  0.16372605366E+01  0.77156768687E+01  0.51100000000E-03 0.  1.
        -11    1    3    3    0    0 -0.54549676761E+01  0.86984214657E+01  0.67832599517E+01  0.12305763860E+02  0.51100000000E-03 0. -1.
         12    1    3    3    0    0 -0.19794358961E+01  0.27019202430E+02  0.14026671868E+02  0.30507425163E+02  0.00000000000E+00 0. -1.
</event>
<event>
 7    1  0.2991278E-011  0.5052887E+02  0.7816164E-02  0.1300439E+00
        -11   -1    0    0    0    0  0.00000000000E+00  0.00000000000E+00  0.45593999997E+02  0.45594000000E+02  0.51100000000E-03 0.  1.
         11   -1    0    0    0    0 -0.00000000000E+00 -0.00000000000E+00 -0.45593999997E+02  0.45594000000E+02  0.51100000000E-03 0. -1.
    9900012    2    1    2    0    0 -0.95635392933E+01 -0.12956378135E+02  0.37334107133E+02  0.50528873428E+02  0.30000041271E+02 0.  0.
         12    1    1    2    0    0  0.95635392933E+01  0.12956378135E+02 -0.37334107133E+02  0.40659126572E+02  0.00000000000E+00 0. -1.
         11    1    3    3    0    0 -0.61064060225E+01 -0.12222632382E+02  0.85766969979E+01  0.16131976584E+02  0.51100000000E-03 0. -1.
        -11    1    3    3    0    0  0.37003616408E-01  0.16176468665E+00  0.30423278265E+02  0.30423730832E+02  0.51100000000E-03 0.  1.
        -12    1    3    3    0    0 -0.34941368872E+01 -0.89551043938E+00 -0.16658681294E+01  0.39731660119E+01  0.00000000000E+00 0.  1.
</event>
<event>
 7    1  0.2991278E-011  0.5052885E+02  0.7816164E-02  0.1300439E+00
        -11   -1    0    0    0    0  0.00000000000E+00  0.00000000000E+00  0.45593999997E+02  0.45594000000E+02  0.51100000000E-03 0.  1.
         11   -1    0    0    0    0 -0.00000000000E+00 -0.00000000000E+00 -0.45593999997E+02  0.45594000000E+02  0.51100000000E-03 0. -1.
    9900012    2    1    2    0    0  0.30027186453E+02 -0.27255750476E+02  0.29424928041E+01  0.50528854360E+02  0.29999983311E+02 0.  0.
         12    1    1    2    0    0 -0.30027186453E+02  0.27255750476E+02 -0.29424928041E+01  0.40659145640E+02  0.00000000000E+00 0. -1.
         11    1    3    3    0    0  0.26944188378E+02 -0.27939104174E+02  0.28601584436E+01  0.38919960637E+02  0.51100000000E-03 0.  1.
        -11    1    3    3    0    0 -0.35677649104E+01 -0.20151331394E+01  0.13628009263E+01  0.43182096581E+01  0.51100000000E-03 0. -1.
         12    1    3    3    0    0  0.66507629855E+01  0.26984868375E+01 -0.12804665657E+01  0.72906840644E+01  0.00000000000E+00 0. -1.
</event>
<event>
 7    1  0.2991278E-011  0.5052889E+02  0.7816164E-02  0.1300439E+00
        -11   -1    0    0    0    0  0.00000000000E+00  0.00000000000E+00  0.45593999997E+02  0.45594000000E+02  0.51100000000E-03 0.  1.
         11   -1    0    0    0    0 -0.00000000000E+00 -0.00000000000E+00 -0.45593999997E+02  0.45594000000E+02  0.51100000000E-03 0. -1.
    9900012    2    1    2    0    0 -0.12753835852E+02 -0.23379618734E+02  0.30722895108E+02  0.50528890505E+02  0.30000093178E+02 0.  0.
         12    1    1    2    0    0  0.12753835852E+02  0.23379618734E+02 -0.30722895108E+02  0.40659109495E+02  0.00000000000E+00 0. -1.
         11    1    3    3    0    0 -0.13644101377E+01 -0.91863240660E+01  0.20055116606E+02  0.22101082942E+02  0.51100000000E-03 0. -1.
        -11    1    3    3    0    0 -0.88512857180E+01 -0.40078294909E+01 -0.39019256337E+01  0.10470576871E+02  0.51100000000E-03 0.  1.
        -12    1    3    3    0    0 -0.25381399965E+01 -0.10185465177E+02  0.14569704136E+02  0.17957230692E+02  0.00000000000E+00 0.  1.
</event>
<event>
 7    1  0.2991278E-011  0.5052884E+02  0.7816164E-02  0.1300439E+00
        -11   -1    0    0    0    0  0.00000000000E+00  0.00000000000E+00  0.45593999997E+02  0.45594000000E+02  0.51100000000E-03 0.  1.
         11   -1    0    0    0    0 -0.00000000000E+00 -0.00000000000E+00 -0.45593999997E+02  0.45594000000E+02  0.51100000000E-03 0. -1.
    9900012    2    1    2    0    0  0.24540715969E+02  0.30631979512E+02  0.10611426512E+02  0.50528840125E+02  0.29999940044E+02 0.  0.
         12    1    1    2    0    0 -0.24540715969E+02 -0.30631979512E+02 -0.10611426512E+02  0.40659159875E+02  0.00000000000E+00 0. -1.
         11    1    3    3    0    0  0.97047804757E+01  0.29939954528E+02  0.14513908591E+01  0.31506986161E+02  0.51100000000E-03 0. -1.
        -11    1    3    3    0    0  0.27604636976E+01 -0.28570625521E+01  0.31721900768E+01  0.50838721853E+01  0.51100000000E-03 0.  1.
         12    1    3    3    0    0  0.12075471796E+02  0.35490875358E+01  0.59878455756E+01  0.13937981779E+02  0.00000000000E+00 0. -1.
</event>
<event>
 7    1  0.2991278E-011  0.5052883E+02  0.7816164E-02  0.1300439E+00
        -11   -1    0    0    0    0  0.00000000000E+00  0.00000000000E+00  0.45593999997E+02  0.45594000000E+02  0.51100000000E-03 0.  1.
         11   -1    0    0    0    0 -0.00000000000E+00 -0.00000000000E+00 -0.45593999997E+02  0.45594000000E+02  0.51100000000E-03 0. -1.
    9900012    2    1    2    0    0  0.33081086356E+02 -0.23454369261E+02 -0.29499234433E+01  0.50528834240E+02  0.29999922156E+02 0.  0.
         12    1    1    2    0    0 -0.33081086356E+02  0.23454369261E+02  0.29499234433E+01  0.40659165760E+02  0.00000000000E+00 0. -1.
         11    1    3    3    0    0 -0.15165189269E+01 -0.12078817344E+02 -0.43317529565E+01  0.12921367653E+02  0.51100000000E-03 0. -1.
        -11    1    3    3    0    0  0.96546729348E+01 -0.69061292489E+00  0.37248682545E+01  0.10371321009E+02  0.51100000000E-03 0.  1.
         12    1    3    3    0    0  0.24942932349E+02 -0.10684938992E+02 -0.23430387413E+01  0.27236145578E+02  0.00000000000E+00 0. -1.
</event>
<event>
 7    1  0.2991278E-011  0.5052886E+02  0.7816164E-02  0.1300439E+00
        -11   -1    0    0    0    0  0.00000000000E+00  0.00000000000E+00  0.45593999997E+02  0.45594000000E+02  0.51100000000E-03 0.  1.
         11   -1    0    0    0    0 -0.00000000000E+00 -0.00000000000E+00 -0.45593999997E+02  0.45594000000E+02  0.51100000000E-03 0. -1.
    9900012    2    1    2    0    0 -0.86204053258E+01 -0.25206502297E+02  0.30716224733E+02  0.50528860709E+02  0.30000002612E+02 0.  0.
         12    1    1    2    0    0  0.86204053258E+01  0.25206502297E+02 -0.30716224733E+02  0.40659139291E+02  0.00000000000E+00 0. -1.
         11    1    3    3    0    0  0.85605869818E+01 -0.87813872077E+01  0.56733031299E+01  0.13512319543E+02  0.51100000000E-03 0. -1.
        -11    1    3    3    0    0 -0.70206454705E+01 -0.14875672556E+02  0.18846592224E+02  0.25015377982E+02  0.51100000000E-03 0.  1.
        -12    1    3    3    0    0 -0.10160346837E+02 -0.15494425326E+01  0.61963293788E+01  0.12001163185E+02  0.00000000000E+00 0.  1.
</event>
<event>
 7    1  0.2991278E-011  0.5052886E+02  0.7816164E-02  0.1300439E+00
        -11   -1    0    0    0    0  0.00000000000E+00  0.00000000000E+00  0.45593999997E+02  0.45594000000E+02  0.51100000000E-03 0.  1.
         11   -1    0    0    0    0 -0.00000000000E+00 -0.00000000000E+00 -0.45593999997E+02  0.45594000000E+02  0.51100000000E-03 0. -1.
    9900012    2    1    2    0    0 -0.14537373955E+02  0.16501149835E+02  0.34198574228E+02  0.50528859987E+02  0.30000000417E+02 0.  0.
         12    1    1    2    0    0  0.14537373955E+02 -0.16501149835E+02 -0.34198574228E+02  0.40659140013E+02  0.00000000000E+00 0. -1.
         11    1    3    3    0    0 -0.11559396458E+02  0.62670617569E+01  0.24839455951E+01  0.13381543092E+02  0.51100000000E-03 0. -1.
        -11    1    3    3    0    0 -0.61803187746E+00  0.14171648751E+02  0.27366292966E+02  0.30824204494E+02  0.51100000000E-03 0.  1.
        -12    1    3    3    0    0 -0.23599456190E+01 -0.39375606723E+01  0.43483356668E+01  0.63231124017E+01  0.00000000000E+00 0.  1.
</event>
<event>
 7    1  0.2991278E-011  0.5052887E+02  0.7816164E-02  0.1300439E+00
        -11   -1    0    0    0    0  0.00000000000E+00  0.00000000000E+00  0.45593999997E+02  0.45594000000E+02  0.51100000000E-03 0.  1.
         11   -1    0    0    0    0 -0.00000000000E+00 -0.00000000000E+00 -0.45593999997E+02  0.45594000000E+02  0.51100000000E-03 0. -1.
    9900012    2    1    2    0    0  0.12671814317E+02  0.32215923246E+02  0.21324268130E+02  0.50528868185E+02  0.30000025334E+02 0.  0.
         12    1    1    2    0    0 -0.12671814317E+02 -0.32215923246E+02 -0.21324268130E+02  0.40659131815E+02  0.00000000000E+00 0. -1.
         11    1    3    3    0    0 -0.18805993169E+01  0.18762174491E+02  0.24599002520E+01  0.19015965790E+02  0.51100000000E-03 0.  1.
        -11    1    3    3    0    0 -0.29514546372E+00 -0.47632801049E-01  0.92598320086E+01  0.92646569724E+01  0.51100000000E-03 0. -1.
         12    1    3    3    0    0  0.14847559098E+02  0.13501381556E+02  0.96045358698E+01  0.22248245422E+02  0.00000000000E+00 0. -1.
</event>
<event>
 7    1  0.2991278E-011  0.5052887E+02  0.7816164E-02  0.1300439E+00
        -11   -1    0    0    0    0  0.00000000000E+00  0.00000000000E+00  0.45593999997E+02  0.45594000000E+02  0.51100000000E-03 0.  1.
         11   -1    0    0    0    0 -0.00000000000E+00 -0.00000000000E+00 -0.45593999997E+02  0.45594000000E+02  0.51100000000E-03 0. -1.
    9900012    2    1    2    0    0 -0.38700142518E+01 -0.32863957589E+01  0.40340889804E+02  0.50528870674E+02  0.30000032901E+02 0.  0.
         12    1    1    2    0    0  0.38700142518E+01  0.32863957589E+01 -0.40340889804E+02  0.40659129326E+02  0.00000000000E+00 0. -1.
         11    1    3    3    0    0 -0.57553861918E+01  0.74656192577E+01  0.29913487363E+01  0.98897982103E+01  0.51100000000E-03 0. -1.
        -11    1    3    3    0    0 -0.25311290278E+01 -0.84456744751E+01  0.32542596630E+02  0.33715821615E+02  0.51100000000E-03 0.  1.
        -12    1    3    3    0    0  0.44165009678E+01 -0.23063405415E+01  0.48069444373E+01  0.69232508488E+01  0.00000000000E+00 0.  1.
</event>
<event>
 7    1  0.2991278E-011  0.5052885E+02  0.7816164E-02  0.1300439E+00
        -11   -1    0    0    0    0  0.00000000000E+00  0.00000000000E+00  0.45593999997E+02  0.45594000000E+02  0.51100000000E-03 0.  1.
         11   -1    0    0    0    0 -0.00000000000E+00 -0.00000000000E+00 -0.45593999997E+02  0.45594000000E+02  0.51100000000E-03 0. -1.
    9900012    2    1    2    0    0  0.37145135189E+02 -0.11743876692E+02  0.11639873740E+02  0.50528851353E+02  0.29999974174E+02 0.  0.
         12    1    1    2    0    0 -0.37145135189E+02  0.11743876692E+02 -0.11639873740E+02  0.40659148647E+02  0.00000000000E+00 0. -1.
         11    1    3    3    0    0  0.51366966954E+00 -0.41428118227E+01 -0.64006494959E+01  0.76416660852E+01  0.51100000000E-03 0. -1.
        -11    1    3    3    0    0  0.27088015354E+02 -0.10248744934E+02  0.14305368757E+02  0.32302336202E+02  0.51100000000E-03 0.  1.
         12    1    3    3    0    0  0.95434501654E+01  0.26476800644E+01  0.37351544791E+01  0.10584849067E+02  0.00000000000E+00 0. -1.
</event>
<event>
 7    1  0.2991278E-011  0.5052889E+02  0.7816164E-02  0.1300439E+00
        -11   -1    0    0    0    0  0.00000000000E+00  0.00000000000E+00  0.45593999997E+02  0.45594000000E+02  0.51100000000E-03 0.  1.
         11   -1    0    0    0    0 -0.00000000000E+00 -0.00000000000E+00 -0.45593999997E+02  0.45594000000E+02  0.51100000000E-03 0. -1.
    9900012    2    1    2    0    0  0.85971491281E+01 -0.17691929063E+02  0.35584375425E+02  0.50528891532E+02  0.30000096299E+02 0.  0.
         12    1    1    2    0    0 -0.85971491281E+01  0.17691929063E+02 -0.35584375425E+02  0.40659108468E+02  0.00000000000E+00 0. -1.
         11    1    3    3    0    0 -0.80857314714E+01 -0.92881458333E+01  0.56577416815E+01  0.13552075400E+02  0.51100000000E-03 0. -1.
        -11    1    3    3    0    0  0.17613360326E+02 -0.53731561522E+01  0.26858534544E+02  0.32565044867E+02  0.51100000000E-03 0.  1.
        -12    1    3    3    0    0 -0.93047972696E+00 -0.30306270771E+01  0.30680991986E+01  0.44117712651E+01  0.00000000000E+00 0.  1.
</event>
<event>
 7    1  0.2991278E-011  0.5052886E+02  0.7816164E-02  0.1300439E+00
        -11   -1    0    0    0    0  0.00000000000E+00  0.00000000000E+00  0.45593999997E+02  0.45594000000E+02  0.51100000000E-03 0. -1.
         11   -1    0    0    0    0 -0.00000000000E+00 -0.00000000000E+00 -0.45593999997E+02  0.45594000000E+02  0.51100000000E-03 0.  1.
    9900012    2    1    2    0    0  0.11133797072E+02 -0.33589487295E+02 -0.20023752352E+02  0.50528858934E+02  0.29999997214E+02 0.  0.
         12    1    1    2    0    0 -0.11133797072E+02  0.33589487295E+02  0.20023752352E+02  0.40659141066E+02  0.00000000000E+00 0. -1.
         11    1    3    3    0    0 -0.37756497121E+01 -0.91578866601E-01  0.20323754758E+01  0.42888772159E+01  0.51100000000E-03 0. -1.
        -11    1    3    3    0    0  0.10344755178E+02 -0.34273059542E+02 -0.20950090059E+02  0.41479667836E+02  0.51100000000E-03 0.  1.
        -12    1    3    3    0    0  0.45646916061E+01  0.77515111292E+00 -0.11060377690E+01  0.47603138818E+01  0.00000000000E+00 0.  1.
</event>
<event>
 7    1  0.2991278E-011  0.5052888E+02  0.7816164E-02  0.1300439E+00
        -11   -1    0    0    0    0  0.00000000000E+00  0.00000000000E+00  0.45593999997E+02  0.45594000000E+02  0.51100000000E-03 0.  1.
         11   -1    0    0    0    0 -0.00000000000E+00 -0.00000000000E+00 -0.45593999997E+02  0.45594000000E+02  0.51100000000E-03 0. -1.
    9900012    2    1    2    0    0 -0.10288493681E+02 -0.39123398660E+01  0.39140832686E+02  0.50528876930E+02  0.30000051917E+02 0.  0.
         12    1    1    2    0    0  0.10288493681E+02  0.39123398660E+01 -0.39140832686E+02  0.40659123070E+02  0.00000000000E+00 0. -1.
         11    1    3    3    0    0  0.46985952276E+00  0.79222549518E+01  0.14282667526E+02  0.16339445628E+02  0.51100000000E-03 0. -1.
        -11    1    3    3    0    0 -0.10990689169E+02 -0.17809834596E+01  0.20290120162E+02  0.23144246088E+02  0.51100000000E-03 0.  1.
         12    1    3    3    0    0  0.23233596555E+00 -0.10053611358E+02  0.45680449974E+01  0.11045185215E+02  0.00000000000E+00 0. -1.
</event>
<event>
 7    1  0.2991278E-011  0.5052887E+02  0.7816164E-02  0.1300439E+00
        -11   -1    0    0    0    0  0.00000000000E+00  0.00000000000E+00  0.45593999997E+02  0.45594000000E+02  0.51100000000E-03 0.  1.
         11   -1    0    0    0    0 -0.00000000000E+00 -0.00000000000E+00 -0.45593999997E+02  0.45594000000E+02  0.51100000000E-03 0. -1.
    9900012    2    1    2    0    0  0.97675130447E+01  0.38463434467E+02 -0.88501212553E+01  0.50528871280E+02  0.30000034742E+02 0.  0.
         12    1    1    2    0    0 -0.97675130447E+01 -0.38463434467E+02  0.88501212553E+01  0.40659128720E+02  0.00000000000E+00 0. -1.
         11    1    3    3    0    0  0.17731847120E+02  0.30712865662E+02 -0.84939411412E+01  0.36467047533E+02  0.51100000000E-03 0. -1.
        -11    1    3    3    0    0 -0.79063086402E+01  0.25676882934E+01 -0.21337443524E+01  0.85822843526E+01  0.51100000000E-03 0.  1.
        -12    1    3    3    0    0 -0.58025434908E-01  0.51828805116E+01  0.17775642384E+01  0.54795393940E+01  0.00000000000E+00 0.  1.
</event>
<event>
 7    1  0.2991278E-011  0.5052886E+02  0.7816164E-02  0.1300439E+00
        -11   -1    0    0    0    0  0.00000000000E+00  0.00000000000E+00  0.45593999997E+02  0.45594000000E+02  0.51100000000E-03 0. -1.
         11   -1    0    0    0    0 -0.00000000000E+00 -0.00000000000E+00 -0.45593999997E+02  0.45594000000E+02  0.51100000000E-03 0.  1.
    9900012    2    1    2    0    0  0.21446188657E+02  0.74345927715E+01 -0.33733567209E+02  0.50528859156E+02  0.29999997890E+02 0.  0.
         12    1    1    2    0    0 -0.21446188657E+02 -0.74345927715E+01  0.33733567209E+02  0.40659140844E+02  0.00000000000E+00 0. -1.
         11    1    3    3    0    0  0.45647676891E+01 -0.35364524430E+01 -0.18650172024E+01  0.60681042644E+01  0.51100000000E-03 0. -1.
        -11    1    3    3    0    0  0.35508749207E+01  0.51695139165E+01 -0.28963958635E+02  0.29635173137E+02  0.51100000000E-03 0.  1.
        -12    1    3    3    0    0  0.13330546047E+02  0.58015312980E+01 -0.29045913715E+01  0.14825581754E+02  0.00000000000E+00 0.  1.
</event>
<event>
 7    1  0.2991278E-011  0.5052885E+02  0.7816164E-02  0.1300439E+00
        -11   -1    0    0    0    0  0.00000000000E+00  0.00000000000E+00  0.45593999997E+02  0.45594000000E+02  0.51100000000E-03 0.  1.
         11   -1    0    0    0    0 -0.00000000000E+00 -0.00000000000E+00 -0.45593999997E+02  0.45594000000E+02  0.51100000000E-03 0. -1.
    9900012    2    1    2    0    0  0.15618523979E+02 -0.37324663942E+02  0.40121400842E+01  0.50528854686E+02  0.29999984302E+02 0.  0.
         12    1    1    2    0    0 -0.15618523979E+02  0.37324663942E+02 -0.40121400842E+01  0.40659145314E+02  0.00000000000E+00 0. -1.
         11    1    3    3    0    0  0.10568952805E+02 -0.11645872864E+02  0.41181673789E+01  0.16256949928E+02  0.51100000000E-03 0. -1.
        -11    1    3    3    0    0  0.14541004752E+01 -0.28238702679E+02 -0.37820022720E+01  0.28527921036E+02  0.51100000000E-03 0.  1.
        -12    1    3    3    0    0  0.35954706991E+01  0.25599116014E+01  0.36759749772E+01  0.57439837211E+01  0.00000000000E+00 0.  1.
</event>
<event>
 7    1  0.2991278E-011  0.5052882E+02  0.7816164E-02  0.1300439E+00
        -11   -1    0    0    0    0  0.00000000000E+00  0.00000000000E+00  0.45593999997E+02  0.45594000000E+02  0.51100000000E-03 0. -1.
         11   -1    0    0    0    0 -0.00000000000E+00 -0.00000000000E+00 -0.45593999997E+02  0.45594000000E+02  0.51100000000E-03 0.  1.
    9900012    2    1    2    0    0  0.18644233071E+01  0.40514233878E+02 -0.28791186717E+01  0.50528824586E+02  0.29999892813E+02 0.  0.
         12    1    1    2    0    0 -0.18644233071E+01 -0.40514233878E+02  0.28791186717E+01  0.40659175414E+02  0.00000000000E+00 0. -1.
         11    1    3    3    0    0 -0.10465083217E+01 -0.41988087161E+01  0.30119615529E+01  0.52722942785E+01  0.51100000000E-03 0. -1.
        -11    1    3    3    0    0  0.26109610915E+01  0.23116796751E+02 -0.25929782224E+01  0.23407839417E+02  0.51100000000E-03 0.  1.
         12    1    3    3    0    0  0.29997053723E+00  0.21596245843E+02 -0.32981020021E+01  0.21848690891E+02  0.00000000000E+00 0. -1.
</event>
<event>
 7    1  0.2991278E-011  0.5052886E+02  0.7816164E-02  0.1300439E+00
        -11   -1    0    0    0    0  0.00000000000E+00  0.00000000000E+00  0.45593999997E+02  0.45594000000E+02  0.51100000000E-03 0.  1.
         11   -1    0    0    0    0 -0.00000000000E+00 -0.00000000000E+00 -0.45593999997E+02  0.45594000000E+02  0.51100000000E-03 0. -1.
    9900012    2    1    2    0    0 -0.30132511942E+02  0.16319076574E+02  0.21883446723E+02  0.50528858634E+02  0.29999996304E+02 0.  0.
         12    1    1    2    0    0  0.30132511942E+02 -0.16319076574E+02 -0.21883446723E+02  0.40659141366E+02  0.00000000000E+00 0. -1.
         11    1    3    3    0    0  0.11693845851E+01  0.99049633580E+01 -0.80342130586E+00  0.10006060438E+02  0.51100000000E-03 0. -1.
        -11    1    3    3    0    0 -0.20549751737E+02  0.55049628878E+00  0.18273362378E+02  0.27504747145E+02  0.51100000000E-03 0.  1.
        -12    1    3    3    0    0 -0.10752144790E+02  0.58636169270E+01  0.44135056507E+01  0.13018051051E+02  0.00000000000E+00 0.  1.
</event>
<event>
 7    1  0.2991278E-011  0.5052884E+02  0.7816164E-02  0.1300439E+00
        -11   -1    0    0    0    0  0.00000000000E+00  0.00000000000E+00  0.45593999997E+02  0.45594000000E+02  0.51100000000E-03 0.  1.
         11   -1    0    0    0    0 -0.00000000000E+00 -0.00000000000E+00 -0.45593999997E+02  0.45594000000E+02  0.51100000000E-03 0. -1.
    9900012    2    1    2    0    0 -0.23802814367E+02 -0.13756914180E+02  0.29955645261E+02  0.50528839377E+02  0.29999937771E+02 0.  0.
         12    1    1    2    0    0  0.23802814367E+02  0.13756914180E+02 -0.29955645261E+02  0.40659160623E+02  0.00000000000E+00 0. -1.
         11    1    3    3    0    0  0.95095826744E+00 -0.46511303870E+01 -0.41651571280E+00  0.47655871730E+01  0.51100000000E-03 0. -1.
        -11    1    3    3    0    0 -0.22085429456E+02 -0.15036499069E+02  0.28342059259E+02  0.38950414912E+02  0.51100000000E-03 0.  1.
        -12    1    3    3    0    0 -0.26683431784E+01  0.59307152760E+01  0.20301017151E+01  0.68128372927E+01  0.00000000000E+00 0.  1.
</event>
<event>
 7    1  0.2991278E-011  0.5052887E+02  0.7816164E-02  0.1300439E+00
        -11   -1    0    0    0    0  0.00000000000E+00  0.00000000000E+00  0.45593999997E+02  0.45594000000E+02  0.51100000000E-03 0.  1.
         11   -1    0    0    0    0 -0.00000000000E+00 -0.00000000000E+00 -0.45593999997E+02  0.45594000000E+02  0.51100000000E-03 0. -1.
    9900012    2    1    2    0    0 -0.38000899499E+02  0.12240499207E+02  0.76984805208E+01  0.50528870817E+02  0.30000033335E+02 0.  0.
         12    1    1    2    0    0  0.38000899499E+02 -0.12240499207E+02 -0.76984805208E+01  0.40659129183E+02  0.00000000000E+00 0. -1.
         11    1    3    3    0    0  0.36505357831E+01 -0.27547748527E+01  0.30470375638E+01  0.54954193806E+01  0.51100000000E-03 0. -1.
        -11    1    3    3    0    0 -0.31246020523E+02  0.83022153569E+01  0.20807499647E+01  0.32397069297E+02  0.51100000000E-03 0.  1.
         12    1    3    3    0    0 -0.10405414760E+02  0.66930587028E+01  0.25706929923E+01  0.12636382140E+02  0.00000000000E+00 0. -1.
</event>
<event>
 7    1  0.2991278E-011  0.5052886E+02  0.7816164E-02  0.1300439E+00
        -11   -1    0    0    0    0  0.00000000000E+00  0.00000000000E+00  0.45593999997E+02  0.45594000000E+02  0.51100000000E-03 0. -1.
         11   -1    0    0    0    0 -0.00000000000E+00 -0.00000000000E+00 -0.45593999997E+02  0.45594000000E+02  0.51100000000E-03 0.  1.
    9900012    2    1    2    0    0  0.42152823677E+01  0.21053399899E+02 -0.34527543603E+02  0.50528861790E+02  0.30000005897E+02 0.  0.
         12    1    1    2    0    0 -0.42152823677E+01 -0.21053399899E+02  0.34527543603E+02  0.40659138210E+02  0.00000000000E+00 0. -1.
         11    1    3    3    0    0  0.33544833267E+01  0.97091421224E+01 -0.51529289510E+01  0.11492287683E+02  0.51100000000E-03 0. -1.
        -11    1    3    3    0    0  0.83708630458E+01  0.11571262589E+01 -0.23709340795E+02  0.25170282686E+02  0.51100000000E-03 0.  1.
        -12    1    3    3    0    0 -0.75100640049E+01  0.10187131517E+02 -0.56652738572E+01  0.13866291422E+02  0.00000000000E+00 0.  1.
</event>
<event>
 7    1  0.2991278E-011  0.5052890E+02  0.7816164E-02  0.1300439E+00
        -11   -1    0    0    0    0  0.00000000000E+00  0.00000000000E+00  0.45593999997E+02  0.45594000000E+02  0.51100000000E-03 0.  1.
         11   -1    0    0    0    0 -0.00000000000E+00 -0.00000000000E+00 -0.45593999997E+02  0.45594000000E+02  0.51100000000E-03 0. -1.
    9900012    2    1    2    0    0 -0.10603765233E+02 -0.78543051490E+01  0.38458185875E+02  0.50528904986E+02  0.30000137196E+02 0.  0.
         12    1    1    2    0    0  0.10603765233E+02  0.78543051490E+01 -0.38458185875E+02  0.40659095014E+02  0.00000000000E+00 0. -1.
         11    1    3    3    0    0 -0.80500747342E+01  0.79257212740E+01  0.75588350923E+01  0.13592525488E+02  0.51100000000E-03 0. -1.
        -11    1    3    3    0    0 -0.45977252458E+01 -0.14737571217E+02  0.17476082952E+02  0.23318416722E+02  0.51100000000E-03 0.  1.
        -12    1    3    3    0    0  0.20440347468E+01 -0.10424552059E+01  0.13423267831E+02  0.13617962776E+02  0.00000000000E+00 0.  1.
</event>
<event>
 7    1  0.2991278E-011  0.5052885E+02  0.7816164E-02  0.1300439E+00
        -11   -1    0    0    0    0  0.00000000000E+00  0.00000000000E+00  0.45593999997E+02  0.45594000000E+02  0.51100000000E-03 0.  1.
         11   -1    0    0    0    0 -0.00000000000E+00 -0.00000000000E+00 -0.45593999997E+02  0.45594000000E+02  0.51100000000E-03 0. -1.
    9900012    2    1    2    0    0 -0.53269307294E+01 -0.61359140498E+00  0.40304012780E+02  0.50528854269E+02  0.29999983036E+02 0.  0.
         12    1    1    2    0    0  0.53269307294E+01  0.61359140498E+00 -0.40304012780E+02  0.40659145731E+02  0.00000000000E+00 0. -1.
         11    1    3    3    0    0 -0.13788289705E+01  0.13286694969E+02  0.12828790540E+02  0.18520672220E+02  0.51100000000E-03 0. -1.
        -11    1    3    3    0    0 -0.45375559802E+01 -0.14722147723E+02  0.25939580913E+02  0.30169403475E+02  0.51100000000E-03 0.  1.
        -12    1    3    3    0    0  0.58945422126E+00  0.82186134914E+00  0.15356413276E+01  0.18387785737E+01  0.00000000000E+00 0.  1.
</event>
<event>
 7    1  0.2991278E-011  0.5052886E+02  0.7816164E-02  0.1300439E+00
        -11   -1    0    0    0    0  0.00000000000E+00  0.00000000000E+00  0.45593999997E+02  0.45594000000E+02  0.51100000000E-03 0.  1.
         11   -1    0    0    0    0 -0.00000000000E+00 -0.00000000000E+00 -0.45593999997E+02  0.45594000000E+02  0.51100000000E-03 0. -1.
    9900012    2    1    2    0    0  0.38705833674E+02 -0.21819355508E+01  0.12258203935E+02  0.50528856295E+02  0.29999989194E+02 0.  0.
         12    1    1    2    0    0 -0.38705833674E+02  0.21819355508E+01 -0.12258203935E+02  0.40659143705E+02  0.00000000000E+00 0. -1.
         11    1    3    3    0    0  0.12159260871E+02 -0.96385070278E+00 -0.81693892353E+01  0.14680448013E+02  0.51100000000E-03 0. -1.
        -11    1    3    3    0    0  0.19030393746E+02  0.49935223532E+01  0.14454533689E+02  0.24413617020E+02  0.51100000000E-03 0.  1.
        -12    1    3    3    0    0  0.75161790569E+01 -0.62116072012E+01  0.59730594812E+01  0.11434791262E+02  0.00000000000E+00 0.  1.
</event>
<event>
 7    1  0.2991278E-011  0.5052887E+02  0.7816164E-02  0.1300439E+00
        -11   -1    0    0    0    0  0.00000000000E+00  0.00000000000E+00  0.45593999997E+02  0.45594000000E+02  0.51100000000E-03 0. -1.
         11   -1    0    0    0    0 -0.00000000000E+00 -0.00000000000E+00 -0.45593999997E+02  0.45594000000E+02  0.51100000000E-03 0.  1.
    9900012    2    1    2    0    0 -0.38567624698E+02 -0.95762272150E+01  0.86022634741E+01  0.50528871389E+02  0.30000035075E+02 0.  0.
         12    1    1    2    0    0  0.38567624698E+02  0.95762272150E+01 -0.86022634741E+01  0.40659128611E+02  0.00000000000E+00 0. -1.
         11    1    3    3    0    0 -0.16349192545E+02  0.64545762461E+01 -0.24686334819E+01  0.17749698671E+02  0.51100000000E-03 0. -1.
        -11    1    3    3    0    0 -0.22827865892E+02 -0.16710526240E+02  0.77468070335E+01  0.29331999043E+02  0.51100000000E-03 0.  1.
         12    1    3    3    0    0  0.60943373839E+00  0.67972277861E+00  0.33240899224E+01  0.34471736756E+01  0.00000000000E+00 0. -1.
</event>
<event>
 7    1  0.2991278E-011  0.5052890E+02  0.7816164E-02  0.1300439E+00
        -11   -1    0    0    0    0  0.00000000000E+00  0.00000000000E+00  0.45593999997E+02  0.45594000000E+02  0.51100000000E-03 0.  1.
         11   -1    0    0    0    0 -0.00000000000E+00 -0.00000000000E+00 -0.45593999997E+02  0.45594000000E+02  0.51100000000E-03 0. -1.
    9900012    2    1    2    0    0 -0.21736526769E+02 -0.48050370647E+01  0.34023479609E+02  0.50528903332E+02  0.30000132168E+02 0.  0.
         12    1    1    2    0    0  0.21736526769E+02  0.48050370647E+01 -0.34023479609E+02  0.40659096668E+02  0.00000000000E+00 0. -1.
         11    1    3    3    0    0 -0.43193747759E+01 -0.54496172371E+01  0.68006143668E+00  0.69869743312E+01  0.51100000000E-03 0. -1.
        -11    1    3    3    0    0 -0.79073286084E+01  0.71572011911E+01  0.29942761256E+01  0.11077773440E+02  0.51100000000E-03 0.  1.
        -12    1    3    3    0    0 -0.95098233847E+01 -0.65126210187E+01  0.30349142046E+02  0.32464155561E+02  0.00000000000E+00 0.  1.
</event>
<event>
 7    1  0.2991278E-011  0.5052886E+02  0.7816164E-02  0.1300439E+00
        -11   -1    0    0    0    0  0.00000000000E+00  0.00000000000E+00  0.45593999997E+02  0.45594000000E+02  0.51100000000E-03 0.  1.
         11   -1    0    0    0    0 -0.00000000000E+00 -0.00000000000E+00 -0.45593999997E+02  0.45594000000E+02  0.51100000000E-03 0. -1.
    9900012    2    1    2    0    0  0.51232138337E+01  0.18743496690E+02  0.35715538559E+02  0.50528859789E+02  0.29999999814E+02 0.  0.
         12    1    1    2    0    0 -0.51232138337E+01 -0.18743496690E+02 -0.35715538559E+02  0.40659140211E+02  0.00000000000E+00 0. -1.
         11    1    3    3    0    0  0.78197357691E+01  0.18961243592E+02  0.14410071815E+02  0.25066455593E+02  0.51100000000E-03 0. -1.
        -11    1    3    3    0    0 -0.52235325213E+00 -0.26710360084E+01  0.21952951381E+02  0.22121016271E+02  0.51100000000E-03 0.  1.
         12    1    3    3    0    0 -0.21741686833E+01  0.24532891072E+01 -0.64748463697E+00  0.33413879245E+01  0.00000000000E+00 0. -1.
</event>
<event>
 7    1  0.2991278E-011  0.5052885E+02  0.7816164E-02  0.1300439E+00
        -11   -1    0    0    0    0  0.00000000000E+00  0.00000000000E+00  0.45593999997E+02  0.45594000000E+02  0.51100000000E-03 0.  1.
         11   -1    0    0    0    0 -0.00000000000E+00 -0.00000000000E+00 -0.45593999997E+02  0.45594000000E+02  0.51100000000E-03 0. -1.
    9900012    2    1    2    0    0  0.36606667901E+02  0.95179567434E+01  0.14917320890E+02  0.50528854683E+02  0.29999984293E+02 0.  0.
         12    1    1    2    0    0 -0.36606667901E+02 -0.95179567434E+01 -0.14917320890E+02  0.40659145317E+02  0.00000000000E+00 0. -1.
         11    1    3    3    0    0  0.43299894093E+01  0.89274167783E+01 -0.15559905368E+00  0.99232953169E+01  0.51100000000E-03 0. -1.
        -11    1    3    3    0    0  0.97316586729E+01 -0.73252680885E+01  0.10908335456E+02  0.16351040205E+02  0.51100000000E-03 0.  1.
        -12    1    3    3    0    0  0.22545019819E+02  0.79158080536E+01  0.41645844874E+01  0.24254519161E+02  0.00000000000E+00 0.  1.
</event>
<event>
 7    1  0.2991278E-011  0.5052885E+02  0.7816164E-02  0.1300439E+00
        -11   -1    0    0    0    0  0.00000000000E+00  0.00000000000E+00  0.45593999997E+02  0.45594000000E+02  0.51100000000E-03 0. -1.
         11   -1    0    0    0    0 -0.00000000000E+00 -0.00000000000E+00 -0.45593999997E+02  0.45594000000E+02  0.51100000000E-03 0.  1.
    9900012    2    1    2    0    0  0.22617253172E+02 -0.33573705551E+02  0.37990263742E+01  0.50528850391E+02  0.29999971250E+02 0.  0.
         12    1    1    2    0    0 -0.22617253172E+02  0.33573705551E+02 -0.37990263742E+01  0.40659149609E+02  0.00000000000E+00 0. -1.
         11    1    3    3    0    0  0.89593670929E+01 -0.13105598690E+02  0.11040893950E+02  0.19337226151E+02  0.51100000000E-03 0. -1.
        -11    1    3    3    0    0  0.15371027577E+02 -0.80161534639E+01 -0.67784751710E+01  0.18613837086E+02  0.51100000000E-03 0.  1.
         12    1    3    3    0    0 -0.17131414981E+01 -0.12451953397E+02 -0.46339240444E+00  0.12577787155E+02  0.00000000000E+00 0. -1.
</event>
<event>
 7    1  0.2991278E-011  0.5052883E+02  0.7816164E-02  0.1300439E+00
        -11   -1    0    0    0    0  0.00000000000E+00  0.00000000000E+00  0.45593999997E+02  0.45594000000E+02  0.51100000000E-03 0. -1.
         11   -1    0    0    0    0 -0.00000000000E+00 -0.00000000000E+00 -0.45593999997E+02  0.45594000000E+02  0.51100000000E-03 0.  1.
    9900012    2    1    2    0    0  0.24768678311E+02 -0.23315279030E+02 -0.22272812195E+02  0.50528833449E+02  0.29999919752E+02 0.  0.
         12    1    1    2    0    0 -0.24768678311E+02  0.23315279030E+02  0.22272812195E+02  0.40659166551E+02  0.00000000000E+00 0. -1.
         11    1    3    3    0    0 -0.15888050312E+01 -0.33314119865E+01  0.30805905816E+01  0.48075613198E+01  0.51100000000E-03 0. -1.
        -11    1    3    3    0    0  0.17638925395E+02 -0.36657419016E+01 -0.18940321646E+02  0.26140105912E+02  0.51100000000E-03 0.  1.
        -12    1    3    3    0    0  0.87185579477E+01 -0.16318125142E+02 -0.64130811302E+01  0.19581166217E+02  0.00000000000E+00 0.  1.
</event>
<event>
 7    1  0.2991278E-011  0.5052886E+02  0.7816164E-02  0.1300439E+00
        -11   -1    0    0    0    0  0.00000000000E+00  0.00000000000E+00  0.45593999997E+02  0.45594000000E+02  0.51100000000E-03 0.  1.
         11   -1    0    0    0    0 -0.00000000000E+00 -0.00000000000E+00 -0.45593999997E+02  0.45594000000E+02  0.51100000000E-03 0. -1.
    9900012    2    1    2    0    0 -0.33624937233E+02  0.12025980402E+02  0.19439780062E+02  0.50528860100E+02  0.30000000759E+02 0.  0.
         12    1    1    2    0    0  0.33624937233E+02 -0.12025980402E+02 -0.19439780062E+02  0.40659139900E+02  0.00000000000E+00 0. -1.
         11    1    3    3    0    0 -0.10545239994E+02 -0.90572336964E+01  0.64839025559E+01  0.15338727502E+02  0.51100000000E-03 0. -1.
        -11    1    3    3    0    0 -0.16859920926E+02  0.17784146205E+02  0.58654248879E+01  0.25197936409E+02  0.51100000000E-03 0.  1.
        -12    1    3    3    0    0 -0.62197763125E+01  0.32990678936E+01  0.70904526186E+01  0.99921961890E+01  0.00000000000E+00 0.  1.
</event>
<event>
 7    1  0.2991278E-011  0.5052885E+02  0.7816164E-02  0.1300439E+00
        -11   -1    0    0    0    0  0.00000000000E+00  0.00000000000E+00  0.45593999997E+02  0.45594000000E+02  0.51100000000E-03 0. -1.
         11   -1    0    0    0    0 -0.00000000000E+00 -0.00000000000E+00 -0.45593999997E+02  0.45594000000E+02  0.51100000000E-03 0.  1.
    9900012    2    1    2    0    0 -0.19863945817E+02 -0.22960967114E+02 -0.27044111486E+02  0.50528851948E+02  0.29999975980E+02 0.  0.
         12    1    1    2    0    0  0.19863945817E+02  0.22960967114E+02  0.27044111486E+02  0.40659148052E+02  0.00000000000E+00 0. -1.
         11    1    3    3    0    0 -0.15154991231E+02 -0.14313705043E+01 -0.11118680742E+02  0.18850666896E+02  0.51100000000E-03 0. -1.
        -11    1    3    3    0    0  0.18390302698E+01 -0.19426733823E+02 -0.15253820344E+02  0.24768105594E+02  0.51100000000E-03 0.  1.
        -12    1    3    3    0    0 -0.65479848562E+01 -0.21028627870E+01 -0.67161039997E+00  0.69100794574E+01  0.00000000000E+00 0.  1.
</event>
<event>
 7    1  0.2991278E-011  0.5052887E+02  0.7816164E-02  0.1300439E+00
        -11   -1    0    0    0    0  0.00000000000E+00  0.00000000000E+00  0.45593999997E+02  0.45594000000E+02  0.51100000000E-03 0.  1.
         11   -1    0    0    0    0 -0.00000000000E+00 -0.00000000000E+00 -0.45593999997E+02  0.45594000000E+02  0.51100000000E-03 0. -1.
    9900012    2    1    2    0    0 -0.38242465952E+01  0.39720561072E+02 -0.77985043610E+01  0.50528874281E+02  0.30000043866E+02 0.  0.
         12    1    1    2    0    0  0.38242465952E+01 -0.39720561072E+02  0.77985043610E+01  0.40659125719E+02  0.00000000000E+00 0. -1.
         11    1    3    3    0    0 -0.59190726960E+01  0.74157578817E+01 -0.11920910212E+02  0.15236042369E+02  0.51100000000E-03 0. -1.
        -11    1    3    3    0    0 -0.47353275741E+01  0.14387887838E+02  0.53870446943E+01  0.16076532414E+02  0.51100000000E-03 0.  1.
         12    1    3    3    0    0  0.68301536749E+01  0.17916915353E+02 -0.12646388435E+01  0.19216299498E+02  0.00000000000E+00 0. -1.
</event>
<event>
 7    1  0.2991278E-011  0.5052886E+02  0.7816164E-02  0.1300439E+00
        -11   -1    0    0    0    0  0.00000000000E+00  0.00000000000E+00  0.45593999997E+02  0.45594000000E+02  0.51100000000E-03 0. -1.
         11   -1    0    0    0    0 -0.00000000000E+00 -0.00000000000E+00 -0.45593999997E+02  0.45594000000E+02  0.51100000000E-03 0.  1.
    9900012    2    1    2    0    0 -0.18912446937E+02  0.35848326109E+02 -0.32222157571E+01  0.50528858244E+02  0.29999995118E+02 0.  0.
         12    1    1    2    0    0  0.18912446937E+02 -0.35848326109E+02  0.32222157571E+01  0.40659141756E+02  0.00000000000E+00 0. -1.
         11    1    3    3    0    0 -0.14868803870E+01  0.13290495004E+00  0.77482521126E+00  0.16819130121E+01  0.51100000000E-03 0. -1.
        -11    1    3    3    0    0  0.52202283350E+01  0.15047802879E+01  0.43741027219E+01  0.69748062674E+01  0.51100000000E-03 0.  1.
        -12    1    3    3    0    0 -0.22645794885E+02  0.34210640871E+02 -0.83711436902E+01  0.41872138964E+02  0.00000000000E+00 0.  1.
</event>
<event>
 7    1  0.2991278E-011  0.5052886E+02  0.7816164E-02  0.1300439E+00
        -11   -1    0    0    0    0  0.00000000000E+00  0.00000000000E+00  0.45593999997E+02  0.45594000000E+02  0.51100000000E-03 0.  1.
         11   -1    0    0    0    0 -0.00000000000E+00 -0.00000000000E+00 -0.45593999997E+02  0.45594000000E+02  0.51100000000E-03 0. -1.
    9900012    2    1    2    0    0 -0.35262021649E+01  0.61374407805E+01  0.40038271797E+02  0.50528862165E+02  0.30000007035E+02 0.  0.
         12    1    1    2    0    0  0.35262021649E+01 -0.61374407805E+01 -0.40038271797E+02  0.40659137835E+02  0.00000000000E+00 0. -1.
         11    1    3    3    0    0 -0.87447855786E+01  0.68939450965E+01  0.20075316802E+02  0.22956831201E+02  0.51100000000E-03 0.  1.
        -11    1    3    3    0    0  0.11098123048E+02 -0.12868593828E+01  0.66324196267E+01  0.12992818502E+02  0.51100000000E-03 0. -1.
         12    1    3    3    0    0 -0.58795396344E+01  0.53035506675E+00  0.13330535368E+02  0.14579212462E+02  0.00000000000E+00 0. -1.
</event>
<event>
 7    1  0.2991278E-011  0.5052889E+02  0.7816164E-02  0.1300439E+00
        -11   -1    0    0    0    0  0.00000000000E+00  0.00000000000E+00  0.45593999997E+02  0.45594000000E+02  0.51100000000E-03 0. -1.
         11   -1    0    0    0    0 -0.00000000000E+00 -0.00000000000E+00 -0.45593999997E+02  0.45594000000E+02  0.51100000000E-03 0.  1.
    9900012    2    1    2    0    0 -0.24107756727E+02 -0.20975012998E+02 -0.25140172886E+02  0.50528887892E+02  0.30000085238E+02 0.  0.
         12    1    1    2    0    0  0.24107756727E+02  0.20975012998E+02  0.25140172886E+02  0.40659112108E+02  0.00000000000E+00 0. -1.
         11    1    3    3    0    0 -0.17278722419E+02 -0.84184083301E+01 -0.31577757992E+01  0.19478074738E+02  0.51100000000E-03 0. -1.
        -11    1    3    3    0    0 -0.57561648590E+01 -0.15222558252E+02 -0.22846157308E+02  0.28050073398E+02  0.51100000000E-03 0.  1.
        -12    1    3    3    0    0 -0.10728694490E+01  0.26659535844E+01  0.86376022129E+00  0.30007397569E+01  0.00000000000E+00 0.  1.
</event>
<event>
 7    1  0.2991278E-011  0.5052885E+02  0.7816164E-02  0.1300439E+00
        -11   -1    0    0    0    0  0.00000000000E+00  0.00000000000E+00  0.45593999997E+02  0.45594000000E+02  0.51100000000E-03 0.  1.
         11   -1    0    0    0    0 -0.00000000000E+00 -0.00000000000E+00 -0.45593999997E+02  0.45594000000E+02  0.51100000000E-03 0. -1.
    9900012    2    1    2    0    0 -0.17307746703E+02  0.20371889181E+01  0.36734968032E+02  0.50528854522E+02  0.29999983806E+02 0.  0.
         12    1    1    2    0    0  0.17307746703E+02 -0.20371889181E+01 -0.36734968032E+02  0.40659145478E+02  0.00000000000E+00 0. -1.
         11    1    3    3    0    0  0.17374084478E+01  0.97615531270E+01  0.12179178788E+02  0.15704741443E+02  0.51100000000E-03 0. -1.
        -11    1    3    3    0    0 -0.17393405692E+02 -0.95786599920E+00  0.19894336338E+02  0.26443008290E+02  0.51100000000E-03 0.  1.
        -12    1    3    3    0    0 -0.16517494594E+01 -0.67664982097E+01  0.46614529060E+01  0.83811047895E+01  0.00000000000E+00 0.  1.
</event>
<event>
 7    1  0.2991278E-011  0.5052887E+02  0.7816164E-02  0.1300439E+00
        -11   -1    0    0    0    0  0.00000000000E+00  0.00000000000E+00  0.45593999997E+02  0.45594000000E+02  0.51100000000E-03 0. -1.
         11   -1    0    0    0    0 -0.00000000000E+00 -0.00000000000E+00 -0.45593999997E+02  0.45594000000E+02  0.51100000000E-03 0.  1.
    9900012    2    1    2    0    0 -0.22418521239E+02 -0.33095864064E+02 -0.74322772480E+01  0.50528867474E+02  0.30000023174E+02 0.  0.
         12    1    1    2    0    0  0.22418521239E+02  0.33095864064E+02  0.74322772480E+01  0.40659132526E+02  0.00000000000E+00 0. -1.
         11    1    3    3    0    0  0.46342831019E+00 -0.37974370064E+01  0.66820093662E+01  0.76996456442E+01  0.51100000000E-03 0. -1.
        -11    1    3    3    0    0 -0.42049656439E+01 -0.80950563058E+01 -0.11167779918E+02  0.14419812108E+02  0.51100000000E-03 0.  1.
        -12    1    3    3    0    0 -0.18676983905E+02 -0.21203370752E+02 -0.29465066961E+01  0.28409409722E+02  0.00000000000E+00 0.  1.
</event>
<event>
 7    1  0.2991278E-011  0.5052886E+02  0.7816164E-02  0.1300439E+00
        -11   -1    0    0    0    0  0.00000000000E+00  0.00000000000E+00  0.45593999997E+02  0.45594000000E+02  0.51100000000E-03 0.  1.
         11   -1    0    0    0    0 -0.00000000000E+00 -0.00000000000E+00 -0.45593999997E+02  0.45594000000E+02  0.51100000000E-03 0. -1.
    9900012    2    1    2    0    0  0.33363352346E+02  0.22239943057E+02 -0.67407337399E+01  0.50528857876E+02  0.29999993999E+02 0.  0.
         12    1    1    2    0    0 -0.33363352346E+02 -0.22239943057E+02  0.67407337399E+01  0.40659142124E+02  0.00000000000E+00 0. -1.
         11    1    3    3    0    0  0.16461041566E+02  0.20106715657E+02 -0.70778142460E+01  0.26932162162E+02  0.51100000000E-03 0. -1.
        -11    1    3    3    0    0  0.10774410113E+02  0.44986701267E+00  0.81561564712E+01  0.13520842513E+02  0.51100000000E-03 0.  1.
        -12    1    3    3    0    0  0.61279006672E+01  0.16833603871E+01 -0.78190759652E+01  0.10075853201E+02  0.00000000000E+00 0.  1.
</event>
<event>
 7    1  0.2991278E-011  0.5052885E+02  0.7816164E-02  0.1300439E+00
        -11   -1    0    0    0    0  0.00000000000E+00  0.00000000000E+00  0.45593999997E+02  0.45594000000E+02  0.51100000000E-03 0. -1.
         11   -1    0    0    0    0 -0.00000000000E+00 -0.00000000000E+00 -0.45593999997E+02  0.45594000000E+02  0.51100000000E-03 0.  1.
    9900012    2    1    2    0    0 -0.26018816776E+02 -0.19401029583E+02 -0.24490566136E+02  0.50528848448E+02  0.29999965341E+02 0.  0.
         12    1    1    2    0    0  0.26018816776E+02  0.19401029583E+02  0.24490566136E+02  0.40659151552E+02  0.00000000000E+00 0. -1.
         11    1    3    3    0    0  0.23914152196E+01  0.17456943314E+01  0.22236767684E+01  0.37028440532E+01  0.51100000000E-03 0. -1.
        -11    1    3    3    0    0 -0.21659208631E+02 -0.21362350143E+02 -0.26028332736E+02  0.40036800914E+02  0.51100000000E-03 0.  1.
         12    1    3    3    0    0 -0.67510233648E+01  0.21562622829E+00 -0.68591016822E+00  0.67892034806E+01  0.00000000000E+00 0. -1.
</event>
<event>
 7    1  0.2991278E-011  0.5052889E+02  0.7816164E-02  0.1300439E+00
        -11   -1    0    0    0    0  0.00000000000E+00  0.00000000000E+00  0.45593999997E+02  0.45594000000E+02  0.51100000000E-03 0. -1.
         11   -1    0    0    0    0 -0.00000000000E+00 -0.00000000000E+00 -0.45593999997E+02  0.45594000000E+02  0.51100000000E-03 0.  1.
    9900012    2    1    2    0    0 -0.28091137266E+02 -0.23882859282E+02 -0.17136523310E+02  0.50528887964E+02  0.30000085456E+02 0.  0.
         12    1    1    2    0    0  0.28091137266E+02  0.23882859282E+02  0.17136523310E+02  0.40659112036E+02  0.00000000000E+00 0. -1.
         11    1    3    3    0    0 -0.14319327894E+02 -0.25428432641E+02 -0.13548167624E+02  0.32174542485E+02  0.51100000000E-03 0. -1.
        -11    1    3    3    0    0 -0.11054770531E+02  0.13284409593E+01 -0.76168791390E+01  0.13490350439E+02  0.51100000000E-03 0.  1.
         12    1    3    3    0    0 -0.27170388403E+01  0.21713239919E+00  0.40285234531E+01  0.48639950402E+01  0.00000000000E+00 0. -1.
</event>
<event>
 7    1  0.2991278E-011  0.5052886E+02  0.7816164E-02  0.1300439E+00
        -11   -1    0    0    0    0  0.00000000000E+00  0.00000000000E+00  0.45593999997E+02  0.45594000000E+02  0.51100000000E-03 0.  1.
         11   -1    0    0    0    0 -0.00000000000E+00 -0.00000000000E+00 -0.45593999997E+02  0.45594000000E+02  0.51100000000E-03 0. -1.
    9900012    2    1    2    0    0  0.18528216779E+02  0.30580717991E+02  0.19356926465E+02  0.50528859183E+02  0.29999997972E+02 0.  0.
         12    1    1    2    0    0 -0.18528216779E+02 -0.30580717991E+02 -0.19356926465E+02  0.40659140817E+02  0.00000000000E+00 0. -1.
         11    1    3    3    0    0 -0.22036869355E+01  0.38306003736E+01  0.46678634781E+01  0.64279611887E+01  0.51100000000E-03 0. -1.
        -11    1    3    3    0    0  0.10506314636E+02  0.10549269496E+01 -0.33555398161E+01  0.11079493030E+02  0.51100000000E-03 0.  1.
        -12    1    3    3    0    0  0.10225589079E+02  0.25695190668E+02  0.18044602803E+02  0.33021404964E+02  0.00000000000E+00 0.  1.
</event>
<event>
 7    1  0.2991278E-011  0.5052886E+02  0.7816164E-02  0.1300439E+00
        -11   -1    0    0    0    0  0.00000000000E+00  0.00000000000E+00  0.45593999997E+02  0.45594000000E+02  0.51100000000E-03 0.  1.
         11   -1    0    0    0    0 -0.00000000000E+00 -0.00000000000E+00 -0.45593999997E+02  0.45594000000E+02  0.51100000000E-03 0. -1.
    9900012    2    1    2    0    0 -0.13699191909E+01 -0.32772513427E+02  0.24026056179E+02  0.50528859694E+02  0.29999999525E+02 0.  0.
         12    1    1    2    0    0  0.13699191909E+01  0.32772513427E+02 -0.24026056179E+02  0.40659140306E+02  0.00000000000E+00 0. -1.
         11    1    3    3    0    0 -0.23648531389E+01 -0.47043578786E+00 -0.20977068639E+01  0.31959684834E+01  0.51100000000E-03 0. -1.
        -11    1    3    3    0    0  0.68431647272E+01 -0.27695642118E+02  0.27654945667E+02  0.39732524661E+02  0.51100000000E-03 0.  1.
        -12    1    3    3    0    0 -0.58482307792E+01 -0.46064355217E+01 -0.15311826243E+01  0.76003665498E+01  0.00000000000E+00 0.  1.
</event>
<event>
 7    1  0.2991278E-011  0.5052887E+02  0.7816164E-02  0.1300439E+00
        -11   -1    0    0    0    0  0.00000000000E+00  0.00000000000E+00  0.45593999997E+02  0.45594000000E+02  0.51100000000E-03 0. -1.
         11   -1    0    0    0    0 -0.00000000000E+00 -0.00000000000E+00 -0.45593999997E+02  0.45594000000E+02  0.51100000000E-03 0.  1.
    9900012    2    1    2    0    0  0.54934911805E+01  0.23767369339E+02 -0.32528428195E+02  0.50528869027E+02  0.30000027894E+02 0.  0.
         12    1    1    2    0    0 -0.54934911805E+01 -0.23767369339E+02  0.32528428195E+02  0.40659130973E+02  0.00000000000E+00 0. -1.
         11    1    3    3    0    0 -0.41446207523E+01 -0.70126624596E+00 -0.11329303437E+01  0.43535258070E+01  0.51100000000E-03 0. -1.
        -11    1    3    3    0    0  0.78218671019E+01  0.20383026152E+02 -0.34432257200E+02  0.40770451263E+02  0.51100000000E-03 0.  1.
        -12    1    3    3    0    0  0.18162448308E+01  0.40856094331E+01  0.30367593482E+01  0.54048919567E+01  0.00000000000E+00 0.  1.
</event>
<event>
 7    1  0.2991278E-011  0.5052886E+02  0.7816164E-02  0.1300439E+00
        -11   -1    0    0    0    0  0.00000000000E+00  0.00000000000E+00  0.45593999997E+02  0.45594000000E+02  0.51100000000E-03 0. -1.
         11   -1    0    0    0    0 -0.00000000000E+00 -0.00000000000E+00 -0.45593999997E+02  0.45594000000E+02  0.51100000000E-03 0.  1.
    9900012    2    1    2    0    0 -0.38989316671E+02  0.87952642769E+01 -0.74593606383E+01  0.50528861430E+02  0.30000004802E+02 0.  0.
         12    1    1    2    0    0  0.38989316671E+02 -0.87952642769E+01  0.74593606383E+01  0.40659138570E+02  0.00000000000E+00 0. -1.
         11    1    3    3    0    0 -0.22152553781E+02 -0.56207792443E+01  0.18441000267E+01  0.22928792020E+02  0.51100000000E-03 0. -1.
        -11    1    3    3    0    0 -0.18386376000E+02  0.92394229421E+01 -0.71736309271E+01  0.21791896192E+02  0.51100000000E-03 0.  1.
        -12    1    3    3    0    0  0.15496131101E+01  0.51766205791E+01 -0.21298297379E+01  0.58081732174E+01  0.00000000000E+00 0.  1.
</event>
<event>
 7    1  0.2991278E-011  0.5052889E+02  0.7816164E-02  0.1300439E+00
        -11   -1    0    0    0    0  0.00000000000E+00  0.00000000000E+00  0.45593999997E+02  0.45594000000E+02  0.51100000000E-03 0.  1.
         11   -1    0    0    0    0 -0.00000000000E+00 -0.00000000000E+00 -0.45593999997E+02  0.45594000000E+02  0.51100000000E-03 0. -1.
    9900012    2    1    2    0    0  0.21090812408E+02  0.11399163431E+02  0.32839002518E+02  0.50528888090E+02  0.30000085839E+02 0.  0.
         12    1    1    2    0    0 -0.21090812408E+02 -0.11399163431E+02 -0.32839002518E+02  0.40659111910E+02  0.00000000000E+00 0. -1.
         11    1    3    3    0    0  0.52388703813E+01 -0.51587244438E+01 -0.21530446138E+01  0.76611880364E+01  0.51100000000E-03 0. -1.
        -11    1    3    3    0    0  0.60619637401E+01  0.62659870473E+01  0.60016222943E+01  0.10584397408E+02  0.51100000000E-03 0.  1.
         12    1    3    3    0    0  0.97899782864E+01  0.10291900827E+02  0.28990424837E+02  0.32283302646E+02  0.00000000000E+00 0. -1.
</event>
<event>
 7    1  0.2991278E-011  0.5052887E+02  0.7816164E-02  0.1300439E+00
        -11   -1    0    0    0    0  0.00000000000E+00  0.00000000000E+00  0.45593999997E+02  0.45594000000E+02  0.51100000000E-03 0.  1.
         11   -1    0    0    0    0 -0.00000000000E+00 -0.00000000000E+00 -0.45593999997E+02  0.45594000000E+02  0.51100000000E-03 0. -1.
    9900012    2    1    2    0    0 -0.34880545189E+02  0.12328844551E+02 -0.16867492422E+02  0.50528866448E+02  0.30000020054E+02 0.  0.
         12    1    1    2    0    0  0.34880545189E+02 -0.12328844551E+02  0.16867492422E+02  0.40659133552E+02  0.00000000000E+00 0. -1.
         11    1    3    3    0    0 -0.18528920406E+02  0.88663991047E-01 -0.13405908972E+02  0.22870224055E+02  0.51100000000E-03 0. -1.
        -11    1    3    3    0    0 -0.86728659096E+01  0.16303668313E+02 -0.42036823335E+01  0.18939354503E+02  0.51100000000E-03 0.  1.
         12    1    3    3    0    0 -0.76787588734E+01 -0.40634877530E+01  0.74209888397E+00  0.87192878900E+01  0.00000000000E+00 0. -1.
</event>
<event>
 7    1  0.2991278E-011  0.5052891E+02  0.7816164E-02  0.1300439E+00
        -11   -1    0    0    0    0  0.00000000000E+00  0.00000000000E+00  0.45593999997E+02  0.45594000000E+02  0.51100000000E-03 0.  1.
         11   -1    0    0    0    0 -0.00000000000E+00 -0.00000000000E+00 -0.45593999997E+02  0.45594000000E+02  0.51100000000E-03 0. -1.
    9900012    2    1    2    0    0  0.20201478353E+02  0.21949316605E+02  0.27627696252E+02  0.50528907200E+02  0.30000143926E+02 0.  0.
         12    1    1    2    0    0 -0.20201478353E+02 -0.21949316605E+02 -0.27627696252E+02  0.40659092800E+02  0.00000000000E+00 0. -1.
         11    1    3    3    0    0  0.69854703315E+01  0.20311398874E+02  0.17252883572E+02  0.27550167182E+02  0.51100000000E-03 0.  1.
        -11    1    3    3    0    0  0.23778450452E+01 -0.75346121628E+00 -0.40631909383E+01  0.47677428334E+01  0.51100000000E-03 0. -1.
        -12    1    3    3    0    0  0.10838162976E+02  0.23913789479E+01  0.14438003619E+02  0.18210997185E+02  0.00000000000E+00 0.  1.
</event>
<event>
 7    1  0.2991278E-011  0.5052885E+02  0.7816164E-02  0.1300439E+00
        -11   -1    0    0    0    0  0.00000000000E+00  0.00000000000E+00  0.45593999997E+02  0.45594000000E+02  0.51100000000E-03 0.  1.
         11   -1    0    0    0    0 -0.00000000000E+00 -0.00000000000E+00 -0.45593999997E+02  0.45594000000E+02  0.51100000000E-03 0. -1.
    9900012    2    1    2    0    0 -0.16249735698E+02  0.34759065043E+02 -0.13450635427E+02  0.50528854580E+02  0.29999983980E+02 0.  0.
         12    1    1    2    0    0  0.16249735698E+02 -0.34759065043E+02  0.13450635427E+02  0.40659145420E+02  0.00000000000E+00 0. -1.
         11    1    3    3    0    0 -0.11809347317E+02  0.28261941124E+02 -0.17373209970E+02  0.35214008932E+02  0.51100000000E-03 0. -1.
        -11    1    3    3    0    0 -0.88596206398E+01  0.47400447543E+01  0.27098151457E+01  0.10406920800E+02  0.51100000000E-03 0.  1.
         12    1    3    3    0    0  0.44192322593E+01  0.17570791653E+01  0.12127593971E+01  0.49079248476E+01  0.00000000000E+00 0. -1.
</event>
<event>
 7    1  0.2991278E-011  0.5052889E+02  0.7816164E-02  0.1300439E+00
        -11   -1    0    0    0    0  0.00000000000E+00  0.00000000000E+00  0.45593999997E+02  0.45594000000E+02  0.51100000000E-03 0.  1.
         11   -1    0    0    0    0 -0.00000000000E+00 -0.00000000000E+00 -0.45593999997E+02  0.45594000000E+02  0.51100000000E-03 0. -1.
    9900012    2    1    2    0    0 -0.15087812563E+02 -0.32806877010E+02  0.18687689288E+02  0.50528892804E+02  0.30000100166E+02 0.  0.
         12    1    1    2    0    0  0.15087812563E+02  0.32806877010E+02 -0.18687689288E+02  0.40659107196E+02  0.00000000000E+00 0. -1.
         11    1    3    3    0    0 -0.17633144079E+01 -0.73566067753E+01 -0.45115979345E+01  0.88081472020E+01  0.51100000000E-03 0. -1.
        -11    1    3    3    0    0 -0.92263919057E+01 -0.27565069181E+02  0.16026779396E+02  0.33193628977E+02  0.51100000000E-03 0.  1.
        -12    1    3    3    0    0 -0.40981062495E+01  0.21147989467E+01  0.71725078264E+01  0.85271166251E+01  0.00000000000E+00 0.  1.
</event>
<event>
 7    1  0.2991278E-011  0.5052880E+02  0.7816164E-02  0.1300439E+00
        -11   -1    0    0    0    0  0.00000000000E+00  0.00000000000E+00  0.45593999997E+02  0.45594000000E+02  0.51100000000E-03 0. -1.
         11   -1    0    0    0    0 -0.00000000000E+00 -0.00000000000E+00 -0.45593999997E+02  0.45594000000E+02  0.51100000000E-03 0.  1.
    9900012    2    1    2    0    0  0.20137172305E+00  0.16307240487E+02 -0.37245188848E+02  0.50528797657E+02  0.29999810956E+02 0.  0.
         12    1    1    2    0    0 -0.20137172305E+00 -0.16307240487E+02  0.37245188848E+02  0.40659202343E+02  0.00000000000E+00 0. -1.
         11    1    3    3    0    0  0.56627299416E+01 -0.35549524816E+01 -0.45408619527E+01  0.80823032034E+01  0.51100000000E-03 0. -1.
        -11    1    3    3    0    0 -0.99823781835E+01  0.16859961681E+02 -0.31152431938E+02  0.36801904815E+02  0.51100000000E-03 0.  1.
        -12    1    3    3    0    0  0.45210199650E+01  0.30022312868E+01 -0.15518949573E+01  0.56445896380E+01  0.00000000000E+00 0.  1.
</event>
<event>
 7    1  0.2991278E-011  0.5052886E+02  0.7816164E-02  0.1300439E+00
        -11   -1    0    0    0    0  0.00000000000E+00  0.00000000000E+00  0.45593999997E+02  0.45594000000E+02  0.51100000000E-03 0.  1.
         11   -1    0    0    0    0 -0.00000000000E+00 -0.00000000000E+00 -0.45593999997E+02  0.45594000000E+02  0.51100000000E-03 0. -1.
    9900012    2    1    2    0    0  0.30170144847E+02 -0.20840092962E+02  0.17567546934E+02  0.50528858100E+02  0.29999994682E+02 0.  0.
         12    1    1    2    0    0 -0.30170144847E+02  0.20840092962E+02 -0.17567546934E+02  0.40659141900E+02  0.00000000000E+00 0. -1.
         11    1    3    3    0    0  0.22954840155E+02 -0.74791508660E+01  0.15133795812E+02  0.28493756512E+02  0.51100000000E-03 0. -1.
        -11    1    3    3    0    0  0.74462468547E+01 -0.14676270574E+02 -0.27470964875E+01  0.16684904841E+02  0.51100000000E-03 0.  1.
        -12    1    3    3    0    0 -0.23094216249E+00  0.13153284785E+01  0.51808476090E+01  0.53501967474E+01  0.00000000000E+00 0.  1.
</event>
<event>
 7    1  0.2991278E-011  0.5052887E+02  0.7816164E-02  0.1300439E+00
        -11   -1    0    0    0    0  0.00000000000E+00  0.00000000000E+00  0.45593999997E+02  0.45594000000E+02  0.51100000000E-03 0.  1.
         11   -1    0    0    0    0 -0.00000000000E+00 -0.00000000000E+00 -0.45593999997E+02  0.45594000000E+02  0.51100000000E-03 0. -1.
    9900012    2    1    2    0    0  0.16967472799E+01 -0.39838657057E+02  0.79477872367E+01  0.50528869791E+02  0.30000030216E+02 0.  0.
         12    1    1    2    0    0 -0.16967472799E+01  0.39838657057E+02 -0.79477872367E+01  0.40659130209E+02  0.00000000000E+00 0. -1.
         11    1    3    3    0    0 -0.87385394134E+01 -0.63305266976E+01 -0.65897131617E+00  0.10810729985E+02  0.51100000000E-03 0. -1.
        -11    1    3    3    0    0  0.37367815209E+01 -0.28925892849E+02  0.11132075797E+02  0.31218486911E+02  0.51100000000E-03 0.  1.
         12    1    3    3    0    0  0.66985051724E+01 -0.45822375105E+01 -0.25253172438E+01  0.84996528946E+01  0.00000000000E+00 0. -1.
</event>
<event>
 7    1  0.2991278E-011  0.5052885E+02  0.7816164E-02  0.1300439E+00
        -11   -1    0    0    0    0  0.00000000000E+00  0.00000000000E+00  0.45593999997E+02  0.45594000000E+02  0.51100000000E-03 0.  1.
         11   -1    0    0    0    0 -0.00000000000E+00 -0.00000000000E+00 -0.45593999997E+02  0.45594000000E+02  0.51100000000E-03 0. -1.
    9900012    2    1    2    0    0 -0.10553503809E+02  0.11481130120E+01  0.39248846013E+02  0.50528849498E+02  0.29999968536E+02 0.  0.
         12    1    1    2    0    0  0.10553503809E+02 -0.11481130120E+01 -0.39248846013E+02  0.40659150502E+02  0.00000000000E+00 0. -1.
         11    1    3    3    0    0 -0.82450926693E+00 -0.72825085165E+01  0.15772897544E+01  0.74968386041E+01  0.51100000000E-03 0. -1.
        -11    1    3    3    0    0 -0.71791822743E+01  0.13358306398E+02  0.25779239183E+02  0.29909098634E+02  0.51100000000E-03 0.  1.
        -12    1    3    3    0    0 -0.25498122679E+01 -0.49276848697E+01  0.11892317076E+02  0.13122912261E+02  0.00000000000E+00 0.  1.
</event>
<event>
 7    1  0.2991278E-011  0.5052886E+02  0.7816164E-02  0.1300439E+00
        -11   -1    0    0    0    0  0.00000000000E+00  0.00000000000E+00  0.45593999997E+02  0.45594000000E+02  0.51100000000E-03 0.  1.
         11   -1    0    0    0    0 -0.00000000000E+00 -0.00000000000E+00 -0.45593999997E+02  0.45594000000E+02  0.51100000000E-03 0. -1.
    9900012    2    1    2    0    0  0.29900953392E+02  0.27524258339E+02  0.12304733096E+01  0.50528857419E+02  0.29999992610E+02 0.  0.
         12    1    1    2    0    0 -0.29900953392E+02 -0.27524258339E+02 -0.12304733096E+01  0.40659142581E+02  0.00000000000E+00 0. -1.
         11    1    3    3    0    0  0.19181153088E+02  0.27759265752E+02  0.22574248770E+01  0.33816999219E+02  0.51100000000E-03 0.  1.
        -11    1    3    3    0    0  0.21115516278E+01  0.15094309336E+01 -0.60574004919E+01  0.65900783759E+01  0.51100000000E-03 0. -1.
         12    1    3    3    0    0  0.86082486764E+01 -0.17444383463E+01  0.50304489246E+01  0.10121779824E+02  0.00000000000E+00 0. -1.
</event>
<event>
 7    1  0.2991278E-011  0.5052887E+02  0.7816164E-02  0.1300439E+00
        -11   -1    0    0    0    0  0.00000000000E+00  0.00000000000E+00  0.45593999997E+02  0.45594000000E+02  0.51100000000E-03 0. -1.
         11   -1    0    0    0    0 -0.00000000000E+00 -0.00000000000E+00 -0.45593999997E+02  0.45594000000E+02  0.51100000000E-03 0.  1.
    9900012    2    1    2    0    0  0.24214737268E+02 -0.30796250056E+02 -0.10881295708E+02  0.50528866773E+02  0.30000021043E+02 0.  0.
         12    1    1    2    0    0 -0.24214737268E+02  0.30796250056E+02  0.10881295708E+02  0.40659133227E+02  0.00000000000E+00 0. -1.
         11    1    3    3    0    0 -0.50054689262E+01 -0.11047061160E+01 -0.51838597702E+01  0.72902329971E+01  0.51100000000E-03 0. -1.
        -11    1    3    3    0    0  0.21288139547E+02 -0.18794943221E+02  0.50449277163E+00  0.28402276129E+02  0.51100000000E-03 0.  1.
        -12    1    3    3    0    0  0.79320666477E+01 -0.10896600718E+02 -0.62019287096E+01  0.14836357647E+02  0.00000000000E+00 0.  1.
</event>
<event>
 7    1  0.2991278E-011  0.5052882E+02  0.7816164E-02  0.1300439E+00
        -11   -1    0    0    0    0  0.00000000000E+00  0.00000000000E+00  0.45593999997E+02  0.45594000000E+02  0.51100000000E-03 0. -1.
         11   -1    0    0    0    0 -0.00000000000E+00 -0.00000000000E+00 -0.45593999997E+02  0.45594000000E+02  0.51100000000E-03 0.  1.
    9900012    2    1    2    0    0  0.22439144657E+02 -0.27209675441E+02 -0.20230851175E+02  0.50528819120E+02  0.29999876198E+02 0.  0.
         12    1    1    2    0    0 -0.22439144657E+02  0.27209675441E+02  0.20230851175E+02  0.40659180880E+02  0.00000000000E+00 0. -1.
         11    1    3    3    0    0  0.17052824773E+02 -0.20566799963E+02 -0.66649298383E+01  0.27535674741E+02  0.51100000000E-03 0. -1.
        -11    1    3    3    0    0 -0.58729878874E+01 -0.16956452841E+01 -0.59333893772E+01  0.85189382799E+01  0.51100000000E-03 0.  1.
         12    1    3    3    0    0  0.11259307771E+02 -0.49472301941E+01 -0.76325319600E+01  0.14474206099E+02  0.00000000000E+00 0. -1.
</event>
<event>
 7    1  0.2991278E-011  0.5052884E+02  0.7816164E-02  0.1300439E+00
        -11   -1    0    0    0    0  0.00000000000E+00  0.00000000000E+00  0.45593999997E+02  0.45594000000E+02  0.51100000000E-03 0.  1.
         11   -1    0    0    0    0 -0.00000000000E+00 -0.00000000000E+00 -0.45593999997E+02  0.45594000000E+02  0.51100000000E-03 0. -1.
    9900012    2    1    2    0    0 -0.22488531394E+02 -0.15501379851E+02  0.30118769065E+02  0.50528842710E+02  0.29999947901E+02 0.  0.
         12    1    1    2    0    0  0.22488531394E+02  0.15501379851E+02 -0.30118769065E+02  0.40659157290E+02  0.00000000000E+00 0. -1.
         11    1    3    3    0    0 -0.22435472674E+02 -0.73596707276E+01  0.73348993730E+01  0.24724804072E+02  0.51100000000E-03 0. -1.
        -11    1    3    3    0    0 -0.24097110888E+01 -0.54596421994E+01  0.53707399950E+01  0.80286517444E+01  0.51100000000E-03 0.  1.
         12    1    3    3    0    0  0.23566523682E+01 -0.26820669236E+01  0.17413129697E+02  0.17775386894E+02  0.00000000000E+00 0. -1.
</event>
<event>
 7    1  0.2991278E-011  0.5052885E+02  0.7816164E-02  0.1300439E+00
        -11   -1    0    0    0    0  0.00000000000E+00  0.00000000000E+00  0.45593999997E+02  0.45594000000E+02  0.51100000000E-03 0.  1.
         11   -1    0    0    0    0 -0.00000000000E+00 -0.00000000000E+00 -0.45593999997E+02  0.45594000000E+02  0.51100000000E-03 0. -1.
    9900012    2    1    2    0    0  0.18106250661E+02 -0.21974827929E+02  0.29024763251E+02  0.50528852723E+02  0.29999978337E+02 0.  0.
         12    1    1    2    0    0 -0.18106250661E+02  0.21974827929E+02 -0.29024763251E+02  0.40659147277E+02  0.00000000000E+00 0. -1.
         11    1    3    3    0    0  0.67283331415E+01 -0.19384561860E+02  0.27024651455E+02  0.33931747552E+02  0.51100000000E-03 0.  1.
        -11    1    3    3    0    0  0.99641160142E+01  0.32375653837E+01  0.11362827827E+01  0.10538338407E+02  0.51100000000E-03 0. -1.
        -12    1    3    3    0    0  0.14138015051E+01 -0.58278314529E+01  0.86382901297E+00  0.60587667642E+01  0.00000000000E+00 0.  1.
</event>
<event>
 7    1  0.2991278E-011  0.5052886E+02  0.7816164E-02  0.1300439E+00
        -11   -1    0    0    0    0  0.00000000000E+00  0.00000000000E+00  0.45593999997E+02  0.45594000000E+02  0.51100000000E-03 0. -1.
         11   -1    0    0    0    0 -0.00000000000E+00 -0.00000000000E+00 -0.45593999997E+02  0.45594000000E+02  0.51100000000E-03 0.  1.
    9900012    2    1    2    0    0 -0.99151153176E+01  0.20870061353E+02 -0.33455891477E+02  0.50528860226E+02  0.30000001144E+02 0.  0.
         12    1    1    2    0    0  0.99151153176E+01 -0.20870061353E+02  0.33455891477E+02  0.40659139774E+02  0.00000000000E+00 0. -1.
         11    1    3    3    0    0  0.62745125945E+01  0.64626431075E+00 -0.50001127724E+00  0.63274937690E+01  0.51100000000E-03 0. -1.
        -11    1    3    3    0    0 -0.74933429969E+01  0.16124650722E+02 -0.12922571679E+02  0.21980614396E+02  0.51100000000E-03 0.  1.
         12    1    3    3    0    0 -0.86962849152E+01  0.40991463198E+01 -0.20033308521E+02  0.22220752061E+02  0.00000000000E+00 0. -1.
</event>
<event>
 7    1  0.2991278E-011  0.5052886E+02  0.7816164E-02  0.1300439E+00
        -11   -1    0    0    0    0  0.00000000000E+00  0.00000000000E+00  0.45593999997E+02  0.45594000000E+02  0.51100000000E-03 0.  1.
         11   -1    0    0    0    0 -0.00000000000E+00 -0.00000000000E+00 -0.45593999997E+02  0.45594000000E+02  0.51100000000E-03 0. -1.
    9900012    2    1    2    0    0 -0.44293082537E+01  0.27375193725E+02  0.29734583609E+02  0.50528862460E+02  0.30000007933E+02 0.  0.
         12    1    1    2    0    0  0.44293082537E+01 -0.27375193725E+02 -0.29734583609E+02  0.40659137540E+02  0.00000000000E+00 0. -1.
         11    1    3    3    0    0 -0.87862412694E+01  0.13484319077E+02  0.31124214824E+01  0.16392439244E+02  0.51100000000E-03 0. -1.
        -11    1    3    3    0    0 -0.20592844616E+01  0.46039709521E+01  0.20863664596E+02  0.21464615106E+02  0.51100000000E-03 0.  1.
         12    1    3    3    0    0  0.64162174773E+01  0.92869036959E+01  0.57584975315E+01  0.12671808111E+02  0.00000000000E+00 0. -1.
</event>
<event>
 7    1  0.2991278E-011  0.5052886E+02  0.7816164E-02  0.1300439E+00
        -11   -1    0    0    0    0  0.00000000000E+00  0.00000000000E+00  0.45593999997E+02  0.45594000000E+02  0.51100000000E-03 0. -1.
         11   -1    0    0    0    0 -0.00000000000E+00 -0.00000000000E+00 -0.45593999997E+02  0.45594000000E+02  0.51100000000E-03 0.  1.
    9900012    2    1    2    0    0  0.28752929045E+02  0.19098861836E+02 -0.21486461140E+02  0.50528862473E+02  0.30000007973E+02 0.  0.
         12    1    1    2    0    0 -0.28752929045E+02 -0.19098861836E+02  0.21486461140E+02  0.40659137527E+02  0.00000000000E+00 0. -1.
         11    1    3    3    0    0 -0.17235517237E+01  0.83555396177E+01  0.23011480720E+01  0.88363428837E+01  0.51100000000E-03 0. -1.
        -11    1    3    3    0    0  0.29256145304E+02  0.11559401889E+02 -0.24672474516E+02  0.39978404284E+02  0.51100000000E-03 0.  1.
        -12    1    3    3    0    0  0.12203354649E+01 -0.81607967070E+00  0.88486530376E+00  0.17141153058E+01  0.00000000000E+00 0.  1.
</event>
<event>
 7    1  0.2991278E-011  0.5052887E+02  0.7816164E-02  0.1300439E+00
        -11   -1    0    0    0    0  0.00000000000E+00  0.00000000000E+00  0.45593999997E+02  0.45594000000E+02  0.51100000000E-03 0.  1.
         11   -1    0    0    0    0 -0.00000000000E+00 -0.00000000000E+00 -0.45593999997E+02  0.45594000000E+02  0.51100000000E-03 0. -1.
    9900012    2    1    2    0    0 -0.20366587200E+02 -0.14041815263E+02  0.32267544935E+02  0.50528869337E+02  0.30000028838E+02 0.  0.
         12    1    1    2    0    0  0.20366587200E+02  0.14041815263E+02 -0.32267544935E+02  0.40659130663E+02  0.00000000000E+00 0. -1.
         11    1    3    3    0    0  0.54337967361E+00 -0.35238843712E+01  0.11525748035E+01  0.37471924784E+01  0.51100000000E-03 0. -1.
        -11    1    3    3    0    0 -0.91608411362E+01  0.22242661119E+01  0.27507510673E+02  0.29078024585E+02  0.51100000000E-03 0.  1.
        -12    1    3    3    0    0 -0.11749125738E+02 -0.12742197004E+02  0.36074594588E+01  0.17703652274E+02  0.00000000000E+00 0.  1.
</event>
<event>
 7    1  0.2991278E-011  0.5052886E+02  0.7816164E-02  0.1300439E+00
        -11   -1    0    0    0    0  0.00000000000E+00  0.00000000000E+00  0.45593999997E+02  0.45594000000E+02  0.51100000000E-03 0. -1.
         11   -1    0    0    0    0 -0.00000000000E+00 -0.00000000000E+00 -0.45593999997E+02  0.45594000000E+02  0.51100000000E-03 0.  1.
    9900012    2    1    2    0    0  0.31085847438E+02 -0.88647909253E+01 -0.24662755315E+02  0.50528856762E+02  0.29999990614E+02 0.  0.
         12    1    1    2    0    0 -0.31085847438E+02  0.88647909253E+01  0.24662755315E+02  0.40659143238E+02  0.00000000000E+00 0. -1.
         11    1    3    3    0    0 -0.33885386434E+01 -0.32062381417E+01 -0.50444377827E+01  0.68708449235E+01  0.51100000000E-03 0. -1.
        -11    1    3    3    0    0  0.30478492030E+02 -0.10917006362E+02 -0.15727325757E+02  0.35992614243E+02  0.51100000000E-03 0.  1.
        -12    1    3    3    0    0  0.39958940516E+01  0.52584535779E+01 -0.38909917752E+01  0.76653975955E+01  0.00000000000E+00 0.  1.
</event>
<event>
 7    1  0.2991278E-011  0.5052886E+02  0.7816164E-02  0.1300439E+00
        -11   -1    0    0    0    0  0.00000000000E+00  0.00000000000E+00  0.45593999997E+02  0.45594000000E+02  0.51100000000E-03 0.  1.
         11   -1    0    0    0    0 -0.00000000000E+00 -0.00000000000E+00 -0.45593999997E+02  0.45594000000E+02  0.51100000000E-03 0. -1.
    9900012    2    1    2    0    0 -0.39174205314E+02 -0.92119492372E+01  0.58041079171E+01  0.50528855402E+02  0.29999986481E+02 0.  0.
         12    1    1    2    0    0  0.39174205314E+02  0.92119492372E+01 -0.58041079171E+01  0.40659144598E+02  0.00000000000E+00 0. -1.
         11    1    3    3    0    0 -0.35004896141E+01  0.62382070898E+01 -0.49952694722E+01  0.87247563058E+01  0.51100000000E-03 0. -1.
        -11    1    3    3    0    0 -0.34959715084E+02 -0.15017791410E+02  0.79971598370E+01  0.38880204517E+02  0.51100000000E-03 0.  1.
        -12    1    3    3    0    0 -0.71400061609E+00 -0.43236491669E+00  0.28022175524E+01  0.29238945795E+01  0.00000000000E+00 0.  1.
</event>
<event>
 7    1  0.2991278E-011  0.5052886E+02  0.7816164E-02  0.1300439E+00
        -11   -1    0    0    0    0  0.00000000000E+00  0.00000000000E+00  0.45593999997E+02  0.45594000000E+02  0.51100000000E-03 0.  1.
         11   -1    0    0    0    0 -0.00000000000E+00 -0.00000000000E+00 -0.45593999997E+02  0.45594000000E+02  0.51100000000E-03 0. -1.
    9900012    2    1    2    0    0 -0.36995915455E+02 -0.15895181274E+02  0.56401220287E+01  0.50528861733E+02  0.30000005724E+02 0.  0.
         12    1    1    2    0    0  0.36995915455E+02  0.15895181274E+02 -0.56401220287E+01  0.40659138267E+02  0.00000000000E+00 0. -1.
         11    1    3    3    0    0 -0.74772876955E+01 -0.91545979427E+01  0.85017921306E+01  0.14560115538E+02  0.51100000000E-03 0. -1.
        -11    1    3    3    0    0 -0.97318967543E+01  0.49029110113E+01 -0.65526964330E+01  0.12715588135E+02  0.51100000000E-03 0.  1.
        -12    1    3    3    0    0 -0.19786731006E+02 -0.11643494342E+02  0.36910263311E+01  0.23253158060E+02  0.00000000000E+00 0.  1.
</event>
<event>
 7    1  0.2991278E-011  0.5052884E+02  0.7816164E-02  0.1300439E+00
        -11   -1    0    0    0    0  0.00000000000E+00  0.00000000000E+00  0.45593999997E+02  0.45594000000E+02  0.51100000000E-03 0.  1.
         11   -1    0    0    0    0 -0.00000000000E+00 -0.00000000000E+00 -0.45593999997E+02  0.45594000000E+02  0.51100000000E-03 0. -1.
    9900012    2    1    2    0    0 -0.24403435511E+02 -0.32334666028E+02 -0.34798105888E+01  0.50528838995E+02  0.29999936608E+02 0.  0.
         12    1    1    2    0    0  0.24403435511E+02  0.32334666028E+02  0.34798105888E+01  0.40659161005E+02  0.00000000000E+00 0. -1.
         11    1    3    3    0    0 -0.11303200539E+02 -0.18792573837E+02 -0.15763909137E+02  0.27007850811E+02  0.51100000000E-03 0. -1.
        -11    1    3    3    0    0 -0.87591746725E+01 -0.88276903873E+01  0.40330957885E+01  0.13073527467E+02  0.51100000000E-03 0.  1.
         12    1    3    3    0    0 -0.43410603002E+01 -0.47144018037E+01  0.82510027600E+01  0.10447460717E+02  0.00000000000E+00 0. -1.
</event>
<event>
 7    1  0.2991278E-011  0.5052890E+02  0.7816164E-02  0.1300439E+00
        -11   -1    0    0    0    0  0.00000000000E+00  0.00000000000E+00  0.45593999997E+02  0.45594000000E+02  0.51100000000E-03 0.  1.
         11   -1    0    0    0    0 -0.00000000000E+00 -0.00000000000E+00 -0.45593999997E+02  0.45594000000E+02  0.51100000000E-03 0. -1.
    9900012    2    1    2    0    0 -0.54500108685E+01 -0.14428848259E+02  0.37620054638E+02  0.50528895343E+02  0.30000107883E+02 0.  0.
         12    1    1    2    0    0  0.54500108685E+01  0.14428848259E+02 -0.37620054638E+02  0.40659104657E+02  0.00000000000E+00 0. -1.
         11    1    3    3    0    0  0.60894879157E+01 -0.37972228492E+01 -0.11203062738E+01  0.72633223011E+01  0.51100000000E-03 0. -1.
        -11    1    3    3    0    0 -0.13332819188E+02 -0.11161702727E+02  0.35279511824E+02  0.39331814477E+02  0.51100000000E-03 0.  1.
         12    1    3    3    0    0  0.17933204034E+01  0.53007731698E+00  0.34608490883E+01  0.39337585645E+01  0.00000000000E+00 0. -1.
</event>
<event>
 7    1  0.2991278E-011  0.5052886E+02  0.7816164E-02  0.1300439E+00
        -11   -1    0    0    0    0  0.00000000000E+00  0.00000000000E+00  0.45593999997E+02  0.45594000000E+02  0.51100000000E-03 0.  1.
         11   -1    0    0    0    0 -0.00000000000E+00 -0.00000000000E+00 -0.45593999997E+02  0.45594000000E+02  0.51100000000E-03 0. -1.
    9900012    2    1    2    0    0 -0.26206718121E+01  0.29649984948E+02  0.27697938151E+02  0.50528864422E+02  0.30000013897E+02 0.  0.
         12    1    1    2    0    0  0.26206718121E+01 -0.29649984948E+02 -0.27697938151E+02  0.40659135578E+02  0.00000000000E+00 0. -1.
         11    1    3    3    0    0 -0.17294081494E+01  0.23287019413E+02  0.20625921078E+01  0.23442065015E+02  0.51100000000E-03 0. -1.
        -11    1    3    3    0    0 -0.32793452070E+01  0.47272387747E+01  0.15029978124E+02  0.16093512174E+02  0.51100000000E-03 0.  1.
         12    1    3    3    0    0  0.23880815442E+01  0.16357267600E+01  0.10605367919E+02  0.10993287233E+02  0.00000000000E+00 0. -1.
</event>
<event>
 7    1  0.2991278E-011  0.5052886E+02  0.7816164E-02  0.1300439E+00
        -11   -1    0    0    0    0  0.00000000000E+00  0.00000000000E+00  0.45593999997E+02  0.45594000000E+02  0.51100000000E-03 0. -1.
         11   -1    0    0    0    0 -0.00000000000E+00 -0.00000000000E+00 -0.45593999997E+02  0.45594000000E+02  0.51100000000E-03 0.  1.
    9900012    2    1    2    0    0  0.17735310212E+02  0.37417139413E+01 -0.36395384054E+02  0.50528860412E+02  0.30000001709E+02 0.  0.
         12    1    1    2    0    0 -0.17735310212E+02 -0.37417139413E+01  0.36395384054E+02  0.40659139588E+02  0.00000000000E+00 0. -1.
         11    1    3    3    0    0  0.83325287284E+01  0.14101069338E+02 -0.24223247513E+02  0.29241014206E+02  0.51100000000E-03 0. -1.
        -11    1    3    3    0    0  0.20293519456E+01 -0.75553371851E+01 -0.10713122983E+02  0.13265458666E+02  0.51100000000E-03 0.  1.
         12    1    3    3    0    0  0.73734295381E+01 -0.28040182117E+01 -0.14590135588E+01  0.80223875405E+01  0.00000000000E+00 0. -1.
</event>
<event>
 7    1  0.2991278E-011  0.5052886E+02  0.7816164E-02  0.1300439E+00
        -11   -1    0    0    0    0  0.00000000000E+00  0.00000000000E+00  0.45593999997E+02  0.45594000000E+02  0.51100000000E-03 0. -1.
         11   -1    0    0    0    0 -0.00000000000E+00 -0.00000000000E+00 -0.45593999997E+02  0.45594000000E+02  0.51100000000E-03 0.  1.
    9900012    2    1    2    0    0  0.12168286023E+02  0.35953746620E+02 -0.14574871097E+02  0.50528856523E+02  0.29999989887E+02 0.  0.
         12    1    1    2    0    0 -0.12168286023E+02 -0.35953746620E+02  0.14574871097E+02  0.40659143477E+02  0.00000000000E+00 0. -1.
         11    1    3    3    0    0 -0.78377572327E+00  0.21323307465E+01 -0.10609643374E+02  0.10850146155E+02  0.51100000000E-03 0. -1.
        -11    1    3    3    0    0  0.12246688403E+02  0.35376064075E+02 -0.48620101074E+01  0.37750316937E+02  0.51100000000E-03 0.  1.
        -12    1    3    3    0    0  0.70537334354E+00 -0.15546482012E+01  0.89678238407E+00  0.19283934317E+01  0.00000000000E+00 0.  1.
</event>
<event>
 7    1  0.2991278E-011  0.5052887E+02  0.7816164E-02  0.1300439E+00
        -11   -1    0    0    0    0  0.00000000000E+00  0.00000000000E+00  0.45593999997E+02  0.45594000000E+02  0.51100000000E-03 0.  1.
         11   -1    0    0    0    0 -0.00000000000E+00 -0.00000000000E+00 -0.45593999997E+02  0.45594000000E+02  0.51100000000E-03 0. -1.
    9900012    2    1    2    0    0  0.10963106932E+02 -0.11282945016E+02  0.37492274576E+02  0.50528865544E+02  0.30000017307E+02 0.  0.
         12    1    1    2    0    0 -0.10963106932E+02  0.11282945016E+02 -0.37492274576E+02  0.40659134456E+02  0.00000000000E+00 0. -1.
         11    1    3    3    0    0 -0.75005523895E+01 -0.18048890323E+01  0.36158837395E+01  0.85200073970E+01  0.51100000000E-03 0. -1.
        -11    1    3    3    0    0  0.19879978845E+02 -0.55428619335E+01  0.28805237354E+02  0.35435555259E+02  0.51100000000E-03 0.  1.
        -12    1    3    3    0    0 -0.14163195230E+01 -0.39351940501E+01  0.50711534831E+01  0.65733028876E+01  0.00000000000E+00 0.  1.
</event>
<event>
 7    1  0.2991278E-011  0.5052886E+02  0.7816164E-02  0.1300439E+00
        -11   -1    0    0    0    0  0.00000000000E+00  0.00000000000E+00  0.45593999997E+02  0.45594000000E+02  0.51100000000E-03 0. -1.
         11   -1    0    0    0    0 -0.00000000000E+00 -0.00000000000E+00 -0.45593999997E+02  0.45594000000E+02  0.51100000000E-03 0.  1.
    9900012    2    1    2    0    0  0.32405778900E+02  0.24556489450E+02  0.10078988401E+00  0.50528857869E+02  0.29999993978E+02 0.  0.
         12    1    1    2    0    0 -0.32405778900E+02 -0.24556489450E+02 -0.10078988401E+00  0.40659142131E+02  0.00000000000E+00 0. -1.
         11    1    3    3    0    0  0.17562139985E+02  0.10046590158E+02  0.47883573800E+00  0.20238379841E+02  0.51100000000E-03 0. -1.
        -11    1    3    3    0    0  0.35240640527E+01  0.10185782362E+02 -0.10087958552E+02  0.14762658899E+02  0.51100000000E-03 0.  1.
        -12    1    3    3    0    0  0.11319574862E+02  0.43241169298E+01  0.97099126978E+01  0.15527819128E+02  0.00000000000E+00 0.  1.
</event>
<event>
 7    1  0.2991278E-011  0.5052886E+02  0.7816164E-02  0.1300439E+00
        -11   -1    0    0    0    0  0.00000000000E+00  0.00000000000E+00  0.45593999997E+02  0.45594000000E+02  0.51100000000E-03 0. -1.
         11   -1    0    0    0    0 -0.00000000000E+00 -0.00000000000E+00 -0.45593999997E+02  0.45594000000E+02  0.51100000000E-03 0.  1.
    9900012    2    1    2    0    0  0.34056410072E+02 -0.93329448613E+01 -0.20154974192E+02  0.50528856976E+02  0.29999991264E+02 0.  0.
         12    1    1    2    0    0 -0.34056410072E+02  0.93329448613E+01  0.20154974192E+02  0.40659143024E+02  0.00000000000E+00 0. -1.
         11    1    3    3    0    0  0.27582693978E+02  0.44080313604E+00 -0.10736569923E+01  0.27607101516E+02  0.51100000000E-03 0. -1.
        -11    1    3    3    0    0  0.25718124278E+01 -0.75272391181E+01 -0.99327838264E+01  0.12725318963E+02  0.51100000000E-03 0.  1.
         12    1    3    3    0    0  0.39019036657E+01 -0.22465088793E+01 -0.91485333732E+01  0.10196436497E+02  0.00000000000E+00 0. -1.
</event>
<event>
 7    1  0.2991278E-011  0.5052886E+02  0.7816164E-02  0.1300439E+00
        -11   -1    0    0    0    0  0.00000000000E+00  0.00000000000E+00  0.45593999997E+02  0.45594000000E+02  0.51100000000E-03 0.  1.
         11   -1    0    0    0    0 -0.00000000000E+00 -0.00000000000E+00 -0.45593999997E+02  0.45594000000E+02  0.51100000000E-03 0. -1.
    9900012    2    1    2    0    0  0.37487434575E+00  0.19429056096E+01  0.40610966312E+02  0.50528855914E+02  0.29999988037E+02 0.  0.
         12    1    1    2    0    0 -0.37487434575E+00 -0.19429056096E+01 -0.40610966312E+02  0.40659144086E+02  0.00000000000E+00 0. -1.
         11    1    3    3    0    0  0.58140954590E+01  0.61127399210E+01  0.20110486678E+01  0.86725781837E+01  0.51100000000E-03 0. -1.
        -11    1    3    3    0    0 -0.86227652170E+01  0.12256294994E+01  0.29851823652E+02  0.31096392448E+02  0.51100000000E-03 0.  1.
         12    1    3    3    0    0  0.31835441038E+01 -0.53954638108E+01  0.87480939920E+01  0.10759885282E+02  0.00000000000E+00 0. -1.
</event>
<event>
 7    1  0.2991278E-011  0.5052886E+02  0.7816164E-02  0.1300439E+00
        -11   -1    0    0    0    0  0.00000000000E+00  0.00000000000E+00  0.45593999997E+02  0.45594000000E+02  0.51100000000E-03 0.  1.
         11   -1    0    0    0    0 -0.00000000000E+00 -0.00000000000E+00 -0.45593999997E+02  0.45594000000E+02  0.51100000000E-03 0. -1.
    9900012    2    1    2    0    0  0.37247652149E+02  0.54893469816E+01 -0.15350747315E+02  0.50528856330E+02  0.29999989300E+02 0.  0.
         12    1    1    2    0    0 -0.37247652149E+02 -0.54893469816E+01  0.15350747315E+02  0.40659143670E+02  0.00000000000E+00 0. -1.
         11    1    3    3    0    0  0.39296405263E+01 -0.94382369018E+01 -0.83236717869E+00  0.10257447337E+02  0.51100000000E-03 0. -1.
        -11    1    3    3    0    0  0.21112570128E+02  0.71258486427E+01 -0.47036452826E+01  0.22773726430E+02  0.51100000000E-03 0.  1.
         12    1    3    3    0    0  0.12205441494E+02  0.78017352406E+01 -0.98147348539E+01  0.17497682563E+02  0.00000000000E+00 0. -1.
</event>
<event>
 7    1  0.2991278E-011  0.5052888E+02  0.7816164E-02  0.1300439E+00
        -11   -1    0    0    0    0  0.00000000000E+00  0.00000000000E+00  0.45593999997E+02  0.45594000000E+02  0.51100000000E-03 0.  1.
         11   -1    0    0    0    0 -0.00000000000E+00 -0.00000000000E+00 -0.45593999997E+02  0.45594000000E+02  0.51100000000E-03 0. -1.
    9900012    2    1    2    0    0  0.38871577034E+01  0.55134539111E+01  0.40095584520E+02  0.50528879658E+02  0.30000060207E+02 0.  0.
         12    1    1    2    0    0 -0.38871577034E+01 -0.55134539111E+01 -0.40095584520E+02  0.40659120342E+02  0.00000000000E+00 0. -1.
         11    1    3    3    0    0  0.51761221864E+01  0.20982479271E+01 -0.22723290641E+01  0.60297897881E+01  0.51100000000E-03 0. -1.
        -11    1    3    3    0    0  0.13911421743E+00  0.77428406170E+01  0.34913476733E+02  0.35762016043E+02  0.51100000000E-03 0.  1.
        -12    1    3    3    0    0 -0.14280787004E+01 -0.43276346330E+01  0.74544368504E+01  0.87370738264E+01  0.00000000000E+00 0.  1.
</event>
<event>
 7    1  0.2991278E-011  0.5052890E+02  0.7816164E-02  0.1300439E+00
        -11   -1    0    0    0    0  0.00000000000E+00  0.00000000000E+00  0.45593999997E+02  0.45594000000E+02  0.51100000000E-03 0.  1.
         11   -1    0    0    0    0 -0.00000000000E+00 -0.00000000000E+00 -0.45593999997E+02  0.45594000000E+02  0.51100000000E-03 0. -1.
    9900012    2    1    2    0    0  0.55849863729E+01 -0.38676091964E+02  0.11230755779E+02  0.50528904612E+02  0.30000136057E+02 0.  0.
         12    1    1    2    0    0 -0.55849863729E+01  0.38676091964E+02 -0.11230755779E+02  0.40659095388E+02  0.00000000000E+00 0. -1.
         11    1    3    3    0    0  0.12653544714E+01 -0.22334453761E+02  0.84914506550E+01  0.23927676051E+02  0.51100000000E-03 0.  1.
        -11    1    3    3    0    0 -0.47328372647E+01 -0.28427032638E+01 -0.59948946793E+01  0.81498142861E+01  0.51100000000E-03 0. -1.
         12    1    3    3    0    0  0.90524691662E+01 -0.13498934940E+02  0.87341998034E+01  0.18451414274E+02  0.00000000000E+00 0. -1.
</event>
<event>
 7    1  0.2991278E-011  0.5052886E+02  0.7816164E-02  0.1300439E+00
        -11   -1    0    0    0    0  0.00000000000E+00  0.00000000000E+00  0.45593999997E+02  0.45594000000E+02  0.51100000000E-03 0. -1.
         11   -1    0    0    0    0 -0.00000000000E+00 -0.00000000000E+00 -0.45593999997E+02  0.45594000000E+02  0.51100000000E-03 0.  1.
    9900012    2    1    2    0    0 -0.18854396535E+02 -0.23079824083E+02 -0.27658611663E+02  0.50528863911E+02  0.30000012343E+02 0.  0.
         12    1    1    2    0    0  0.18854396535E+02  0.23079824083E+02  0.27658611663E+02  0.40659136089E+02  0.00000000000E+00 0. -1.
         11    1    3    3    0    0 -0.83013606648E+01 -0.55218078537E+01 -0.78816961727E-01  0.99704143964E+01  0.51100000000E-03 0. -1.
        -11    1    3    3    0    0 -0.30821293180E+01 -0.56148949213E+01 -0.25531870742E+02  0.26323050545E+02  0.51100000000E-03 0.  1.
        -12    1    3    3    0    0 -0.74709065525E+01 -0.11943121308E+02 -0.20479239590E+01  0.14235398970E+02  0.00000000000E+00 0.  1.
</event>
<event>
 7    1  0.2991278E-011  0.5052886E+02  0.7816164E-02  0.1300439E+00
        -11   -1    0    0    0    0  0.00000000000E+00  0.00000000000E+00  0.45593999997E+02  0.45594000000E+02  0.51100000000E-03 0. -1.
         11   -1    0    0    0    0 -0.00000000000E+00 -0.00000000000E+00 -0.45593999997E+02  0.45594000000E+02  0.51100000000E-03 0.  1.
    9900012    2    1    2    0    0  0.73894571741E+01  0.29352678477E+02 -0.27147413314E+02  0.50528857600E+02  0.29999993160E+02 0.  0.
         12    1    1    2    0    0 -0.73894571741E+01 -0.29352678477E+02  0.27147413314E+02  0.40659142400E+02  0.00000000000E+00 0. -1.
         11    1    3    3    0    0 -0.78344130342E+00  0.12569164433E+02 -0.23450371125E+02  0.26617993557E+02  0.51100000000E-03 0. -1.
        -11    1    3    3    0    0  0.12024846098E+02  0.13108463156E+02 -0.70183699686E+00  0.17802283714E+02  0.51100000000E-03 0.  1.
         12    1    3    3    0    0 -0.38519476205E+01  0.36750508874E+01 -0.29952051918E+01  0.61085803291E+01  0.00000000000E+00 0. -1.
</event>
<event>
 7    1  0.2991278E-011  0.5052885E+02  0.7816164E-02  0.1300439E+00
        -11   -1    0    0    0    0  0.00000000000E+00  0.00000000000E+00  0.45593999997E+02  0.45594000000E+02  0.51100000000E-03 0.  1.
         11   -1    0    0    0    0 -0.00000000000E+00 -0.00000000000E+00 -0.45593999997E+02  0.45594000000E+02  0.51100000000E-03 0. -1.
    9900012    2    1    2    0    0  0.37707357212E+02  0.14989858474E+02  0.25740086332E+01  0.50528853853E+02  0.29999981772E+02 0.  0.
         12    1    1    2    0    0 -0.37707357212E+02 -0.14989858474E+02 -0.25740086332E+01  0.40659146147E+02  0.00000000000E+00 0. -1.
         11    1    3    3    0    0  0.98693358492E+01 -0.46757011986E+01  0.36926813506E+00  0.10927137366E+02  0.51100000000E-03 0. -1.
        -11    1    3    3    0    0  0.28807127175E+02  0.21366211319E+02 -0.96203027064E+00  0.35878838675E+02  0.51100000000E-03 0.  1.
        -12    1    3    3    0    0 -0.96910581232E+00 -0.17006516461E+01  0.31667707688E+01  0.37228778114E+01  0.00000000000E+00 0.  1.
</event>
<event>
 7    1  0.2991278E-011  0.5052885E+02  0.7816164E-02  0.1300439E+00
        -11   -1    0    0    0    0  0.00000000000E+00  0.00000000000E+00  0.45593999997E+02  0.45594000000E+02  0.51100000000E-03 0. -1.
         11   -1    0    0    0    0 -0.00000000000E+00 -0.00000000000E+00 -0.45593999997E+02  0.45594000000E+02  0.51100000000E-03 0.  1.
    9900012    2    1    2    0    0  0.27360000474E+02 -0.11409066966E+02  0.27828579015E+02  0.50528852874E+02  0.29999978797E+02 0.  0.
         12    1    1    2    0    0 -0.27360000474E+02  0.11409066966E+02 -0.27828579015E+02  0.40659147126E+02  0.00000000000E+00 0. -1.
         11    1    3    3    0    0 -0.43795770183E+01 -0.24637843942E+01  0.79493266942E+01  0.94043991595E+01  0.51100000000E-03 0. -1.
        -11    1    3    3    0    0  0.32325974236E+02 -0.10654258407E+02  0.17943945254E+02  0.38476837241E+02  0.51100000000E-03 0.  1.
        -12    1    3    3    0    0 -0.58639674361E+00  0.17089758358E+01  0.19353070677E+01  0.26476164742E+01  0.00000000000E+00 0.  1.
</event>
<event>
 7    1  0.2991278E-011  0.5052885E+02  0.7816164E-02  0.1300439E+00
        -11   -1    0    0    0    0  0.00000000000E+00  0.00000000000E+00  0.45593999997E+02  0.45594000000E+02  0.51100000000E-03 0.  1.
         11   -1    0    0    0    0 -0.00000000000E+00 -0.00000000000E+00 -0.45593999997E+02  0.45594000000E+02  0.51100000000E-03 0. -1.
    9900012    2    1    2    0    0  0.24022012756E+02  0.32327328016E+02  0.55725120477E+01  0.50528854361E+02  0.29999983317E+02 0.  0.
         12    1    1    2    0    0 -0.24022012756E+02 -0.32327328016E+02 -0.55725120477E+01  0.40659145639E+02  0.00000000000E+00 0. -1.
         11    1    3    3    0    0  0.26174061741E+01  0.22695988075E+02  0.89701741224E+01  0.24544301046E+02  0.51100000000E-03 0. -1.
        -11    1    3    3    0    0  0.18731709735E+02  0.47573244023E+01  0.26387330498E+00  0.19328184458E+02  0.51100000000E-03 0.  1.
         12    1    3    3    0    0  0.26728968472E+01  0.48740155390E+01 -0.36615353796E+01  0.66563688574E+01  0.00000000000E+00 0. -1.
</event>
<event>
 7    1  0.2991278E-011  0.5052885E+02  0.7816164E-02  0.1300439E+00
        -11   -1    0    0    0    0  0.00000000000E+00  0.00000000000E+00  0.45593999997E+02  0.45594000000E+02  0.51100000000E-03 0.  1.
         11   -1    0    0    0    0 -0.00000000000E+00 -0.00000000000E+00 -0.45593999997E+02  0.45594000000E+02  0.51100000000E-03 0. -1.
    9900012    2    1    2    0    0 -0.28570526749E+02 -0.10091041244E+02  0.27112029719E+02  0.50528852596E+02  0.29999977950E+02 0.  0.
         12    1    1    2    0    0  0.28570526749E+02  0.10091041244E+02 -0.27112029719E+02  0.40659147404E+02  0.00000000000E+00 0. -1.
         11    1    3    3    0    0 -0.61821225205E+00  0.47190617594E+01 -0.24871741409E+01  0.53700806089E+01  0.51100000000E-03 0. -1.
        -11    1    3    3    0    0 -0.17661736787E+02 -0.55670321246E+01  0.96460907590E+01  0.20880034966E+02  0.51100000000E-03 0.  1.
         12    1    3    3    0    0 -0.10290577711E+02 -0.92430708789E+01  0.19953113101E+02  0.24278737021E+02  0.00000000000E+00 0. -1.
</event>
<event>
 7    1  0.2991278E-011  0.5052886E+02  0.7816164E-02  0.1300439E+00
        -11   -1    0    0    0    0  0.00000000000E+00  0.00000000000E+00  0.45593999997E+02  0.45594000000E+02  0.51100000000E-03 0.  1.
         11   -1    0    0    0    0 -0.00000000000E+00 -0.00000000000E+00 -0.45593999997E+02  0.45594000000E+02  0.51100000000E-03 0. -1.
    9900012    2    1    2    0    0 -0.14808527593E+02 -0.63374611379E+00  0.37861218063E+02  0.50528856418E+02  0.29999989567E+02 0.  0.
         12    1    1    2    0    0  0.14808527593E+02  0.63374611379E+00 -0.37861218063E+02  0.40659143582E+02  0.00000000000E+00 0. -1.
         11    1    3    3    0    0 -0.14020967697E+02 -0.87503653413E+01  0.60356471830E+01  0.17595040948E+02  0.51100000000E-03 0. -1.
        -11    1    3    3    0    0  0.55503003670E+00  0.32788447566E+01  0.10008426784E+02  0.10546444340E+02  0.51100000000E-03 0.  1.
         12    1    3    3    0    0 -0.13425899328E+01  0.48377744709E+01  0.21817144096E+02  0.22387371129E+02  0.00000000000E+00 0. -1.
</event>
<event>
 7    1  0.2991278E-011  0.5052886E+02  0.7816164E-02  0.1300439E+00
        -11   -1    0    0    0    0  0.00000000000E+00  0.00000000000E+00  0.45593999997E+02  0.45594000000E+02  0.51100000000E-03 0. -1.
         11   -1    0    0    0    0 -0.00000000000E+00 -0.00000000000E+00 -0.45593999997E+02  0.45594000000E+02  0.51100000000E-03 0.  1.
    9900012    2    1    2    0    0 -0.51504652656E+00 -0.56504026190E+01 -0.40261312774E+02  0.50528860449E+02  0.30000001822E+02 0.  0.
         12    1    1    2    0    0  0.51504652656E+00  0.56504026190E+01  0.40261312774E+02  0.40659139551E+02  0.00000000000E+00 0. -1.
         11    1    3    3    0    0  0.39296986585E+01  0.52351328243E+01  0.24781205152E+00  0.65506151092E+01  0.51100000000E-03 0. -1.
        -11    1    3    3    0    0 -0.76183984778E+01 -0.30832914945E+01 -0.14858120450E+02  0.16979706280E+02  0.51100000000E-03 0.  1.
         12    1    3    3    0    0  0.31736532928E+01 -0.78022439488E+01 -0.25651004376E+02  0.26998539060E+02  0.00000000000E+00 0. -1.
</event>
<event>
 7    1  0.2991278E-011  0.5052886E+02  0.7816164E-02  0.1300439E+00
        -11   -1    0    0    0    0  0.00000000000E+00  0.00000000000E+00  0.45593999997E+02  0.45594000000E+02  0.51100000000E-03 0. -1.
         11   -1    0    0    0    0 -0.00000000000E+00 -0.00000000000E+00 -0.45593999997E+02  0.45594000000E+02  0.51100000000E-03 0.  1.
    9900012    2    1    2    0    0 -0.23384396632E+02  0.32487962089E+02 -0.71321535805E+01  0.50528864480E+02  0.30000014072E+02 0.  0.
         12    1    1    2    0    0  0.23384396632E+02 -0.32487962089E+02  0.71321535805E+01  0.40659135520E+02  0.00000000000E+00 0. -1.
         11    1    3    3    0    0  0.45392684632E+01  0.13169907036E+02  0.37110259537E+01  0.14416071705E+02  0.51100000000E-03 0. -1.
        -11    1    3    3    0    0 -0.85802055091E+01  0.75705359874E+01 -0.61847075595E+01  0.13007057683E+02  0.51100000000E-03 0.  1.
         12    1    3    3    0    0 -0.19343459586E+02  0.11747519066E+02 -0.46584719748E+01  0.23105735091E+02  0.00000000000E+00 0. -1.
</event>
<event>
 7    1  0.2991278E-011  0.5052885E+02  0.7816164E-02  0.1300439E+00
        -11   -1    0    0    0    0  0.00000000000E+00  0.00000000000E+00  0.45593999997E+02  0.45594000000E+02  0.51100000000E-03 0. -1.
         11   -1    0    0    0    0 -0.00000000000E+00 -0.00000000000E+00 -0.45593999997E+02  0.45594000000E+02  0.51100000000E-03 0.  1.
    9900012    2    1    2    0    0  0.15205172648E+02  0.19023585621E+01 -0.37660986672E+02  0.50528853914E+02  0.29999981957E+02 0.  0.
         12    1    1    2    0    0 -0.15205172648E+02 -0.19023585621E+01  0.37660986672E+02  0.40659146086E+02  0.00000000000E+00 0. -1.
         11    1    3    3    0    0 -0.31968246496E+01  0.56573113096E+00  0.29846210738E+01  0.44099549621E+01  0.51100000000E-03 0. -1.
        -11    1    3    3    0    0  0.13589292408E+02  0.85054304749E+00 -0.38482136695E+02  0.40819935528E+02  0.51100000000E-03 0.  1.
        -12    1    3    3    0    0  0.48127048896E+01  0.48608438362E+00 -0.21634710508E+01  0.52989634241E+01  0.00000000000E+00 0.  1.
</event>
<event>
 7    1  0.2991278E-011  0.5052885E+02  0.7816164E-02  0.1300439E+00
        -11   -1    0    0    0    0  0.00000000000E+00  0.00000000000E+00  0.45593999997E+02  0.45594000000E+02  0.51100000000E-03 0.  1.
         11   -1    0    0    0    0 -0.00000000000E+00 -0.00000000000E+00 -0.45593999997E+02  0.45594000000E+02  0.51100000000E-03 0. -1.
    9900012    2    1    2    0    0  0.16730845176E+01 -0.20064860914E+02  0.35323764097E+02  0.50528853855E+02  0.29999981777E+02 0.  0.
         12    1    1    2    0    0 -0.16730845176E+01  0.20064860914E+02 -0.35323764097E+02  0.40659146145E+02  0.00000000000E+00 0. -1.
         11    1    3    3    0    0  0.65308081892E+01 -0.61996492072E+01  0.67919799589E+01  0.11279100049E+02  0.51100000000E-03 0. -1.
        -11    1    3    3    0    0 -0.98115063013E+01 -0.84533102978E+01  0.38654294854E+01  0.13515385909E+02  0.51100000000E-03 0.  1.
        -12    1    3    3    0    0  0.49537826297E+01 -0.54119014087E+01  0.24666354653E+02  0.25734367897E+02  0.00000000000E+00 0.  1.
</event>
<event>
 7    1  0.2991278E-011  0.5052886E+02  0.7816164E-02  0.1300439E+00
        -11   -1    0    0    0    0  0.00000000000E+00  0.00000000000E+00  0.45593999997E+02  0.45594000000E+02  0.51100000000E-03 0. -1.
         11   -1    0    0    0    0 -0.00000000000E+00 -0.00000000000E+00 -0.45593999997E+02  0.45594000000E+02  0.51100000000E-03 0.  1.
    9900012    2    1    2    0    0  0.15843430304E+02 -0.12253155151E+02 -0.35383775500E+02  0.50528860024E+02  0.30000000528E+02 0.  0.
         12    1    1    2    0    0 -0.15843430304E+02  0.12253155151E+02  0.35383775500E+02  0.40659139976E+02  0.00000000000E+00 0. -1.
         11    1    3    3    0    0 -0.28031806965E+01 -0.81988002667E+01  0.14721128628E+00  0.86660151889E+01  0.51100000000E-03 0. -1.
        -11    1    3    3    0    0  0.13464687780E+01  0.32823243989E+00 -0.13218818570E+02  0.13291270795E+02  0.51100000000E-03 0.  1.
         12    1    3    3    0    0  0.17300142222E+02 -0.43825873240E+01 -0.22312168217E+02  0.28571574039E+02  0.00000000000E+00 0. -1.
</event>
<event>
 7    1  0.2991278E-011  0.5052885E+02  0.7816164E-02  0.1300439E+00
        -11   -1    0    0    0    0  0.00000000000E+00  0.00000000000E+00  0.45593999997E+02  0.45594000000E+02  0.51100000000E-03 0. -1.
         11   -1    0    0    0    0 -0.00000000000E+00 -0.00000000000E+00 -0.45593999997E+02  0.45594000000E+02  0.51100000000E-03 0.  1.
    9900012    2    1    2    0    0  0.10474729964E+02 -0.19538066855E+02 -0.34083872241E+02  0.50528851322E+02  0.29999974079E+02 0.  0.
         12    1    1    2    0    0 -0.10474729964E+02  0.19538066855E+02  0.34083872241E+02  0.40659148678E+02  0.00000000000E+00 0. -1.
         11    1    3    3    0    0 -0.40785827586E+01  0.34986215766E+00 -0.11850846702E+02  0.12537934785E+02  0.51100000000E-03 0. -1.
        -11    1    3    3    0    0  0.15194253220E+02 -0.61041684232E+01 -0.82104080299E+01  0.18317669156E+02  0.51100000000E-03 0.  1.
        -12    1    3    3    0    0 -0.64094049754E+00 -0.13783760590E+02 -0.14022617509E+02  0.19673247381E+02  0.00000000000E+00 0.  1.
</event>
<event>
 7    1  0.2991278E-011  0.5052886E+02  0.7816164E-02  0.1300439E+00
        -11   -1    0    0    0    0  0.00000000000E+00  0.00000000000E+00  0.45593999997E+02  0.45594000000E+02  0.51100000000E-03 0.  1.
         11   -1    0    0    0    0 -0.00000000000E+00 -0.00000000000E+00 -0.45593999997E+02  0.45594000000E+02  0.51100000000E-03 0. -1.
    9900012    2    1    2    0    0 -0.17708609749E+02  0.12614389540E+02  0.34357643240E+02  0.50528864105E+02  0.30000012935E+02 0.  0.
         12    1    1    2    0    0  0.17708609749E+02 -0.12614389540E+02 -0.34357643240E+02  0.40659135895E+02  0.00000000000E+00 0. -1.
         11    1    3    3    0    0 -0.59328942368E+01 -0.57027564021E+01  0.99494818904E+01  0.12911733220E+02  0.51100000000E-03 0. -1.
        -11    1    3    3    0    0 -0.34021335091E+01  0.14217358647E+02  0.24222400661E+02  0.28291915689E+02  0.51100000000E-03 0.  1.
        -12    1    3    3    0    0 -0.83735820026E+01  0.40997872945E+01  0.18576068853E+00  0.93252151958E+01  0.00000000000E+00 0.  1.
</event>
<event>
 7    1  0.2991278E-011  0.5052886E+02  0.7816164E-02  0.1300439E+00
        -11   -1    0    0    0    0  0.00000000000E+00  0.00000000000E+00  0.45593999997E+02  0.45594000000E+02  0.51100000000E-03 0.  1.
         11   -1    0    0    0    0 -0.00000000000E+00 -0.00000000000E+00 -0.45593999997E+02  0.45594000000E+02  0.51100000000E-03 0. -1.
    9900012    2    1    2    0    0  0.22564559404E+02  0.26025603970E+02  0.21602652638E+02  0.50528855837E+02  0.29999987802E+02 0.  0.
         12    1    1    2    0    0 -0.22564559404E+02 -0.26025603970E+02 -0.21602652638E+02  0.40659144163E+02  0.00000000000E+00 0. -1.
         11    1    3    3    0    0 -0.11286112747E+01  0.16109693517E+02  0.64146547194E+01  0.17376529690E+02  0.51100000000E-03 0. -1.
        -11    1    3    3    0    0  0.12255180151E+02 -0.15382582071E+00  0.12810231907E+02  0.17728935238E+02  0.51100000000E-03 0.  1.
        -12    1    3    3    0    0  0.11437990528E+02  0.10069736273E+02  0.23777660113E+01  0.15423390909E+02  0.00000000000E+00 0.  1.
</event>
<event>
 7    1  0.2991278E-011  0.5052886E+02  0.7816164E-02  0.1300439E+00
        -11   -1    0    0    0    0  0.00000000000E+00  0.00000000000E+00  0.45593999997E+02  0.45594000000E+02  0.51100000000E-03 0. -1.
         11   -1    0    0    0    0 -0.00000000000E+00 -0.00000000000E+00 -0.45593999997E+02  0.45594000000E+02  0.51100000000E-03 0.  1.
    9900012    2    1    2    0    0 -0.14625339799E+02  0.12218468625E+01 -0.37917969631E+02  0.50528857179E+02  0.29999991882E+02 0.  0.
         12    1    1    2    0    0  0.14625339799E+02 -0.12218468625E+01  0.37917969631E+02  0.40659142821E+02  0.00000000000E+00 0. -1.
         11    1    3    3    0    0  0.48179915415E+01 -0.56211909559E+00 -0.89909540009E+01  0.10215981327E+02  0.51100000000E-03 0. -1.
        -11    1    3    3    0    0 -0.17921071521E+02  0.94509298554E+01 -0.20993811991E+02  0.29175760860E+02  0.51100000000E-03 0.  1.
         12    1    3    3    0    0 -0.15222598196E+01 -0.76669638973E+01 -0.79332036388E+01  0.11137114992E+02  0.00000000000E+00 0. -1.
</event>
<event>
 7    1  0.2991278E-011  0.5052886E+02  0.7816164E-02  0.1300439E+00
        -11   -1    0    0    0    0  0.00000000000E+00  0.00000000000E+00  0.45593999997E+02  0.45594000000E+02  0.51100000000E-03 0.  1.
         11   -1    0    0    0    0 -0.00000000000E+00 -0.00000000000E+00 -0.45593999997E+02  0.45594000000E+02  0.51100000000E-03 0. -1.
    9900012    2    1    2    0    0 -0.10564657594E+02  0.90680143626E+00  0.39252150730E+02  0.50528860611E+02  0.30000002314E+02 0.  0.
         12    1    1    2    0    0  0.10564657594E+02 -0.90680143626E+00 -0.39252150730E+02  0.40659139389E+02  0.00000000000E+00 0. -1.
         11    1    3    3    0    0 -0.12252640521E+02  0.10295216325E+02  0.31794044641E+02  0.35594661872E+02  0.51100000000E-03 0.  1.
        -11    1    3    3    0    0  0.34408682655E+01 -0.69496649533E+01  0.87262335191E+01  0.11674098213E+02  0.51100000000E-03 0. -1.
        -12    1    3    3    0    0 -0.17528853394E+01 -0.24387499354E+01 -0.12681274307E+01  0.32601005263E+01  0.00000000000E+00 0.  1.
</event>
<event>
 7    1  0.2991278E-011  0.5052887E+02  0.7816164E-02  0.1300439E+00
        -11   -1    0    0    0    0  0.00000000000E+00  0.00000000000E+00  0.45593999997E+02  0.45594000000E+02  0.51100000000E-03 0.  1.
         11   -1    0    0    0    0 -0.00000000000E+00 -0.00000000000E+00 -0.45593999997E+02  0.45594000000E+02  0.51100000000E-03 0. -1.
    9900012    2    1    2    0    0 -0.24318675726E+02 -0.82568635245E+01  0.31521284701E+02  0.50528866050E+02  0.30000018847E+02 0.  0.
         12    1    1    2    0    0  0.24318675726E+02  0.82568635245E+01 -0.31521284701E+02  0.40659133950E+02  0.00000000000E+00 0. -1.
         11    1    3    3    0    0 -0.24944311512E+02 -0.61143066207E+01  0.10723241377E+02  0.27831480884E+02  0.51100000000E-03 0. -1.
        -11    1    3    3    0    0 -0.22375037749E+01 -0.39597957113E+01  0.60755430278E+01  0.75893760324E+01  0.51100000000E-03 0.  1.
         12    1    3    3    0    0  0.28631395614E+01  0.18172388075E+01  0.14722500296E+02  0.15108009135E+02  0.00000000000E+00 0. -1.
</event>
<event>
 7    1  0.2991278E-011  0.5052885E+02  0.7816164E-02  0.1300439E+00
        -11   -1    0    0    0    0  0.00000000000E+00  0.00000000000E+00  0.45593999997E+02  0.45594000000E+02  0.51100000000E-03 0.  1.
         11   -1    0    0    0    0 -0.00000000000E+00 -0.00000000000E+00 -0.45593999997E+02  0.45594000000E+02  0.51100000000E-03 0. -1.
    9900012    2    1    2    0    0 -0.20319742501E+02 -0.26714986750E+02  0.22947412582E+02  0.50528853470E+02  0.29999980607E+02 0.  0.
         12    1    1    2    0    0  0.20319742501E+02  0.26714986750E+02 -0.22947412582E+02  0.40659146530E+02  0.00000000000E+00 0. -1.
         11    1    3    3    0    0 -0.33147532285E+01 -0.36988882484E+01 -0.61992444811E+01  0.79435505687E+01  0.51100000000E-03 0. -1.
        -11    1    3    3    0    0 -0.11221120216E+02 -0.18758094835E+02  0.27654357611E+02  0.35249725614E+02  0.51100000000E-03 0.  1.
         12    1    3    3    0    0 -0.57838690558E+01 -0.42580036662E+01  0.14922994525E+01  0.73355772868E+01  0.00000000000E+00 0. -1.
</event>
<event>
 7    1  0.2991278E-011  0.5052887E+02  0.7816164E-02  0.1300439E+00
        -11   -1    0    0    0    0  0.00000000000E+00  0.00000000000E+00  0.45593999997E+02  0.45594000000E+02  0.51100000000E-03 0.  1.
         11   -1    0    0    0    0 -0.00000000000E+00 -0.00000000000E+00 -0.45593999997E+02  0.45594000000E+02  0.51100000000E-03 0. -1.
    9900012    2    1    2    0    0  0.13031213306E+02 -0.26042705641E+02  0.28374814667E+02  0.50528866405E+02  0.30000019924E+02 0.  0.
         12    1    1    2    0    0 -0.13031213306E+02  0.26042705641E+02 -0.28374814667E+02  0.40659133595E+02  0.00000000000E+00 0. -1.
         11    1    3    3    0    0  0.51107771137E+01  0.48716448372E+01  0.36073801924E+01  0.79288182120E+01  0.51100000000E-03 0. -1.
        -11    1    3    3    0    0  0.10700373861E+02 -0.15955699632E+02  0.11347456316E+02  0.22312487907E+02  0.51100000000E-03 0.  1.
         12    1    3    3    0    0 -0.27799376684E+01 -0.14958650846E+02  0.13419978159E+02  0.20287560286E+02  0.00000000000E+00 0. -1.
</event>
<event>
 7    1  0.2991278E-011  0.5052887E+02  0.7816164E-02  0.1300439E+00
        -11   -1    0    0    0    0  0.00000000000E+00  0.00000000000E+00  0.45593999997E+02  0.45594000000E+02  0.51100000000E-03 0. -1.
         11   -1    0    0    0    0 -0.00000000000E+00 -0.00000000000E+00 -0.45593999997E+02  0.45594000000E+02  0.51100000000E-03 0.  1.
    9900012    2    1    2    0    0  0.28331772069E+02  0.28621700985E+02  0.55922690685E+01  0.50528873729E+02  0.30000042186E+02 0.  0.
         12    1    1    2    0    0 -0.28331772069E+02 -0.28621700985E+02 -0.55922690685E+01  0.40659126271E+02  0.00000000000E+00 0. -1.
         11    1    3    3    0    0  0.18185537428E+02  0.16983662125E+02 -0.76156397199E+00  0.24894548212E+02  0.51100000000E-03 0.  1.
        -11    1    3    3    0    0 -0.25961091372E+00 -0.41035732123E+01  0.53365077284E+01  0.67368409460E+01  0.51100000000E-03 0. -1.
        -12    1    3    3    0    0  0.10405845554E+02  0.15741612072E+02  0.10173253121E+01  0.18897484571E+02  0.00000000000E+00 0.  1.
</event>
<event>
 7    1  0.2991278E-011  0.5052885E+02  0.7816164E-02  0.1300439E+00
        -11   -1    0    0    0    0  0.00000000000E+00  0.00000000000E+00  0.45593999997E+02  0.45594000000E+02  0.51100000000E-03 0.  1.
         11   -1    0    0    0    0 -0.00000000000E+00 -0.00000000000E+00 -0.45593999997E+02  0.45594000000E+02  0.51100000000E-03 0. -1.
    9900012    2    1    2    0    0 -0.38369199196E+02 -0.13347365508E+02 -0.16789010642E+01  0.50528851931E+02  0.29999975930E+02 0.  0.
         12    1    1    2    0    0  0.38369199196E+02  0.13347365508E+02  0.16789010642E+01  0.40659148069E+02  0.00000000000E+00 0. -1.
         11    1    3    3    0    0 -0.77179173827E+01  0.38107580983E+01 -0.82869263510E+01  0.11948274964E+02  0.51100000000E-03 0. -1.
        -11    1    3    3    0    0 -0.30147696507E+02 -0.16191593528E+02  0.24791793756E+01  0.34310313848E+02  0.51100000000E-03 0.  1.
        -12    1    3    3    0    0 -0.50358530562E+00 -0.96653007768E+00  0.41288459111E+01  0.42702631194E+01  0.00000000000E+00 0.  1.
</event>
<event>
 7    1  0.2991278E-011  0.5052886E+02  0.7816164E-02  0.1300439E+00
        -11   -1    0    0    0    0  0.00000000000E+00  0.00000000000E+00  0.45593999997E+02  0.45594000000E+02  0.51100000000E-03 0.  1.
         11   -1    0    0    0    0 -0.00000000000E+00 -0.00000000000E+00 -0.45593999997E+02  0.45594000000E+02  0.51100000000E-03 0. -1.
    9900012    2    1    2    0    0  0.24740701905E+02 -0.32075602487E+02  0.34955470320E+01  0.50528862593E+02  0.30000008337E+02 0.  0.
         12    1    1    2    0    0 -0.24740701905E+02  0.32075602487E+02 -0.34955470320E+01  0.40659137407E+02  0.00000000000E+00 0. -1.
         11    1    3    3    0    0 -0.15375520159E+01 -0.13535466982E+02 -0.56609453063E+01  0.14751923083E+02  0.51100000000E-03 0. -1.
        -11    1    3    3    0    0  0.17461420987E+02 -0.17219621719E+02  0.10651877458E+02  0.26737222905E+02  0.51100000000E-03 0.  1.
         12    1    3    3    0    0  0.88168329341E+01 -0.13205137859E+01 -0.14953851197E+01  0.90397166052E+01  0.00000000000E+00 0. -1.
</event>
<event>
 7    1  0.2991278E-011  0.5052886E+02  0.7816164E-02  0.1300439E+00
        -11   -1    0    0    0    0  0.00000000000E+00  0.00000000000E+00  0.45593999997E+02  0.45594000000E+02  0.51100000000E-03 0. -1.
         11   -1    0    0    0    0 -0.00000000000E+00 -0.00000000000E+00 -0.45593999997E+02  0.45594000000E+02  0.51100000000E-03 0.  1.
    9900012    2    1    2    0    0 -0.39294365674E+02  0.63981567310E+01 -0.82572294532E+01  0.50528863001E+02  0.30000009576E+02 0.  0.
         12    1    1    2    0    0  0.39294365674E+02 -0.63981567310E+01  0.82572294532E+01  0.40659136999E+02  0.00000000000E+00 0. -1.
         11    1    3    3    0    0 -0.97140524172E+01  0.10854921525E+02 -0.51158067823E+01  0.15439028952E+02  0.51100000000E-03 0. -1.
        -11    1    3    3    0    0 -0.31233452992E+02 -0.15853803951E+01 -0.13032104703E+01  0.31300804695E+02  0.51100000000E-03 0.  1.
        -12    1    3    3    0    0  0.16531397346E+01 -0.28713843988E+01 -0.18382122007E+01  0.37890293536E+01  0.00000000000E+00 0.  1.
</event>
<event>
 7    1  0.2991278E-011  0.5052885E+02  0.7816164E-02  0.1300439E+00
        -11   -1    0    0    0    0  0.00000000000E+00  0.00000000000E+00  0.45593999997E+02  0.45594000000E+02  0.51100000000E-03 0.  1.
         11   -1    0    0    0    0 -0.00000000000E+00 -0.00000000000E+00 -0.45593999997E+02  0.45594000000E+02  0.51100000000E-03 0. -1.
    9900012    2    1    2    0    0 -0.11656559996E+02  0.32426775838E+02  0.21582283585E+02  0.50528854081E+02  0.29999982464E+02 0.  0.
         12    1    1    2    0    0  0.11656559996E+02 -0.32426775838E+02 -0.21582283585E+02  0.40659145919E+02  0.00000000000E+00 0. -1.
         11    1    3    3    0    0 -0.58257561831E+01  0.16788924650E+01  0.13734138797E+02  0.15012817316E+02  0.51100000000E-03 0. -1.
        -11    1    3    3    0    0 -0.12778306563E+01  0.18625593723E+02  0.11667558455E+02  0.22015392644E+02  0.51100000000E-03 0.  1.
         12    1    3    3    0    0 -0.45529731563E+01  0.12122289649E+02 -0.38194136670E+01  0.13500644120E+02  0.00000000000E+00 0. -1.
</event>
<event>
 7    1  0.2991278E-011  0.5052888E+02  0.7816164E-02  0.1300439E+00
        -11   -1    0    0    0    0  0.00000000000E+00  0.00000000000E+00  0.45593999997E+02  0.45594000000E+02  0.51100000000E-03 0.  1.
         11   -1    0    0    0    0 -0.00000000000E+00 -0.00000000000E+00 -0.45593999997E+02  0.45594000000E+02  0.51100000000E-03 0. -1.
    9900012    2    1    2    0    0  0.88607573909E+01  0.33362212590E+02 -0.21485205601E+02  0.50528876667E+02  0.30000051117E+02 0.  0.
         12    1    1    2    0    0 -0.88607573909E+01 -0.33362212590E+02  0.21485205601E+02  0.40659123333E+02  0.00000000000E+00 0. -1.
         11    1    3    3    0    0 -0.54439934643E+01 -0.77281435185E+00  0.23325819596E+01  0.59728758334E+01  0.51100000000E-03 0. -1.
        -11    1    3    3    0    0  0.39631720073E+01  0.34711036089E+01 -0.39271093771E+01  0.65709573841E+01  0.51100000000E-03 0.  1.
         12    1    3    3    0    0  0.10341578848E+02  0.30663923333E+02 -0.19890678184E+02  0.37985043450E+02  0.00000000000E+00 0. -1.
</event>
<event>
 7    1  0.2991278E-011  0.5052886E+02  0.7816164E-02  0.1300439E+00
        -11   -1    0    0    0    0  0.00000000000E+00  0.00000000000E+00  0.45593999997E+02  0.45594000000E+02  0.51100000000E-03 0.  1.
         11   -1    0    0    0    0 -0.00000000000E+00 -0.00000000000E+00 -0.45593999997E+02  0.45594000000E+02  0.51100000000E-03 0. -1.
    9900012    2    1    2    0    0  0.37647322687E+02  0.51225981268E+01 -0.14477686399E+02  0.50528864243E+02  0.30000013352E+02 0.  0.
         12    1    1    2    0    0 -0.37647322687E+02 -0.51225981268E+01  0.14477686399E+02  0.40659135757E+02  0.00000000000E+00 0. -1.
         11    1    3    3    0    0  0.18698889432E+02  0.15404745698E+02 -0.12765604113E+02  0.27384581513E+02  0.51100000000E-03 0. -1.
        -11    1    3    3    0    0  0.12759174246E+02 -0.94149089425E+01  0.18276610087E+01  0.15961747488E+02  0.51100000000E-03 0.  1.
         12    1    3    3    0    0  0.61892590086E+01 -0.86723862835E+00 -0.35397432939E+01  0.71825352419E+01  0.00000000000E+00 0. -1.
</event>
<event>
 7    1  0.2991278E-011  0.5052885E+02  0.7816164E-02  0.1300439E+00
        -11   -1    0    0    0    0  0.00000000000E+00  0.00000000000E+00  0.45593999997E+02  0.45594000000E+02  0.51100000000E-03 0.  1.
         11   -1    0    0    0    0 -0.00000000000E+00 -0.00000000000E+00 -0.45593999997E+02  0.45594000000E+02  0.51100000000E-03 0. -1.
    9900012    2    1    2    0    0 -0.36592044327E+02 -0.83251698596E+01  0.15648652078E+02  0.50528850070E+02  0.29999970272E+02 0.  0.
         12    1    1    2    0    0  0.36592044327E+02  0.83251698596E+01 -0.15648652078E+02  0.40659149930E+02  0.00000000000E+00 0. -1.
         11    1    3    3    0    0  0.15396987387E+01  0.46113890830E+01  0.29990582762E+01  0.57122615737E+01  0.51100000000E-03 0. -1.
        -11    1    3    3    0    0 -0.21305604166E+02 -0.11108621634E+02  0.14049305321E+02  0.27833670684E+02  0.51100000000E-03 0.  1.
         12    1    3    3    0    0 -0.16826138899E+02 -0.18279373087E+01 -0.13997115195E+01  0.16982917812E+02  0.00000000000E+00 0. -1.
</event>
<event>
 7    1  0.2991278E-011  0.5052879E+02  0.7816164E-02  0.1300439E+00
        -11   -1    0    0    0    0  0.00000000000E+00  0.00000000000E+00  0.45593999997E+02  0.45594000000E+02  0.51100000000E-03 0.  1.
         11   -1    0    0    0    0 -0.00000000000E+00 -0.00000000000E+00 -0.45593999997E+02  0.45594000000E+02  0.51100000000E-03 0. -1.
    9900012    2    1    2    0    0 -0.66772036441E+01 -0.33186748080E+02  0.22521673160E+02  0.50528793680E+02  0.29999798870E+02 0.  0.
         12    1    1    2    0    0  0.66772036441E+01  0.33186748080E+02 -0.22521673160E+02  0.40659206320E+02  0.00000000000E+00 0. -1.
         11    1    3    3    0    0  0.90607198643E+00 -0.35474703513E+01 -0.38488574421E+01  0.53121762215E+01  0.51100000000E-03 0. -1.
        -11    1    3    3    0    0 -0.14027386800E+02 -0.25396765534E+02  0.21030652225E+02  0.35833665921E+02  0.51100000000E-03 0.  1.
        -12    1    3    3    0    0  0.64441111695E+01 -0.42425121942E+01  0.53398783768E+01  0.93829515378E+01  0.00000000000E+00 0.  1.
</event>
<event>
 7    1  0.2991278E-011  0.5052886E+02  0.7816164E-02  0.1300439E+00
        -11   -1    0    0    0    0  0.00000000000E+00  0.00000000000E+00  0.45593999997E+02  0.45594000000E+02  0.51100000000E-03 0.  1.
         11   -1    0    0    0    0 -0.00000000000E+00 -0.00000000000E+00 -0.45593999997E+02  0.45594000000E+02  0.51100000000E-03 0. -1.
    9900012    2    1    2    0    0  0.22994447496E+02  0.19181179786E+02  0.27504603733E+02  0.50528862034E+02  0.30000006637E+02 0.  0.
         12    1    1    2    0    0 -0.22994447496E+02 -0.19181179786E+02 -0.27504603733E+02  0.40659137966E+02  0.00000000000E+00 0. -1.
         11    1    3    3    0    0  0.22804614378E+01  0.19460564835E+01 -0.32981733814E+01  0.44570829161E+01  0.51100000000E-03 0. -1.
        -11    1    3    3    0    0  0.21162266361E+02  0.86895722463E+01  0.29631095325E+02  0.37434636285E+02  0.51100000000E-03 0.  1.
        -12    1    3    3    0    0 -0.44828030284E+00  0.85455510566E+01  0.11716817893E+01  0.86371428323E+01  0.00000000000E+00 0.  1.
</event>
<event>
 7    1  0.2991278E-011  0.5052885E+02  0.7816164E-02  0.1300439E+00
        -11   -1    0    0    0    0  0.00000000000E+00  0.00000000000E+00  0.45593999997E+02  0.45594000000E+02  0.51100000000E-03 0.  1.
         11   -1    0    0    0    0 -0.00000000000E+00 -0.00000000000E+00 -0.45593999997E+02  0.45594000000E+02  0.51100000000E-03 0. -1.
    9900012    2    1    2    0    0 -0.13042384098E+02  0.20780651100E+01  0.38454440715E+02  0.50528854064E+02  0.29999982413E+02 0.  0.
         12    1    1    2    0    0  0.13042384098E+02 -0.20780651100E+01 -0.38454440715E+02  0.40659145936E+02  0.00000000000E+00 0. -1.
         11    1    3    3    0    0 -0.32337356744E+01 -0.87611002807E+01  0.35952701479E+01  0.10006992167E+02  0.51100000000E-03 0. -1.
        -11    1    3    3    0    0  0.14003712128E+01  0.84579256875E+01  0.19979038771E+02  0.21740734508E+02  0.51100000000E-03 0.  1.
        -12    1    3    3    0    0 -0.11209019636E+02  0.23812397033E+01  0.14880131796E+02  0.18781127389E+02  0.00000000000E+00 0.  1.
</event>
<event>
 7    1  0.2991278E-011  0.5052885E+02  0.7816164E-02  0.1300439E+00
        -11   -1    0    0    0    0  0.00000000000E+00  0.00000000000E+00  0.45593999997E+02  0.45594000000E+02  0.51100000000E-03 0.  1.
         11   -1    0    0    0    0 -0.00000000000E+00 -0.00000000000E+00 -0.45593999997E+02  0.45594000000E+02  0.51100000000E-03 0. -1.
    9900012    2    1    2    0    0  0.28719571388E+00 -0.25496556133E+02  0.31670328165E+02  0.50528849220E+02  0.29999967690E+02 0.  0.
         12    1    1    2    0    0 -0.28719571388E+00  0.25496556133E+02 -0.31670328165E+02  0.40659150780E+02  0.00000000000E+00 0. -1.
         11    1    3    3    0    0  0.13741298540E+01 -0.59021804113E+01 -0.65932779663E+00  0.60957919803E+01  0.51100000000E-03 0. -1.
        -11    1    3    3    0    0  0.86398216964E+01 -0.81166393423E+01  0.25063245343E+02  0.27725306500E+02  0.51100000000E-03 0.  1.
        -12    1    3    3    0    0 -0.97267558365E+01 -0.11477736379E+02  0.72664106194E+01  0.16707750740E+02  0.00000000000E+00 0.  1.
</event>
<event>
 7    1  0.2991278E-011  0.5052886E+02  0.7816164E-02  0.1300439E+00
        -11   -1    0    0    0    0  0.00000000000E+00  0.00000000000E+00  0.45593999997E+02  0.45594000000E+02  0.51100000000E-03 0.  1.
         11   -1    0    0    0    0 -0.00000000000E+00 -0.00000000000E+00 -0.45593999997E+02  0.45594000000E+02  0.51100000000E-03 0. -1.
    9900012    2    1    2    0    0  0.34656631262E+02 -0.62980269801E+01  0.20308090464E+02  0.50528858684E+02  0.29999996455E+02 0.  0.
         12    1    1    2    0    0 -0.34656631262E+02  0.62980269801E+01 -0.20308090464E+02  0.40659141316E+02  0.00000000000E+00 0. -1.
         11    1    3    3    0    0  0.24913901434E+01 -0.72481795255E+01  0.66927104892E+01  0.10175239812E+02  0.51100000000E-03 0. -1.
        -11    1    3    3    0    0  0.18866351594E+02  0.40551096201E+01  0.17610238818E+02  0.26124770774E+02  0.51100000000E-03 0.  1.
        -12    1    3    3    0    0  0.13298889525E+02 -0.31049570747E+01 -0.39948588423E+01  0.14228848098E+02  0.00000000000E+00 0.  1.
</event>
<event>
 7    1  0.2991278E-011  0.5052888E+02  0.7816164E-02  0.1300439E+00
        -11   -1    0    0    0    0  0.00000000000E+00  0.00000000000E+00  0.45593999997E+02  0.45594000000E+02  0.51100000000E-03 0.  1.
         11   -1    0    0    0    0 -0.00000000000E+00 -0.00000000000E+00 -0.45593999997E+02  0.45594000000E+02  0.51100000000E-03 0. -1.
    9900012    2    1    2    0    0  0.11487404772E+02 -0.21449139909E+02  0.32575113240E+02  0.50528879573E+02  0.30000059951E+02 0.  0.
         12    1    1    2    0    0 -0.11487404772E+02  0.21449139909E+02 -0.32575113240E+02  0.40659120427E+02  0.00000000000E+00 0. -1.
         11    1    3    3    0    0  0.66665874333E+01 -0.60350722266E+01  0.33044441157E+01  0.95804402801E+01  0.51100000000E-03 0. -1.
        -11    1    3    3    0    0 -0.94608367930E+01 -0.54405498903E+01  0.14236587304E+02  0.17938434554E+02  0.51100000000E-03 0.  1.
        -12    1    3    3    0    0  0.14281654132E+02 -0.99735177920E+01  0.15034081821E+02  0.23010004739E+02  0.00000000000E+00 0.  1.
</event>
<event>
 7    1  0.2991278E-011  0.5052888E+02  0.7816164E-02  0.1300439E+00
        -11   -1    0    0    0    0  0.00000000000E+00  0.00000000000E+00  0.45593999997E+02  0.45594000000E+02  0.51100000000E-03 0. -1.
         11   -1    0    0    0    0 -0.00000000000E+00 -0.00000000000E+00 -0.45593999997E+02  0.45594000000E+02  0.51100000000E-03 0.  1.
    9900012    2    1    2    0    0 -0.12275879704E+02 -0.23585741382E+02 -0.30760036816E+02  0.50528876990E+02  0.30000052098E+02 0.  0.
         12    1    1    2    0    0  0.12275879704E+02  0.23585741382E+02  0.30760036816E+02  0.40659123010E+02  0.00000000000E+00 0. -1.
         11    1    3    3    0    0 -0.46311175545E+01 -0.71372777203E+01 -0.45637953106E+01  0.96548542691E+01  0.51100000000E-03 0. -1.
        -11    1    3    3    0    0  0.57833703018E+01 -0.57421651904E+01 -0.21613947969E+02  0.23099406490E+02  0.51100000000E-03 0.  1.
        -12    1    3    3    0    0 -0.13428132451E+02 -0.10706298471E+02 -0.45822935356E+01  0.17774616230E+02  0.00000000000E+00 0.  1.
</event>
<event>
 7    1  0.2991278E-011  0.5052886E+02  0.7816164E-02  0.1300439E+00
        -11   -1    0    0    0    0  0.00000000000E+00  0.00000000000E+00  0.45593999997E+02  0.45594000000E+02  0.51100000000E-03 0.  1.
         11   -1    0    0    0    0 -0.00000000000E+00 -0.00000000000E+00 -0.45593999997E+02  0.45594000000E+02  0.51100000000E-03 0. -1.
    9900012    2    1    2    0    0  0.37614735414E+02  0.11369940340E+02  0.10441364832E+02  0.50528856340E+02  0.29999989332E+02 0.  0.
         12    1    1    2    0    0 -0.37614735414E+02 -0.11369940340E+02 -0.10441364832E+02  0.40659143660E+02  0.00000000000E+00 0. -1.
         11    1    3    3    0    0  0.28726465969E+02 -0.13331068021E+01 -0.35502579557E+01  0.28975702798E+02  0.51100000000E-03 0. -1.
        -11    1    3    3    0    0  0.23921293982E+01  0.65007032386E+01  0.87285608446E+01  0.11143123455E+02  0.51100000000E-03 0.  1.
         12    1    3    3    0    0  0.64961400464E+01  0.62023439039E+01  0.52630619429E+01  0.10410030087E+02  0.00000000000E+00 0. -1.
</event>
<event>
 7    1  0.2991278E-011  0.5052886E+02  0.7816164E-02  0.1300439E+00
        -11   -1    0    0    0    0  0.00000000000E+00  0.00000000000E+00  0.45593999997E+02  0.45594000000E+02  0.51100000000E-03 0. -1.
         11   -1    0    0    0    0 -0.00000000000E+00 -0.00000000000E+00 -0.45593999997E+02  0.45594000000E+02  0.51100000000E-03 0.  1.
    9900012    2    1    2    0    0  0.34080359368E+02 -0.19345726275E+02 -0.10836877534E+02  0.50528856693E+02  0.29999990403E+02 0.  0.
         12    1    1    2    0    0 -0.34080359368E+02  0.19345726275E+02  0.10836877534E+02  0.40659143307E+02  0.00000000000E+00 0. -1.
         11    1    3    3    0    0  0.11392624901E+02 -0.37324194901E+01 -0.14876522830E+02  0.19105857457E+02  0.51100000000E-03 0.  1.
        -11    1    3    3    0    0  0.10856901734E+02 -0.10571306655E+02  0.90167111178E+01  0.17633091598E+02  0.51100000000E-03 0. -1.
         12    1    3    3    0    0  0.11830832733E+02 -0.50420001305E+01 -0.49770658220E+01  0.13789907638E+02  0.00000000000E+00 0. -1.
</event>
<event>
 7    1  0.2991278E-011  0.5052886E+02  0.7816164E-02  0.1300439E+00
        -11   -1    0    0    0    0  0.00000000000E+00  0.00000000000E+00  0.45593999997E+02  0.45594000000E+02  0.51100000000E-03 0. -1.
         11   -1    0    0    0    0 -0.00000000000E+00 -0.00000000000E+00 -0.45593999997E+02  0.45594000000E+02  0.51100000000E-03 0.  1.
    9900012    2    1    2    0    0  0.19995700577E+02  0.11266466297E+02 -0.33561950198E+02  0.50528858279E+02  0.29999995225E+02 0.  0.
         12    1    1    2    0    0 -0.19995700577E+02 -0.11266466297E+02  0.33561950198E+02  0.40659141721E+02  0.00000000000E+00 0. -1.
         11    1    3    3    0    0  0.18679935627E+02 -0.37878641734E+00 -0.29794315877E+02  0.35167950367E+02  0.51100000000E-03 0. -1.
        -11    1    3    3    0    0  0.10811080177E+01  0.85249320315E+01 -0.68343202296E+01  0.10979580773E+02  0.51100000000E-03 0.  1.
         12    1    3    3    0    0  0.23465693218E+00  0.31203206829E+01  0.30666859084E+01  0.43813271392E+01  0.00000000000E+00 0. -1.
</event>
<event>
 7    1  0.2991278E-011  0.5052885E+02  0.7816164E-02  0.1300439E+00
        -11   -1    0    0    0    0  0.00000000000E+00  0.00000000000E+00  0.45593999997E+02  0.45594000000E+02  0.51100000000E-03 0.  1.
         11   -1    0    0    0    0 -0.00000000000E+00 -0.00000000000E+00 -0.45593999997E+02  0.45594000000E+02  0.51100000000E-03 0. -1.
    9900012    2    1    2    0    0 -0.37257092680E+02  0.12810950441E+02  0.10047638360E+02  0.50528850441E+02  0.29999971402E+02 0.  0.
         12    1    1    2    0    0  0.37257092680E+02 -0.12810950441E+02 -0.10047638360E+02  0.40659149559E+02  0.00000000000E+00 0. -1.
         11    1    3    3    0    0 -0.51587736170E+01 -0.42282948057E+01 -0.17176728431E+01  0.68878024400E+01  0.51100000000E-03 0. -1.
        -11    1    3    3    0    0 -0.21103003803E+02  0.21518974378E+02  0.79572591337E+01  0.31172439766E+02  0.51100000000E-03 0.  1.
         12    1    3    3    0    0 -0.10995315260E+02 -0.44797291310E+01  0.38080520698E+01  0.12468608235E+02  0.00000000000E+00 0. -1.
</event>
<event>
 7    1  0.2991278E-011  0.5052886E+02  0.7816164E-02  0.1300439E+00
        -11   -1    0    0    0    0  0.00000000000E+00  0.00000000000E+00  0.45593999997E+02  0.45594000000E+02  0.51100000000E-03 0.  1.
         11   -1    0    0    0    0 -0.00000000000E+00 -0.00000000000E+00 -0.45593999997E+02  0.45594000000E+02  0.51100000000E-03 0. -1.
    9900012    2    1    2    0    0  0.25124915999E+02  0.30925480186E+02  0.80943707055E+01  0.50528861226E+02  0.30000004183E+02 0.  0.
         12    1    1    2    0    0 -0.25124915999E+02 -0.30925480186E+02 -0.80943707055E+01  0.40659138774E+02  0.00000000000E+00 0. -1.
         11    1    3    3    0    0 -0.35529853282E+01  0.99197435705E+01  0.98493723485E+00  0.10582774630E+02  0.51100000000E-03 0. -1.
        -11    1    3    3    0    0  0.18642805381E+02  0.12102570745E+02 -0.39313741241E+01  0.22571710478E+02  0.51100000000E-03 0.  1.
         12    1    3    3    0    0  0.10035095946E+02  0.89031658709E+01  0.11040807595E+02  0.17374376119E+02  0.00000000000E+00 0. -1.
</event>
<event>
 7    1  0.2991278E-011  0.5052887E+02  0.7816164E-02  0.1300439E+00
        -11   -1    0    0    0    0  0.00000000000E+00  0.00000000000E+00  0.45593999997E+02  0.45594000000E+02  0.51100000000E-03 0.  1.
         11   -1    0    0    0    0 -0.00000000000E+00 -0.00000000000E+00 -0.45593999997E+02  0.45594000000E+02  0.51100000000E-03 0. -1.
    9900012    2    1    2    0    0 -0.28974921190E+02 -0.22346096019E+02  0.17727675543E+02  0.50528873774E+02  0.30000042325E+02 0.  0.
         12    1    1    2    0    0  0.28974921190E+02  0.22346096019E+02 -0.17727675543E+02  0.40659126226E+02  0.00000000000E+00 0. -1.
         11    1    3    3    0    0  0.10104401455E+01 -0.40450761335E+01  0.12234142687E+02  0.12925087147E+02  0.51100000000E-03 0. -1.
        -11    1    3    3    0    0 -0.20829947610E+02 -0.11163437108E+02  0.92851139353E+01  0.25391384101E+02  0.51100000000E-03 0.  1.
         12    1    3    3    0    0 -0.91554137259E+01 -0.71375827771E+01 -0.37915810791E+01  0.12212402527E+02  0.00000000000E+00 0. -1.
</event>
<event>
 7    1  0.2991278E-011  0.5052886E+02  0.7816164E-02  0.1300439E+00
        -11   -1    0    0    0    0  0.00000000000E+00  0.00000000000E+00  0.45593999997E+02  0.45594000000E+02  0.51100000000E-03 0.  1.
         11   -1    0    0    0    0 -0.00000000000E+00 -0.00000000000E+00 -0.45593999997E+02  0.45594000000E+02  0.51100000000E-03 0. -1.
    9900012    2    1    2    0    0 -0.11596700538E+02  0.38966318922E+02  0.55519183964E+00  0.50528859433E+02  0.29999998732E+02 0.  0.
         12    1    1    2    0    0  0.11596700538E+02 -0.38966318922E+02 -0.55519183964E+00  0.40659140567E+02  0.00000000000E+00 0. -1.
         11    1    3    3    0    0  0.82953697841E+01  0.18341104425E+02  0.66717712103E+00  0.20140863858E+02  0.51100000000E-03 0. -1.
        -11    1    3    3    0    0 -0.16283234338E+02  0.21096099377E+02  0.70213840826E+00  0.26658622021E+02  0.51100000000E-03 0.  1.
         12    1    3    3    0    0 -0.36088359836E+01 -0.47088487968E+00 -0.81412368965E+00  0.37293735544E+01  0.00000000000E+00 0. -1.
</event>
<event>
 7    1  0.2991278E-011  0.5052886E+02  0.7816164E-02  0.1300439E+00
        -11   -1    0    0    0    0  0.00000000000E+00  0.00000000000E+00  0.45593999997E+02  0.45594000000E+02  0.51100000000E-03 0. -1.
         11   -1    0    0    0    0 -0.00000000000E+00 -0.00000000000E+00 -0.45593999997E+02  0.45594000000E+02  0.51100000000E-03 0.  1.
    9900012    2    1    2    0    0 -0.24910510187E+02 -0.97924858259E+01 -0.30606195008E+02  0.50528862413E+02  0.30000007791E+02 0.  0.
         12    1    1    2    0    0  0.24910510187E+02  0.97924858259E+01  0.30606195008E+02  0.40659137587E+02  0.00000000000E+00 0. -1.
         11    1    3    3    0    0 -0.78391190934E+01  0.10725196817E+02 -0.10027310675E+02  0.16644175995E+02  0.51100000000E-03 0. -1.
        -11    1    3    3    0    0 -0.12689770314E+02 -0.17322973349E+02 -0.16989587003E+02  0.27381777573E+02  0.51100000000E-03 0.  1.
        -12    1    3    3    0    0 -0.43816207795E+01 -0.31947092941E+01 -0.35892973306E+01  0.65029088458E+01  0.00000000000E+00 0.  1.
</event>
<event>
 7    1  0.2991278E-011  0.5052886E+02  0.7816164E-02  0.1300439E+00
        -11   -1    0    0    0    0  0.00000000000E+00  0.00000000000E+00  0.45593999997E+02  0.45594000000E+02  0.51100000000E-03 0. -1.
         11   -1    0    0    0    0 -0.00000000000E+00 -0.00000000000E+00 -0.45593999997E+02  0.45594000000E+02  0.51100000000E-03 0.  1.
    9900012    2    1    2    0    0 -0.13452942847E+02 -0.30174513768E+02  0.23699846980E+02  0.50528859586E+02  0.29999999197E+02 0.  0.
         12    1    1    2    0    0  0.13452942847E+02  0.30174513768E+02 -0.23699846980E+02  0.40659140414E+02  0.00000000000E+00 0. -1.
         11    1    3    3    0    0  0.90819634685E+00 -0.17791526165E+02  0.16536093776E+02  0.24306493402E+02  0.51100000000E-03 0. -1.
        -11    1    3    3    0    0 -0.12124210250E+02 -0.28829138913E+01 -0.22484137336E+01  0.12663452581E+02  0.51100000000E-03 0.  1.
        -12    1    3    3    0    0 -0.22369289442E+01 -0.95000737111E+01  0.94121669377E+01  0.13558913603E+02  0.00000000000E+00 0.  1.
</event>
<event>
 7    1  0.2991278E-011  0.5052886E+02  0.7816164E-02  0.1300439E+00
        -11   -1    0    0    0    0  0.00000000000E+00  0.00000000000E+00  0.45593999997E+02  0.45594000000E+02  0.51100000000E-03 0.  1.
         11   -1    0    0    0    0 -0.00000000000E+00 -0.00000000000E+00 -0.45593999997E+02  0.45594000000E+02  0.51100000000E-03 0. -1.
    9900012    2    1    2    0    0 -0.20162038519E+02  0.77043346600E-01  0.35307963062E+02  0.50528856028E+02  0.29999988382E+02 0.  0.
         12    1    1    2    0    0  0.20162038519E+02 -0.77043346600E-01 -0.35307963062E+02  0.40659143972E+02  0.00000000000E+00 0. -1.
         11    1    3    3    0    0  0.28962453437E+01  0.65893176280E+01  0.61989415600E+01  0.94991694700E+01  0.51100000000E-03 0. -1.
        -11    1    3    3    0    0 -0.25140934674E+02 -0.37230176867E+01  0.26075805637E+02  0.36412567842E+02  0.51100000000E-03 0.  1.
        -12    1    3    3    0    0  0.20826508108E+01 -0.27892565947E+01  0.30332158652E+01  0.46171187157E+01  0.00000000000E+00 0.  1.
</event>
<event>
 7    1  0.2991278E-011  0.5052882E+02  0.7816164E-02  0.1300439E+00
        -11   -1    0    0    0    0  0.00000000000E+00  0.00000000000E+00  0.45593999997E+02  0.45594000000E+02  0.51100000000E-03 0.  1.
         11   -1    0    0    0    0 -0.00000000000E+00 -0.00000000000E+00 -0.45593999997E+02  0.45594000000E+02  0.51100000000E-03 0. -1.
    9900012    2    1    2    0    0 -0.16118595284E+02  0.25422370563E+02  0.27332448618E+02  0.50528821622E+02  0.29999883800E+02 0.  0.
         12    1    1    2    0    0  0.16118595284E+02 -0.25422370563E+02 -0.27332448618E+02  0.40659178378E+02  0.00000000000E+00 0. -1.
         11    1    3    3    0    0  0.18465400534E+01 -0.41290601269E+01  0.13670807278E+01  0.47252256748E+01  0.51100000000E-03 0. -1.
        -11    1    3    3    0    0 -0.11415839813E+02  0.26122318925E+02  0.14052156236E+02  0.31783014958E+02  0.51100000000E-03 0.  1.
        -12    1    3    3    0    0 -0.65492955248E+01  0.34291117650E+01  0.11913211654E+02  0.14020580989E+02  0.00000000000E+00 0.  1.
</event>
<event>
 7    1  0.2991278E-011  0.5052886E+02  0.7816164E-02  0.1300439E+00
        -11   -1    0    0    0    0  0.00000000000E+00  0.00000000000E+00  0.45593999997E+02  0.45594000000E+02  0.51100000000E-03 0. -1.
         11   -1    0    0    0    0 -0.00000000000E+00 -0.00000000000E+00 -0.45593999997E+02  0.45594000000E+02  0.51100000000E-03 0.  1.
    9900012    2    1    2    0    0 -0.53916707322E+00  0.32472695215E+02  0.24462198939E+02  0.50528858191E+02  0.29999994958E+02 0.  0.
         12    1    1    2    0    0  0.53916707322E+00 -0.32472695215E+02 -0.24462198939E+02  0.40659141809E+02  0.00000000000E+00 0. -1.
         11    1    3    3    0    0 -0.91639376439E+01  0.15698206816E+02  0.12719957448E+02  0.22185778510E+02  0.51100000000E-03 0. -1.
        -11    1    3    3    0    0  0.94879031096E+01  0.19341778806E+02  0.13201323836E+02  0.25266572068E+02  0.51100000000E-03 0.  1.
         12    1    3    3    0    0 -0.86313253894E+00 -0.25672904060E+01 -0.14590823437E+01  0.30765076132E+01  0.00000000000E+00 0. -1.
</event>
<event>
 7    1  0.2991278E-011  0.5052887E+02  0.7816164E-02  0.1300439E+00
        -11   -1    0    0    0    0  0.00000000000E+00  0.00000000000E+00  0.45593999997E+02  0.45594000000E+02  0.51100000000E-03 0.  1.
         11   -1    0    0    0    0 -0.00000000000E+00 -0.00000000000E+00 -0.45593999997E+02  0.45594000000E+02  0.51100000000E-03 0. -1.
    9900012    2    1    2    0    0  0.78398703299E+01  0.39829998288E+02  0.22962239420E+01  0.50528868494E+02  0.30000026274E+02 0.  0.
         12    1    1    2    0    0 -0.78398703299E+01 -0.39829998288E+02 -0.22962239420E+01  0.40659131506E+02  0.00000000000E+00 0. -1.
         11    1    3    3    0    0 -0.21774266563E+01  0.79953323448E+01 -0.52041367871E+01  0.97851707244E+01  0.51100000000E-03 0. -1.
        -11    1    3    3    0    0  0.78603093257E+01  0.16357265013E+02  0.14873980350E+02  0.23464438478E+02  0.51100000000E-03 0.  1.
        -12    1    3    3    0    0  0.21569876605E+01  0.15477400931E+02 -0.73736196208E+01  0.17279259291E+02  0.00000000000E+00 0.  1.
</event>
<event>
 7    1  0.2991278E-011  0.5052886E+02  0.7816164E-02  0.1300439E+00
        -11   -1    0    0    0    0  0.00000000000E+00  0.00000000000E+00  0.45593999997E+02  0.45594000000E+02  0.51100000000E-03 0. -1.
         11   -1    0    0    0    0 -0.00000000000E+00 -0.00000000000E+00 -0.45593999997E+02  0.45594000000E+02  0.51100000000E-03 0.  1.
    9900012    2    1    2    0    0  0.30530420859E+02  0.20708892518E+01 -0.26772573911E+02  0.50528857191E+02  0.29999991917E+02 0.  0.
         12    1    1    2    0    0 -0.30530420859E+02 -0.20708892518E+01  0.26772573911E+02  0.40659142809E+02  0.00000000000E+00 0. -1.
         11    1    3    3    0    0  0.13267892364E+01  0.50106817179E+00  0.59859845854E+01  0.61517030738E+01  0.51100000000E-03 0. -1.
        -11    1    3    3    0    0  0.11257366026E+02 -0.23389432949E+01 -0.14126460320E+02  0.18214165559E+02  0.51100000000E-03 0.  1.
         12    1    3    3    0    0  0.17946265597E+02  0.39087643749E+01 -0.18632098177E+02  0.26162988558E+02  0.00000000000E+00 0. -1.
</event>
<event>
 7    1  0.2991278E-011  0.5052886E+02  0.7816164E-02  0.1300439E+00
        -11   -1    0    0    0    0  0.00000000000E+00  0.00000000000E+00  0.45593999997E+02  0.45594000000E+02  0.51100000000E-03 0.  1.
         11   -1    0    0    0    0 -0.00000000000E+00 -0.00000000000E+00 -0.45593999997E+02  0.45594000000E+02  0.51100000000E-03 0. -1.
    9900012    2    1    2    0    0  0.24305899489E+02  0.24514445550E+02  0.21480939191E+02  0.50528861555E+02  0.30000005183E+02 0.  0.
         12    1    1    2    0    0 -0.24305899489E+02 -0.24514445550E+02 -0.21480939191E+02  0.40659138445E+02  0.00000000000E+00 0. -1.
         11    1    3    3    0    0 -0.33643294568E+01  0.13122523471E+02  0.14091962254E+02  0.19547448308E+02  0.51100000000E-03 0. -1.
        -11    1    3    3    0    0  0.25415604993E+02  0.11117045821E+02  0.73977631519E+01  0.28710078106E+02  0.51100000000E-03 0.  1.
        -12    1    3    3    0    0  0.22546239527E+01  0.27487625741E+00 -0.87862151151E-02  0.22713351410E+01  0.00000000000E+00 0.  1.
</event>
<event>
 7    1  0.2991278E-011  0.5052885E+02  0.7816164E-02  0.1300439E+00
        -11   -1    0    0    0    0  0.00000000000E+00  0.00000000000E+00  0.45593999997E+02  0.45594000000E+02  0.51100000000E-03 0. -1.
         11   -1    0    0    0    0 -0.00000000000E+00 -0.00000000000E+00 -0.45593999997E+02  0.45594000000E+02  0.51100000000E-03 0.  1.
    9900012    2    1    2    0    0  0.17761402778E+02 -0.20073335672E+02 -0.30573851750E+02  0.50528847962E+02  0.29999963865E+02 0.  0.
         12    1    1    2    0    0 -0.17761402778E+02  0.20073335672E+02  0.30573851750E+02  0.40659152038E+02  0.00000000000E+00 0. -1.
         11    1    3    3    0    0  0.11188989061E+02 -0.20630486422E+02 -0.11417663466E+02  0.26099300479E+02  0.51100000000E-03 0. -1.
        -11    1    3    3    0    0  0.10358928888E+02  0.28303979047E+01 -0.13273254561E+02  0.17073308025E+02  0.51100000000E-03 0.  1.
        -12    1    3    3    0    0 -0.37865151713E+01 -0.22732471545E+01 -0.58829337231E+01  0.73562394576E+01  0.00000000000E+00 0.  1.
</event>
<event>
 7    1  0.2991278E-011  0.5052886E+02  0.7816164E-02  0.1300439E+00
        -11   -1    0    0    0    0  0.00000000000E+00  0.00000000000E+00  0.45593999997E+02  0.45594000000E+02  0.51100000000E-03 0.  1.
         11   -1    0    0    0    0 -0.00000000000E+00 -0.00000000000E+00 -0.45593999997E+02  0.45594000000E+02  0.51100000000E-03 0. -1.
    9900012    2    1    2    0    0 -0.25073076983E+02  0.22399780294E+02  0.22863861425E+02  0.50528861964E+02  0.30000006425E+02 0.  0.
         12    1    1    2    0    0  0.25073076983E+02 -0.22399780294E+02 -0.22863861425E+02  0.40659138036E+02  0.00000000000E+00 0. -1.
         11    1    3    3    0    0 -0.10679653777E+02  0.23456871108E+02  0.17338219124E+02  0.31062737317E+02  0.51100000000E-03 0.  1.
        -11    1    3    3    0    0 -0.76004103881E+01 -0.43191080753E+01  0.76717475767E+01  0.11630848799E+02  0.51100000000E-03 0. -1.
        -12    1    3    3    0    0 -0.67930128182E+01  0.32620172610E+01 -0.21461052758E+01  0.78352758480E+01  0.00000000000E+00 0.  1.
</event>
<event>
 7    1  0.2991278E-011  0.5052886E+02  0.7816164E-02  0.1300439E+00
        -11   -1    0    0    0    0  0.00000000000E+00  0.00000000000E+00  0.45593999997E+02  0.45594000000E+02  0.51100000000E-03 0.  1.
         11   -1    0    0    0    0 -0.00000000000E+00 -0.00000000000E+00 -0.45593999997E+02  0.45594000000E+02  0.51100000000E-03 0. -1.
    9900012    2    1    2    0    0  0.12809922834E+02  0.16097341492E+02  0.35070603907E+02  0.50528858536E+02  0.29999996007E+02 0.  0.
         12    1    1    2    0    0 -0.12809922834E+02 -0.16097341492E+02 -0.35070603907E+02  0.40659141464E+02  0.00000000000E+00 0. -1.
         11    1    3    3    0    0 -0.50913412056E+01  0.24629144673E+00  0.12485239108E+02  0.13485681688E+02  0.51100000000E-03 0. -1.
        -11    1    3    3    0    0  0.15074575364E+02  0.66844787663E+01  0.21916575959E+02  0.27427383777E+02  0.51100000000E-03 0.  1.
         12    1    3    3    0    0  0.28266886758E+01  0.91665712789E+01  0.66878883965E+00  0.96157930715E+01  0.00000000000E+00 0. -1.
</event>
<event>
 7    1  0.2991278E-011  0.5052886E+02  0.7816164E-02  0.1300439E+00
        -11   -1    0    0    0    0  0.00000000000E+00  0.00000000000E+00  0.45593999997E+02  0.45594000000E+02  0.51100000000E-03 0.  1.
         11   -1    0    0    0    0 -0.00000000000E+00 -0.00000000000E+00 -0.45593999997E+02  0.45594000000E+02  0.51100000000E-03 0. -1.
    9900012    2    1    2    0    0 -0.12986172486E+02  0.36826672001E+02  0.11327899243E+02  0.50528858989E+02  0.29999997382E+02 0.  0.
         12    1    1    2    0    0  0.12986172486E+02 -0.36826672001E+02 -0.11327899243E+02  0.40659141011E+02  0.00000000000E+00 0. -1.
         11    1    3    3    0    0  0.67854203013E+01  0.14148674720E+02  0.32940570922E+00  0.15695076724E+02  0.51100000000E-03 0. -1.
        -11    1    3    3    0    0 -0.16433312102E+02  0.24203076633E+02  0.87743250142E+01  0.30542289450E+02  0.51100000000E-03 0.  1.
         12    1    3    3    0    0 -0.33382806858E+01 -0.15250793524E+01  0.22241685198E+01  0.42914928140E+01  0.00000000000E+00 0. -1.
</event>
<event>
 7    1  0.2991278E-011  0.5052886E+02  0.7816164E-02  0.1300439E+00
        -11   -1    0    0    0    0  0.00000000000E+00  0.00000000000E+00  0.45593999997E+02  0.45594000000E+02  0.51100000000E-03 0.  1.
         11   -1    0    0    0    0 -0.00000000000E+00 -0.00000000000E+00 -0.45593999997E+02  0.45594000000E+02  0.51100000000E-03 0. -1.
    9900012    2    1    2    0    0  0.16964701429E+02  0.35730799768E+02 -0.94167337871E+01  0.50528855618E+02  0.29999987138E+02 0.  0.
         12    1    1    2    0    0 -0.16964701429E+02 -0.35730799768E+02  0.94167337871E+01  0.40659144382E+02  0.00000000000E+00 0. -1.
         11    1    3    3    0    0  0.45523471491E+01  0.19571462899E+02 -0.14531469182E+02  0.24797774526E+02  0.51100000000E-03 0. -1.
        -11    1    3    3    0    0  0.10591409204E+02  0.18184890097E+01  0.17391681370E+01  0.10886209500E+02  0.51100000000E-03 0.  1.
        -12    1    3    3    0    0  0.18209450756E+01  0.14340847859E+02  0.33755672580E+01  0.14844871592E+02  0.00000000000E+00 0.  1.
</event>
<event>
 7    1  0.2991278E-011  0.5052887E+02  0.7816164E-02  0.1300439E+00
        -11   -1    0    0    0    0  0.00000000000E+00  0.00000000000E+00  0.45593999997E+02  0.45594000000E+02  0.51100000000E-03 0. -1.
         11   -1    0    0    0    0 -0.00000000000E+00 -0.00000000000E+00 -0.45593999997E+02  0.45594000000E+02  0.51100000000E-03 0.  1.
    9900012    2    1    2    0    0  0.25676805458E+02  0.60923900460E+01 -0.30931366146E+02  0.50528868594E+02  0.30000026579E+02 0.  0.
         12    1    1    2    0    0 -0.25676805458E+02 -0.60923900460E+01  0.30931366146E+02  0.40659131406E+02  0.00000000000E+00 0. -1.
         11    1    3    3    0    0  0.91203470897E+00  0.58061904631E+01 -0.32618013619E+00  0.58864292017E+01  0.51100000000E-03 0. -1.
        -11    1    3    3    0    0  0.13530075035E+02 -0.10051233588E+02 -0.12649664442E+02  0.21073780815E+02  0.51100000000E-03 0.  1.
         12    1    3    3    0    0  0.11234695715E+02  0.10337433171E+02 -0.17955521568E+02  0.23568658578E+02  0.00000000000E+00 0. -1.
</event>
<event>
 7    1  0.2991278E-011  0.5052885E+02  0.7816164E-02  0.1300439E+00
        -11   -1    0    0    0    0  0.00000000000E+00  0.00000000000E+00  0.45593999997E+02  0.45594000000E+02  0.51100000000E-03 0.  1.
         11   -1    0    0    0    0 -0.00000000000E+00 -0.00000000000E+00 -0.45593999997E+02  0.45594000000E+02  0.51100000000E-03 0. -1.
    9900012    2    1    2    0    0 -0.16813834352E+02  0.25108659154E+02  0.27203240927E+02  0.50528854570E+02  0.29999983951E+02 0.  0.
         12    1    1    2    0    0  0.16813834352E+02 -0.25108659154E+02 -0.27203240927E+02  0.40659145430E+02  0.00000000000E+00 0. -1.
         11    1    3    3    0    0 -0.21366536116E+01  0.42395593578E+00 -0.48884156915E+01  0.53517880681E+01  0.51100000000E-03 0. -1.
        -11    1    3    3    0    0 -0.16219376062E+02  0.22376636977E+02  0.32156099655E+02  0.42400433813E+02  0.51100000000E-03 0.  1.
        -12    1    3    3    0    0  0.15421953211E+01  0.23080662412E+01 -0.64443036434E-01  0.27766326886E+01  0.00000000000E+00 0.  1.
</event>
<event>
 7    1  0.2991278E-011  0.5052886E+02  0.7816164E-02  0.1300439E+00
        -11   -1    0    0    0    0  0.00000000000E+00  0.00000000000E+00  0.45593999997E+02  0.45594000000E+02  0.51100000000E-03 0.  1.
         11   -1    0    0    0    0 -0.00000000000E+00 -0.00000000000E+00 -0.45593999997E+02  0.45594000000E+02  0.51100000000E-03 0. -1.
    9900012    2    1    2    0    0  0.38120542576E+02 -0.35687082565E+01  0.13684091903E+02  0.50528858149E+02  0.29999994828E+02 0.  0.
         12    1    1    2    0    0 -0.38120542576E+02  0.35687082565E+01 -0.13684091903E+02  0.40659141851E+02  0.00000000000E+00 0. -1.
         11    1    3    3    0    0  0.67631256449E+01  0.83725903411E+01  0.85069277919E+01  0.13718890561E+02  0.51100000000E-03 0. -1.
        -11    1    3    3    0    0  0.27270427949E+02 -0.11982775942E+02  0.90988090898E+01  0.31145649566E+02  0.51100000000E-03 0.  1.
        -12    1    3    3    0    0  0.40869889819E+01  0.41477344648E-01 -0.39216449785E+01  0.56643180212E+01  0.00000000000E+00 0.  1.
</event>
<event>
 7    1  0.2991278E-011  0.5052886E+02  0.7816164E-02  0.1300439E+00
        -11   -1    0    0    0    0  0.00000000000E+00  0.00000000000E+00  0.45593999997E+02  0.45594000000E+02  0.51100000000E-03 0. -1.
         11   -1    0    0    0    0 -0.00000000000E+00 -0.00000000000E+00 -0.45593999997E+02  0.45594000000E+02  0.51100000000E-03 0.  1.
    9900012    2    1    2    0    0  0.10239536309E+02  0.29164916182E+02 -0.26414483015E+02  0.50528863847E+02  0.30000012150E+02 0.  0.
         12    1    1    2    0    0 -0.10239536309E+02 -0.29164916182E+02  0.26414483015E+02  0.40659136153E+02  0.00000000000E+00 0. -1.
         11    1    3    3    0    0  0.56116477438E+01  0.95340294880E+01  0.17280090670E+01  0.11197067664E+02  0.51100000000E-03 0. -1.
        -11    1    3    3    0    0  0.21563082804E+01  0.17844561220E+02 -0.30550682462E+02  0.35446046743E+02  0.51100000000E-03 0.  1.
        -12    1    3    3    0    0  0.24715802853E+01  0.17863254737E+01  0.24081903802E+01  0.38857494402E+01  0.00000000000E+00 0.  1.
</event>
<event>
 7    1  0.2991278E-011  0.5052882E+02  0.7816164E-02  0.1300439E+00
        -11   -1    0    0    0    0  0.00000000000E+00  0.00000000000E+00  0.45593999997E+02  0.45594000000E+02  0.51100000000E-03 0. -1.
         11   -1    0    0    0    0 -0.00000000000E+00 -0.00000000000E+00 -0.45593999997E+02  0.45594000000E+02  0.51100000000E-03 0.  1.
    9900012    2    1    2    0    0  0.32492739267E+02 -0.61264033896E+01 -0.23661325009E+02  0.50528816231E+02  0.29999867416E+02 0.  0.
         12    1    1    2    0    0 -0.32492739267E+02  0.61264033896E+01  0.23661325009E+02  0.40659183769E+02  0.00000000000E+00 0. -1.
         11    1    3    3    0    0  0.36905950762E+00  0.13558662572E+01  0.36531885373E+01  0.39141237816E+01  0.51100000000E-03 0. -1.
        -11    1    3    3    0    0  0.10202577195E+02 -0.62467832797E+01 -0.20304897308E+02  0.23567005277E+02  0.51100000000E-03 0.  1.
        -12    1    3    3    0    0  0.21921102565E+02 -0.12354863670E+01 -0.70096162388E+01  0.23047687173E+02  0.00000000000E+00 0.  1.
</event>
<event>
 7    1  0.2991278E-011  0.5052885E+02  0.7816164E-02  0.1300439E+00
        -11   -1    0    0    0    0  0.00000000000E+00  0.00000000000E+00  0.45593999997E+02  0.45594000000E+02  0.51100000000E-03 0. -1.
         11   -1    0    0    0    0 -0.00000000000E+00 -0.00000000000E+00 -0.45593999997E+02  0.45594000000E+02  0.51100000000E-03 0.  1.
    9900012    2    1    2    0    0  0.80856790315E+01  0.12940526144E+02 -0.37687276780E+02  0.50528852771E+02  0.29999978483E+02 0.  0.
         12    1    1    2    0    0 -0.80856790315E+01 -0.12940526144E+02  0.37687276780E+02  0.40659147229E+02  0.00000000000E+00 0. -1.
         11    1    3    3    0    0 -0.21401702416E+01  0.70268018388E+01 -0.36282421337E+01  0.81927049249E+01  0.51100000000E-03 0. -1.
        -11    1    3    3    0    0  0.33772915865E+01 -0.79341367229E+01 -0.18495944381E+02  0.20407267892E+02  0.51100000000E-03 0.  1.
        -12    1    3    3    0    0  0.68485576867E+01  0.13847861028E+02 -0.15563090265E+02  0.21928879955E+02  0.00000000000E+00 0.  1.
</event>
<event>
 7    1  0.2991278E-011  0.5052889E+02  0.7816164E-02  0.1300439E+00
        -11   -1    0    0    0    0  0.00000000000E+00  0.00000000000E+00  0.45593999997E+02  0.45594000000E+02  0.51100000000E-03 0.  1.
         11   -1    0    0    0    0 -0.00000000000E+00 -0.00000000000E+00 -0.45593999997E+02  0.45594000000E+02  0.51100000000E-03 0. -1.
    9900012    2    1    2    0    0 -0.35538710157E+02  0.10324866354E+02  0.16839250544E+02  0.50528891012E+02  0.30000094719E+02 0.  0.
         12    1    1    2    0    0  0.35538710157E+02 -0.10324866354E+02 -0.16839250544E+02  0.40659108988E+02  0.00000000000E+00 0. -1.
         11    1    3    3    0    0  0.25672279869E+01  0.25044780966E+00 -0.10741916607E+01  0.27941495356E+01  0.51100000000E-03 0. -1.
        -11    1    3    3    0    0 -0.31912745842E+02  0.13594544942E+02  0.81215907297E+01  0.35625766456E+02  0.51100000000E-03 0.  1.
        -12    1    3    3    0    0 -0.61931923021E+01 -0.35201263970E+01  0.97918514747E+01  0.12108975020E+02  0.00000000000E+00 0.  1.
</event>
<event>
 7    1  0.2991278E-011  0.5052886E+02  0.7816164E-02  0.1300439E+00
        -11   -1    0    0    0    0  0.00000000000E+00  0.00000000000E+00  0.45593999997E+02  0.45594000000E+02  0.51100000000E-03 0. -1.
         11   -1    0    0    0    0 -0.00000000000E+00 -0.00000000000E+00 -0.45593999997E+02  0.45594000000E+02  0.51100000000E-03 0.  1.
    9900012    2    1    2    0    0 -0.23809124932E+02  0.17676445666E+02  0.27817880190E+02  0.50528860564E+02  0.30000002170E+02 0.  0.
         12    1    1    2    0    0  0.23809124932E+02 -0.17676445666E+02 -0.27817880190E+02  0.40659139436E+02  0.00000000000E+00 0. -1.
         11    1    3    3    0    0 -0.17605906673E+02  0.55788685655E+01  0.48261496443E+00  0.18474973389E+02  0.51100000000E-03 0. -1.
        -11    1    3    3    0    0 -0.81920063425E+01  0.76028977812E+01  0.14483907111E+02  0.18294714757E+02  0.51100000000E-03 0.  1.
         12    1    3    3    0    0  0.19887880841E+01  0.44946793191E+01  0.12851358115E+02  0.13759172418E+02  0.00000000000E+00 0. -1.
</event>
<event>
 7    1  0.2991278E-011  0.5052887E+02  0.7816164E-02  0.1300439E+00
        -11   -1    0    0    0    0  0.00000000000E+00  0.00000000000E+00  0.45593999997E+02  0.45594000000E+02  0.51100000000E-03 0. -1.
         11   -1    0    0    0    0 -0.00000000000E+00 -0.00000000000E+00 -0.45593999997E+02  0.45594000000E+02  0.51100000000E-03 0.  1.
    9900012    2    1    2    0    0  0.14483395142E+02  0.35937969551E+01 -0.37821698146E+02  0.50528868651E+02  0.30000026752E+02 0.  0.
         12    1    1    2    0    0 -0.14483395142E+02 -0.35937969551E+01  0.37821698146E+02  0.40659131349E+02  0.00000000000E+00 0. -1.
         11    1    3    3    0    0  0.20590839539E+01 -0.19822543337E+01  0.49795516524E+00  0.29012270819E+01  0.51100000000E-03 0. -1.
        -11    1    3    3    0    0  0.39536970206E+01  0.13212288342E+02 -0.31382092823E+02  0.34278740257E+02  0.51100000000E-03 0.  1.
        -12    1    3    3    0    0  0.84706141680E+01 -0.76362370535E+01 -0.69375604877E+01  0.13348901312E+02  0.00000000000E+00 0.  1.
</event>
<event>
 7    1  0.2991278E-011  0.5052887E+02  0.7816164E-02  0.1300439E+00
        -11   -1    0    0    0    0  0.00000000000E+00  0.00000000000E+00  0.45593999997E+02  0.45594000000E+02  0.51100000000E-03 0.  1.
         11   -1    0    0    0    0 -0.00000000000E+00 -0.00000000000E+00 -0.45593999997E+02  0.45594000000E+02  0.51100000000E-03 0. -1.
    9900012    2    1    2    0    0 -0.46281183696E+01 -0.20517554428E+02  0.34796197518E+02  0.50528869647E+02  0.30000029778E+02 0.  0.
         12    1    1    2    0    0  0.46281183696E+01  0.20517554428E+02 -0.34796197518E+02  0.40659130353E+02  0.00000000000E+00 0. -1.
         11    1    3    3    0    0 -0.17550936906E+01 -0.97921520291E+01 -0.25967582070E+01  0.10281524628E+02  0.51100000000E-03 0. -1.
        -11    1    3    3    0    0  0.28164591822E+01 -0.80785776346E+01  0.19822119100E+02  0.21589633271E+02  0.51100000000E-03 0.  1.
         12    1    3    3    0    0 -0.56894838612E+01 -0.26468247640E+01  0.17570836626E+02  0.18657711748E+02  0.00000000000E+00 0. -1.
</event>
<event>
 7    1  0.2991278E-011  0.5052888E+02  0.7816164E-02  0.1300439E+00
        -11   -1    0    0    0    0  0.00000000000E+00  0.00000000000E+00  0.45593999997E+02  0.45594000000E+02  0.51100000000E-03 0.  1.
         11   -1    0    0    0    0 -0.00000000000E+00 -0.00000000000E+00 -0.45593999997E+02  0.45594000000E+02  0.51100000000E-03 0. -1.
    9900012    2    1    2    0    0 -0.25506917481E+02  0.15728132876E+02  0.27480668257E+02  0.50528878871E+02  0.30000057817E+02 0.  0.
         12    1    1    2    0    0  0.25506917481E+02 -0.15728132876E+02 -0.27480668257E+02  0.40659121129E+02  0.00000000000E+00 0. -1.
         11    1    3    3    0    0 -0.15035885849E+01 -0.34816204239E+01  0.22944389949E+01  0.44324834993E+01  0.51100000000E-03 0.  1.
        -11    1    3    3    0    0 -0.25434642858E+02  0.14939641032E+02  0.11452180614E+02  0.31642793375E+02  0.51100000000E-03 0. -1.
        -12    1    3    3    0    0  0.14313139621E+01  0.42701122677E+01  0.13734048648E+02  0.14453601997E+02  0.00000000000E+00 0.  1.
</event>
<event>
 7    1  0.2991278E-011  0.5052886E+02  0.7816164E-02  0.1300439E+00
        -11   -1    0    0    0    0  0.00000000000E+00  0.00000000000E+00  0.45593999997E+02  0.45594000000E+02  0.51100000000E-03 0. -1.
         11   -1    0    0    0    0 -0.00000000000E+00 -0.00000000000E+00 -0.45593999997E+02  0.45594000000E+02  0.51100000000E-03 0.  1.
    9900012    2    1    2    0    0 -0.13211433045E+02 -0.36711169032E+02 -0.11441765087E+02  0.50528857324E+02  0.29999992323E+02 0.  0.
         12    1    1    2    0    0  0.13211433045E+02  0.36711169032E+02  0.11441765087E+02  0.40659142676E+02  0.00000000000E+00 0. -1.
         11    1    3    3    0    0 -0.16402579081E+02 -0.17707228444E+02  0.28865262739E+00  0.24138638327E+02  0.51100000000E-03 0. -1.
        -11    1    3    3    0    0  0.80370884281E+01 -0.13052453828E+02 -0.10590541238E+02  0.18631180996E+02  0.51100000000E-03 0.  1.
        -12    1    3    3    0    0 -0.48459423919E+01 -0.59514867597E+01 -0.11398764757E+01  0.77590380007E+01  0.00000000000E+00 0.  1.
</event>
<event>
 7    1  0.2991278E-011  0.5052886E+02  0.7816164E-02  0.1300439E+00
        -11   -1    0    0    0    0  0.00000000000E+00  0.00000000000E+00  0.45593999997E+02  0.45594000000E+02  0.51100000000E-03 0.  1.
         11   -1    0    0    0    0 -0.00000000000E+00 -0.00000000000E+00 -0.45593999997E+02  0.45594000000E+02  0.51100000000E-03 0. -1.
    9900012    2    1    2    0    0 -0.68917507734E+01  0.36768697465E+02  0.15928973514E+02  0.50528861554E+02  0.30000005178E+02 0.  0.
         12    1    1    2    0    0  0.68917507734E+01 -0.36768697465E+02 -0.15928973514E+02  0.40659138446E+02  0.00000000000E+00 0. -1.
         11    1    3    3    0    0 -0.13774701959E+02  0.79880764523E+01  0.20784101626E+01  0.16058380010E+02  0.51100000000E-03 0. -1.
        -11    1    3    3    0    0 -0.20979097799E+01  0.84640827658E+01  0.71271694492E+01  0.11262258527E+02  0.51100000000E-03 0.  1.
         12    1    3    3    0    0  0.89808609660E+01  0.20316538247E+02  0.67233939022E+01  0.23208223017E+02  0.00000000000E+00 0. -1.
</event>
<event>
 7    1  0.2991278E-011  0.5052887E+02  0.7816164E-02  0.1300439E+00
        -11   -1    0    0    0    0  0.00000000000E+00  0.00000000000E+00  0.45593999997E+02  0.45594000000E+02  0.51100000000E-03 0.  1.
         11   -1    0    0    0    0 -0.00000000000E+00 -0.00000000000E+00 -0.45593999997E+02  0.45594000000E+02  0.51100000000E-03 0. -1.
    9900012    2    1    2    0    0 -0.14877533021E+02  0.10347863007E+02  0.36397059810E+02  0.50528865474E+02  0.30000017093E+02 0.  0.
         12    1    1    2    0    0  0.14877533021E+02 -0.10347863007E+02 -0.36397059810E+02  0.40659134526E+02  0.00000000000E+00 0. -1.
         11    1    3    3    0    0  0.28530757577E+01 -0.20845693016E+01 -0.12868134632E+01  0.37604999140E+01  0.51100000000E-03 0. -1.
        -11    1    3    3    0    0 -0.14744909504E+02  0.12744985184E+02  0.38915806978E+02  0.43523407916E+02  0.51100000000E-03 0.  1.
        -12    1    3    3    0    0 -0.29856992748E+01 -0.31255287519E+00 -0.12319337040E+01  0.32449576439E+01  0.00000000000E+00 0.  1.
</event>
<event>
 7    1  0.2991278E-011  0.5052885E+02  0.7816164E-02  0.1300439E+00
        -11   -1    0    0    0    0  0.00000000000E+00  0.00000000000E+00  0.45593999997E+02  0.45594000000E+02  0.51100000000E-03 0. -1.
         11   -1    0    0    0    0 -0.00000000000E+00 -0.00000000000E+00 -0.45593999997E+02  0.45594000000E+02  0.51100000000E-03 0.  1.
    9900012    2    1    2    0    0  0.14750923929E+02 -0.36736198678E+02 -0.92751395262E+01  0.50528852650E+02  0.29999978114E+02 0.  0.
         12    1    1    2    0    0 -0.14750923929E+02  0.36736198678E+02  0.92751395262E+01  0.40659147350E+02  0.00000000000E+00 0. -1.
         11    1    3    3    0    0  0.32388670738E+01  0.10173241894E+01 -0.69664981665E+00  0.34656211069E+01  0.51100000000E-03 0. -1.
        -11    1    3    3    0    0 -0.53412216138E+01 -0.13542532219E+02 -0.97827649148E+01  0.17539421794E+02  0.51100000000E-03 0.  1.
        -12    1    3    3    0    0  0.16853278469E+02 -0.24210990648E+02  0.12042752053E+01  0.29523809748E+02  0.00000000000E+00 0.  1.
</event>
<event>
 7    1  0.2991278E-011  0.5052886E+02  0.7816164E-02  0.1300439E+00
        -11   -1    0    0    0    0  0.00000000000E+00  0.00000000000E+00  0.45593999997E+02  0.45594000000E+02  0.51100000000E-03 0.  1.
         11   -1    0    0    0    0 -0.00000000000E+00 -0.00000000000E+00 -0.45593999997E+02  0.45594000000E+02  0.51100000000E-03 0. -1.
    9900012    2    1    2    0    0  0.11819400297E+02 -0.31858340574E+01  0.38772647254E+02  0.50528856660E+02  0.29999990305E+02 0.  0.
         12    1    1    2    0    0 -0.11819400297E+02  0.31858340574E+01 -0.38772647254E+02  0.40659143340E+02  0.00000000000E+00 0. -1.
         11    1    3    3    0    0  0.57093244297E+01 -0.88461270426E+01  0.29447386963E-01  0.10528590433E+02  0.51100000000E-03 0. -1.
        -11    1    3    3    0    0  0.22633264940E+01  0.55875657209E+01  0.25949267064E+02  0.26640345323E+02  0.51100000000E-03 0.  1.
         12    1    3    3    0    0  0.38467493729E+01  0.72727264325E-01  0.12793932803E+02  0.13359920904E+02  0.00000000000E+00 0. -1.
</event>
<event>
 7    1  0.2991278E-011  0.5052886E+02  0.7816164E-02  0.1300439E+00
        -11   -1    0    0    0    0  0.00000000000E+00  0.00000000000E+00  0.45593999997E+02  0.45594000000E+02  0.51100000000E-03 0.  1.
         11   -1    0    0    0    0 -0.00000000000E+00 -0.00000000000E+00 -0.45593999997E+02  0.45594000000E+02  0.51100000000E-03 0. -1.
    9900012    2    1    2    0    0 -0.35807738826E+02 -0.53921694397E+01  0.18490429781E+02  0.50528860258E+02  0.30000001239E+02 0.  0.
         12    1    1    2    0    0  0.35807738826E+02  0.53921694397E+01 -0.18490429781E+02  0.40659139742E+02  0.00000000000E+00 0. -1.
         11    1    3    3    0    0 -0.13946881822E+02 -0.91081794967E+01 -0.26004746574E+01  0.16859327240E+02  0.51100000000E-03 0. -1.
        -11    1    3    3    0    0 -0.23605381069E+02  0.39517959167E+01  0.17432126052E+02  0.29609284445E+02  0.51100000000E-03 0.  1.
         12    1    3    3    0    0  0.17445240651E+01 -0.23578585959E+00  0.36587783871E+01  0.40602485726E+01  0.00000000000E+00 0. -1.
</event>
<event>
 7    1  0.2991278E-011  0.5052886E+02  0.7816164E-02  0.1300439E+00
        -11   -1    0    0    0    0  0.00000000000E+00  0.00000000000E+00  0.45593999997E+02  0.45594000000E+02  0.51100000000E-03 0. -1.
         11   -1    0    0    0    0 -0.00000000000E+00 -0.00000000000E+00 -0.45593999997E+02  0.45594000000E+02  0.51100000000E-03 0.  1.
    9900012    2    1    2    0    0  0.25600931999E+02  0.26593098075E+02 -0.17045971813E+02  0.50528859090E+02  0.29999997691E+02 0.  0.
         12    1    1    2    0    0 -0.25600931999E+02 -0.26593098075E+02  0.17045971813E+02  0.40659140910E+02  0.00000000000E+00 0. -1.
         11    1    3    3    0    0  0.17046940069E+02 -0.29260951111E+00 -0.89622026766E+01  0.19261486524E+02  0.51100000000E-03 0. -1.
        -11    1    3    3    0    0  0.38604702255E+01  0.21539757215E+02 -0.21219994331E+01  0.21985614685E+02  0.51100000000E-03 0.  1.
         12    1    3    3    0    0  0.46935217046E+01  0.53459503718E+01 -0.59617697031E+01  0.92817578811E+01  0.00000000000E+00 0. -1.
</event>
<event>
 7    1  0.2991278E-011  0.5052885E+02  0.7816164E-02  0.1300439E+00
        -11   -1    0    0    0    0  0.00000000000E+00  0.00000000000E+00  0.45593999997E+02  0.45594000000E+02  0.51100000000E-03 0.  1.
         11   -1    0    0    0    0 -0.00000000000E+00 -0.00000000000E+00 -0.45593999997E+02  0.45594000000E+02  0.51100000000E-03 0. -1.
    9900012    2    1    2    0    0 -0.64520992718E+01 -0.38211515328E+02  0.12305152145E+02  0.50528852715E+02  0.29999978312E+02 0.  0.
         12    1    1    2    0    0  0.64520992718E+01  0.38211515328E+02 -0.12305152145E+02  0.40659147285E+02  0.00000000000E+00 0. -1.
         11    1    3    3    0    0 -0.10630113051E+02 -0.27669043151E+02  0.62561959826E+01  0.30293815223E+02  0.51100000000E-03 0. -1.
        -11    1    3    3    0    0  0.13826190591E+01 -0.70618439901E+01  0.11266424415E+02  0.13368380431E+02  0.51100000000E-03 0.  1.
         12    1    3    3    0    0  0.27953947198E+01 -0.34806281870E+01 -0.52174682528E+01  0.68666570604E+01  0.00000000000E+00 0. -1.
</event>
<event>
 7    1  0.2991278E-011  0.5052887E+02  0.7816164E-02  0.1300439E+00
        -11   -1    0    0    0    0  0.00000000000E+00  0.00000000000E+00  0.45593999997E+02  0.45594000000E+02  0.51100000000E-03 0.  1.
         11   -1    0    0    0    0 -0.00000000000E+00 -0.00000000000E+00 -0.45593999997E+02  0.45594000000E+02  0.51100000000E-03 0. -1.
    9900012    2    1    2    0    0  0.26221840674E+02  0.21810514863E+02  0.22133268922E+02  0.50528867199E+02  0.30000022339E+02 0.  0.
         12    1    1    2    0    0 -0.26221840674E+02 -0.21810514863E+02 -0.22133268922E+02  0.40659132801E+02  0.00000000000E+00 0. -1.
         11    1    3    3    0    0  0.32140262561E+01  0.12800905499E+02 -0.64725157470E+00  0.13214086470E+02  0.51100000000E-03 0. -1.
        -11    1    3    3    0    0  0.15422596489E+02 -0.18189476697E+01  0.79477805889E+01  0.17445121657E+02  0.51100000000E-03 0.  1.
         12    1    3    3    0    0  0.75852179290E+01  0.10828557034E+02  0.14832739908E+02  0.19869659072E+02  0.00000000000E+00 0. -1.
</event>
<event>
 7    1  0.2991278E-011  0.5052886E+02  0.7816164E-02  0.1300439E+00
        -11   -1    0    0    0    0  0.00000000000E+00  0.00000000000E+00  0.45593999997E+02  0.45594000000E+02  0.51100000000E-03 0.  1.
         11   -1    0    0    0    0 -0.00000000000E+00 -0.00000000000E+00 -0.45593999997E+02  0.45594000000E+02  0.51100000000E-03 0. -1.
    9900012    2    1    2    0    0 -0.17998462612E+02 -0.18095542595E+02  0.31650782700E+02  0.50528863711E+02  0.30000011737E+02 0.  0.
         12    1    1    2    0    0  0.17998462612E+02  0.18095542595E+02 -0.31650782700E+02  0.40659136289E+02  0.00000000000E+00 0. -1.
         11    1    3    3    0    0 -0.80292575028E+01 -0.12374745453E+01  0.39650151813E+01  0.90400035921E+01  0.51100000000E-03 0.  1.
        -11    1    3    3    0    0  0.42560700047E+01  0.32630500390E+01  0.93310121489E+01  0.10762407511E+02  0.51100000000E-03 0. -1.
        -12    1    3    3    0    0 -0.14225275114E+02 -0.20121118089E+02  0.18354755370E+02  0.30726452608E+02  0.00000000000E+00 0.  1.
</event>
<event>
 7    1  0.2991278E-011  0.5052888E+02  0.7816164E-02  0.1300439E+00
        -11   -1    0    0    0    0  0.00000000000E+00  0.00000000000E+00  0.45593999997E+02  0.45594000000E+02  0.51100000000E-03 0.  1.
         11   -1    0    0    0    0 -0.00000000000E+00 -0.00000000000E+00 -0.45593999997E+02  0.45594000000E+02  0.51100000000E-03 0. -1.
    9900012    2    1    2    0    0  0.16772358486E+02 -0.61711753256E+01  0.36520799678E+02  0.50528877737E+02  0.30000054370E+02 0.  0.
         12    1    1    2    0    0 -0.16772358486E+02  0.61711753256E+01 -0.36520799678E+02  0.40659122263E+02  0.00000000000E+00 0. -1.
         11    1    3    3    0    0  0.12021440650E+02 -0.99349101628E+01  0.10428443200E+02  0.18760860936E+02  0.51100000000E-03 0.  1.
        -11    1    3    3    0    0 -0.39606283249E+01 -0.24341803160E+01  0.17336003819E+02  0.17948505208E+02  0.51100000000E-03 0. -1.
         12    1    3    3    0    0  0.87115461611E+01  0.61979151533E+01  0.87563526589E+01  0.13819511592E+02  0.00000000000E+00 0. -1.
</event>
<event>
 7    1  0.2991278E-011  0.5052884E+02  0.7816164E-02  0.1300439E+00
        -11   -1    0    0    0    0  0.00000000000E+00  0.00000000000E+00  0.45593999997E+02  0.45594000000E+02  0.51100000000E-03 0. -1.
         11   -1    0    0    0    0 -0.00000000000E+00 -0.00000000000E+00 -0.45593999997E+02  0.45594000000E+02  0.51100000000E-03 0.  1.
    9900012    2    1    2    0    0  0.21152961359E+02  0.33411912786E+02 -0.94532456251E+01  0.50528836911E+02  0.29999930274E+02 0.  0.
         12    1    1    2    0    0 -0.21152961359E+02 -0.33411912786E+02  0.94532456251E+01  0.40659163089E+02  0.00000000000E+00 0. -1.
         11    1    3    3    0    0  0.10935587613E+02  0.21072592603E+02 -0.10670043676E+02  0.26028658586E+02  0.51100000000E-03 0. -1.
        -11    1    3    3    0    0  0.15085330393E+02  0.66239168375E+01  0.30892804717E+01  0.16762670475E+02  0.51100000000E-03 0.  1.
         12    1    3    3    0    0 -0.48679566474E+01  0.57154033453E+01 -0.18724824208E+01  0.77375078505E+01  0.00000000000E+00 0. -1.
</event>
<event>
 7    1  0.2991278E-011  0.5052886E+02  0.7816164E-02  0.1300439E+00
        -11   -1    0    0    0    0  0.00000000000E+00  0.00000000000E+00  0.45593999997E+02  0.45594000000E+02  0.51100000000E-03 0. -1.
         11   -1    0    0    0    0 -0.00000000000E+00 -0.00000000000E+00 -0.45593999997E+02  0.45594000000E+02  0.51100000000E-03 0.  1.
    9900012    2    1    2    0    0 -0.11526870168E+02 -0.31959565925E+02 -0.22335697383E+02  0.50528856286E+02  0.29999989167E+02 0.  0.
         12    1    1    2    0    0  0.11526870168E+02  0.31959565925E+02  0.22335697383E+02  0.40659143714E+02  0.00000000000E+00 0. -1.
         11    1    3    3    0    0 -0.67173004448E+01 -0.45388927395E+01  0.36540969529E+01  0.88924741984E+01  0.51100000000E-03 0. -1.
        -11    1    3    3    0    0  0.49782216209E+01 -0.12044883896E+02 -0.53171384548E+01  0.14076003700E+02  0.51100000000E-03 0.  1.
        -12    1    3    3    0    0 -0.97877913443E+01 -0.15375789290E+02 -0.20672655881E+02  0.27560378387E+02  0.00000000000E+00 0.  1.
</event>
<event>
 7    1  0.2991278E-011  0.5052886E+02  0.7816164E-02  0.1300439E+00
        -11   -1    0    0    0    0  0.00000000000E+00  0.00000000000E+00  0.45593999997E+02  0.45594000000E+02  0.51100000000E-03 0.  1.
         11   -1    0    0    0    0 -0.00000000000E+00 -0.00000000000E+00 -0.45593999997E+02  0.45594000000E+02  0.51100000000E-03 0. -1.
    9900012    2    1    2    0    0  0.31597838662E+02  0.23929144395E+01  0.25475799234E+02  0.50528858418E+02  0.29999995647E+02 0.  0.
         12    1    1    2    0    0 -0.31597838662E+02 -0.23929144395E+01 -0.25475799234E+02  0.40659141582E+02  0.00000000000E+00 0. -1.
         11    1    3    3    0    0  0.19830882999E+02  0.11232914838E+02  0.73200750245E+01  0.23937957200E+02  0.51100000000E-03 0.  1.
        -11    1    3    3    0    0 -0.12385728924E+00  0.19119864265E+01  0.64835115362E+01  0.67606918895E+01  0.51100000000E-03 0. -1.
         12    1    3    3    0    0  0.11890812952E+02 -0.10751986825E+02  0.11672212673E+02  0.19830209329E+02  0.00000000000E+00 0. -1.
</event>
<event>
 7    1  0.2991278E-011  0.5052886E+02  0.7816164E-02  0.1300439E+00
        -11   -1    0    0    0    0  0.00000000000E+00  0.00000000000E+00  0.45593999997E+02  0.45594000000E+02  0.51100000000E-03 0. -1.
         11   -1    0    0    0    0 -0.00000000000E+00 -0.00000000000E+00 -0.45593999997E+02  0.45594000000E+02  0.51100000000E-03 0.  1.
    9900012    2    1    2    0    0 -0.90953498369E+01  0.19606913969E-01 -0.39628774829E+02  0.50528861205E+02  0.30000004120E+02 0.  0.
         12    1    1    2    0    0  0.90953498369E+01 -0.19606913969E-01  0.39628774829E+02  0.40659138795E+02  0.00000000000E+00 0. -1.
         11    1    3    3    0    0  0.39159421777E+01 -0.13973504097E+00  0.14353246882E+00  0.39210624646E+01  0.51100000000E-03 0. -1.
        -11    1    3    3    0    0 -0.10030397013E+02 -0.95285278881E+01 -0.26645435903E+02  0.30023007222E+02  0.51100000000E-03 0.  1.
        -12    1    3    3    0    0 -0.29808950020E+01  0.96878698430E+01 -0.13126871394E+02  0.16584791518E+02  0.00000000000E+00 0.  1.
</event>
<event>
 7    1  0.2991278E-011  0.5052885E+02  0.7816164E-02  0.1300439E+00
        -11   -1    0    0    0    0  0.00000000000E+00  0.00000000000E+00  0.45593999997E+02  0.45594000000E+02  0.51100000000E-03 0.  1.
         11   -1    0    0    0    0 -0.00000000000E+00 -0.00000000000E+00 -0.45593999997E+02  0.45594000000E+02  0.51100000000E-03 0. -1.
    9900012    2    1    2    0    0  0.45703935539E+01  0.33372080907E+02  0.22772391343E+02  0.50528854796E+02  0.29999984637E+02 0.  0.
         12    1    1    2    0    0 -0.45703935539E+01 -0.33372080907E+02 -0.22772391343E+02  0.40659145204E+02  0.00000000000E+00 0. -1.
         11    1    3    3    0    0  0.59192117879E+01  0.74971804827E+01  0.15258168650E+01  0.96733086763E+01  0.51100000000E-03 0. -1.
        -11    1    3    3    0    0 -0.86056312658E+01  0.26196800752E+02  0.17756308903E+02  0.32796581609E+02  0.51100000000E-03 0.  1.
        -12    1    3    3    0    0  0.72568130319E+01 -0.32190032792E+00  0.34902655751E+01  0.80589645107E+01  0.00000000000E+00 0.  1.
</event>
<event>
 7    1  0.2991278E-011  0.5052886E+02  0.7816164E-02  0.1300439E+00
        -11   -1    0    0    0    0  0.00000000000E+00  0.00000000000E+00  0.45593999997E+02  0.45594000000E+02  0.51100000000E-03 0.  1.
         11   -1    0    0    0    0 -0.00000000000E+00 -0.00000000000E+00 -0.45593999997E+02  0.45594000000E+02  0.51100000000E-03 0. -1.
    9900012    2    1    2    0    0 -0.35740319082E+02 -0.16605857974E+02  0.10002033823E+02  0.50528860711E+02  0.30000002617E+02 0.  0.
         12    1    1    2    0    0  0.35740319082E+02  0.16605857974E+02 -0.10002033823E+02  0.40659139289E+02  0.00000000000E+00 0. -1.
         11    1    3    3    0    0  0.47309860830E+00 -0.10349767241E+02 -0.24403791203E+01  0.10644104225E+02  0.51100000000E-03 0. -1.
        -11    1    3    3    0    0 -0.10258446247E+02 -0.26065872890E+01  0.80752204981E+01  0.13313121461E+02  0.51100000000E-03 0.  1.
         12    1    3    3    0    0 -0.25954971444E+02 -0.36495034434E+01  0.43671924453E+01  0.26571635025E+02  0.00000000000E+00 0. -1.
</event>
<event>
 7    1  0.2991278E-011  0.5052886E+02  0.7816164E-02  0.1300439E+00
        -11   -1    0    0    0    0  0.00000000000E+00  0.00000000000E+00  0.45593999997E+02  0.45594000000E+02  0.51100000000E-03 0.  1.
         11   -1    0    0    0    0 -0.00000000000E+00 -0.00000000000E+00 -0.45593999997E+02  0.45594000000E+02  0.51100000000E-03 0. -1.
    9900012    2    1    2    0    0  0.64907919432E+01  0.35884247224E+02  0.17982099778E+02  0.50528862143E+02  0.30000006969E+02 0.  0.
         12    1    1    2    0    0 -0.64907919432E+01 -0.35884247224E+02 -0.17982099778E+02  0.40659137857E+02  0.00000000000E+00 0. -1.
         11    1    3    3    0    0 -0.90951385367E+00 -0.42756207300E+01  0.16422069313E+01  0.46695815598E+01  0.51100000000E-03 0. -1.
        -11    1    3    3    0    0  0.46895023537E+01  0.29394340827E+02  0.17768598065E+02  0.34666147499E+02  0.51100000000E-03 0.  1.
        -12    1    3    3    0    0  0.27108034432E+01  0.10765527128E+02 -0.14287052181E+01  0.11193133084E+02  0.00000000000E+00 0.  1.
</event>
<event>
 7    1  0.2991278E-011  0.5052886E+02  0.7816164E-02  0.1300439E+00
        -11   -1    0    0    0    0  0.00000000000E+00  0.00000000000E+00  0.45593999997E+02  0.45594000000E+02  0.51100000000E-03 0.  1.
         11   -1    0    0    0    0 -0.00000000000E+00 -0.00000000000E+00 -0.45593999997E+02  0.45594000000E+02  0.51100000000E-03 0. -1.
    9900012    2    1    2    0    0 -0.12901132128E+02 -0.28432352226E+02  0.26044725191E+02  0.50528861131E+02  0.30000003893E+02 0.  0.
         12    1    1    2    0    0  0.12901132128E+02  0.28432352226E+02 -0.26044725191E+02  0.40659138869E+02  0.00000000000E+00 0. -1.
         11    1    3    3    0    0  0.26895550807E+01 -0.81817680476E+01 -0.38644887330E+01  0.94397726850E+01  0.51100000000E-03 0. -1.
        -11    1    3    3    0    0 -0.17417186536E+02 -0.19630752999E+02  0.27957474856E+02  0.38345081180E+02  0.51100000000E-03 0.  1.
        -12    1    3    3    0    0  0.18264993270E+01 -0.61983117960E+00  0.19517390684E+01  0.27440072656E+01  0.00000000000E+00 0.  1.
</event>
<event>
 7    1  0.2991278E-011  0.5052886E+02  0.7816164E-02  0.1300439E+00
        -11   -1    0    0    0    0  0.00000000000E+00  0.00000000000E+00  0.45593999997E+02  0.45594000000E+02  0.51100000000E-03 0.  1.
         11   -1    0    0    0    0 -0.00000000000E+00 -0.00000000000E+00 -0.45593999997E+02  0.45594000000E+02  0.51100000000E-03 0. -1.
    9900012    2    1    2    0    0  0.33670868005E+02 -0.22472089110E+02  0.38004968874E+01  0.50528856898E+02  0.29999991028E+02 0.  0.
         12    1    1    2    0    0 -0.33670868005E+02  0.22472089110E+02 -0.38004968874E+01  0.40659143102E+02  0.00000000000E+00 0. -1.
         11    1    3    3    0    0  0.98249106470E+01 -0.16778599975E+02 -0.31197748201E+01  0.19692213729E+02  0.51100000000E-03 0. -1.
        -11    1    3    3    0    0  0.15111066830E+02  0.25973658132E+01  0.10125445559E+02  0.18374310815E+02  0.51100000000E-03 0.  1.
        -12    1    3    3    0    0  0.87348905279E+01 -0.82908549477E+01 -0.32051738511E+01  0.12462332354E+02  0.00000000000E+00 0.  1.
</event>
<event>
 7    1  0.2991278E-011  0.5052887E+02  0.7816164E-02  0.1300439E+00
        -11   -1    0    0    0    0  0.00000000000E+00  0.00000000000E+00  0.45593999997E+02  0.45594000000E+02  0.51100000000E-03 0.  1.
         11   -1    0    0    0    0 -0.00000000000E+00 -0.00000000000E+00 -0.45593999997E+02  0.45594000000E+02  0.51100000000E-03 0. -1.
    9900012    2    1    2    0    0 -0.32696388559E+02  0.12441166046E+02  0.20720246152E+02  0.50528867718E+02  0.30000023915E+02 0.  0.
         12    1    1    2    0    0  0.32696388559E+02 -0.12441166046E+02 -0.20720246152E+02  0.40659132282E+02  0.00000000000E+00 0. -1.
         11    1    3    3    0    0  0.19902214766E+01 -0.10320317532E+01  0.10633859564E+02  0.10867614299E+02  0.51100000000E-03 0. -1.
        -11    1    3    3    0    0 -0.30635978896E+02  0.14859909962E+02  0.94163322470E+01  0.35327714903E+02  0.51100000000E-03 0.  1.
        -12    1    3    3    0    0 -0.40506311393E+01 -0.13867121629E+01  0.67005434035E+00  0.43335385159E+01  0.00000000000E+00 0.  1.
</event>
<event>
 7    1  0.2991278E-011  0.5052885E+02  0.7816164E-02  0.1300439E+00
        -11   -1    0    0    0    0  0.00000000000E+00  0.00000000000E+00  0.45593999997E+02  0.45594000000E+02  0.51100000000E-03 0.  1.
         11   -1    0    0    0    0 -0.00000000000E+00 -0.00000000000E+00 -0.45593999997E+02  0.45594000000E+02  0.51100000000E-03 0. -1.
    9900012    2    1    2    0    0  0.44053250346E+01  0.39478455080E+02  0.86724292624E+01  0.50528851787E+02  0.29999975491E+02 0.  0.
         12    1    1    2    0    0 -0.44053250346E+01 -0.39478455080E+02 -0.86724292624E+01  0.40659148213E+02  0.00000000000E+00 0. -1.
         11    1    3    3    0    0 -0.40075453406E+01  0.25781919251E+02  0.12257976835E+02  0.28827517691E+02  0.51100000000E-03 0. -1.
        -11    1    3    3    0    0  0.74195965672E+01 -0.10252210616E+00 -0.24745308784E+01  0.78220347309E+01  0.51100000000E-03 0.  1.
        -12    1    3    3    0    0  0.99327380810E+00  0.13799057935E+02 -0.11110166939E+01  0.13879299364E+02  0.00000000000E+00 0.  1.
</event>
<event>
 7    1  0.2991278E-011  0.5052886E+02  0.7816164E-02  0.1300439E+00
        -11   -1    0    0    0    0  0.00000000000E+00  0.00000000000E+00  0.45593999997E+02  0.45594000000E+02  0.51100000000E-03 0.  1.
         11   -1    0    0    0    0 -0.00000000000E+00 -0.00000000000E+00 -0.45593999997E+02  0.45594000000E+02  0.51100000000E-03 0. -1.
    9900012    2    1    2    0    0  0.24815049901E+02 -0.25531293742E+02  0.19634965771E+02  0.50528861512E+02  0.30000005052E+02 0.  0.
         12    1    1    2    0    0 -0.24815049901E+02  0.25531293742E+02 -0.19634965771E+02  0.40659138488E+02  0.00000000000E+00 0. -1.
         11    1    3    3    0    0  0.14304303951E+02 -0.12800476346E+02  0.35966143598E-01  0.19195483845E+02  0.51100000000E-03 0. -1.
        -11    1    3    3    0    0  0.81200042034E+01 -0.11415385064E+02  0.23026066399E+02  0.26952647708E+02  0.51100000000E-03 0.  1.
         12    1    3    3    0    0  0.23907417463E+01 -0.13154323331E+01 -0.34270667711E+01  0.43807299590E+01  0.00000000000E+00 0. -1.
</event>
<event>
 7    1  0.2991278E-011  0.5052885E+02  0.7816164E-02  0.1300439E+00
        -11   -1    0    0    0    0  0.00000000000E+00  0.00000000000E+00  0.45593999997E+02  0.45594000000E+02  0.51100000000E-03 0.  1.
         11   -1    0    0    0    0 -0.00000000000E+00 -0.00000000000E+00 -0.45593999997E+02  0.45594000000E+02  0.51100000000E-03 0. -1.
    9900012    2    1    2    0    0  0.14023360329E+02  0.10701078948E+02  0.36633295991E+02  0.50528854648E+02  0.29999984187E+02 0.  0.
         12    1    1    2    0    0 -0.14023360329E+02 -0.10701078948E+02 -0.36633295991E+02  0.40659145352E+02  0.00000000000E+00 0. -1.
         11    1    3    3    0    0  0.18569911392E+01 -0.93453546901E+01  0.99937212667E+01  0.13807915679E+02  0.51100000000E-03 0. -1.
        -11    1    3    3    0    0 -0.11137232799E+00  0.82385481504E+01  0.86475536500E+01  0.11944298381E+02  0.51100000000E-03 0.  1.
         12    1    3    3    0    0  0.12277741518E+02  0.11807885488E+02  0.17992021075E+02  0.24776640588E+02  0.00000000000E+00 0. -1.
</event>
<event>
 7    1  0.2991278E-011  0.5052884E+02  0.7816164E-02  0.1300439E+00
        -11   -1    0    0    0    0  0.00000000000E+00  0.00000000000E+00  0.45593999997E+02  0.45594000000E+02  0.51100000000E-03 0.  1.
         11   -1    0    0    0    0 -0.00000000000E+00 -0.00000000000E+00 -0.45593999997E+02  0.45594000000E+02  0.51100000000E-03 0. -1.
    9900012    2    1    2    0    0 -0.36955341799E+02 -0.78497619057E+01  0.15028341914E+02  0.50528842235E+02  0.29999946456E+02 0.  0.
         12    1    1    2    0    0  0.36955341799E+02  0.78497619057E+01 -0.15028341914E+02  0.40659157765E+02  0.00000000000E+00 0. -1.
         11    1    3    3    0    0 -0.10716857306E+02  0.95657308266E+01  0.48342398209E+01  0.15156652390E+02  0.51100000000E-03 0. -1.
        -11    1    3    3    0    0 -0.17234076699E+02 -0.14560903483E+02  0.16279134262E+01  0.22620420250E+02  0.51100000000E-03 0.  1.
         12    1    3    3    0    0 -0.90044077946E+01 -0.28545892493E+01  0.85661886673E+01  0.12751769595E+02  0.00000000000E+00 0. -1.
</event>
<event>
 7    1  0.2991278E-011  0.5052886E+02  0.7816164E-02  0.1300439E+00
        -11   -1    0    0    0    0  0.00000000000E+00  0.00000000000E+00  0.45593999997E+02  0.45594000000E+02  0.51100000000E-03 0. -1.
         11   -1    0    0    0    0 -0.00000000000E+00 -0.00000000000E+00 -0.45593999997E+02  0.45594000000E+02  0.51100000000E-03 0.  1.
    9900012    2    1    2    0    0  0.35885641841E+02  0.12976363271E+02 -0.14035678733E+02  0.50528861155E+02  0.30000003967E+02 0.  0.
         12    1    1    2    0    0 -0.35885641841E+02 -0.12976363271E+02  0.14035678733E+02  0.40659138845E+02  0.00000000000E+00 0. -1.
         11    1    3    3    0    0  0.54670851407E+01 -0.39429115005E+01  0.51565766102E+01  0.84868046775E+01  0.51100000000E-03 0. -1.
        -11    1    3    3    0    0  0.28550983851E+02  0.11178333642E+02 -0.12730895075E+02  0.33199239623E+02  0.51100000000E-03 0.  1.
         12    1    3    3    0    0  0.18675728494E+01  0.57409411297E+01 -0.64613602680E+01  0.88428168541E+01  0.00000000000E+00 0. -1.
</event>
<event>
 7    1  0.2991278E-011  0.5052886E+02  0.7816164E-02  0.1300439E+00
        -11   -1    0    0    0    0  0.00000000000E+00  0.00000000000E+00  0.45593999997E+02  0.45594000000E+02  0.51100000000E-03 0. -1.
         11   -1    0    0    0    0 -0.00000000000E+00 -0.00000000000E+00 -0.45593999997E+02  0.45594000000E+02  0.51100000000E-03 0.  1.
    9900012    2    1    2    0    0 -0.28691593747E+02  0.12147632538E+02 -0.26122657382E+02  0.50528858878E+02  0.29999997047E+02 0.  0.
         12    1    1    2    0    0  0.28691593747E+02 -0.12147632538E+02  0.26122657382E+02  0.40659141122E+02  0.00000000000E+00 0. -1.
         11    1    3    3    0    0 -0.22718044166E+01 -0.30896191569E+01 -0.13292518921E+02  0.13834663038E+02  0.51100000000E-03 0. -1.
        -11    1    3    3    0    0 -0.27454656909E+02  0.10858285850E+02 -0.12838679444E+02  0.32194599667E+02  0.51100000000E-03 0.  1.
         12    1    3    3    0    0  0.10348675785E+01  0.43789658450E+01  0.85409826131E-02  0.44995961735E+01  0.00000000000E+00 0. -1.
</event>
<event>
 7    1  0.2991278E-011  0.5052889E+02  0.7816164E-02  0.1300439E+00
        -11   -1    0    0    0    0  0.00000000000E+00  0.00000000000E+00  0.45593999997E+02  0.45594000000E+02  0.51100000000E-03 0.  1.
         11   -1    0    0    0    0 -0.00000000000E+00 -0.00000000000E+00 -0.45593999997E+02  0.45594000000E+02  0.51100000000E-03 0. -1.
    9900012    2    1    2    0    0  0.25690338677E+02 -0.58153074207E+01  0.30973408417E+02  0.50528888712E+02  0.30000087730E+02 0.  0.
         12    1    1    2    0    0 -0.25690338677E+02  0.58153074207E+01 -0.30973408417E+02  0.40659111288E+02  0.00000000000E+00 0. -1.
         11    1    3    3    0    0  0.20310892928E+01 -0.13388310554E+02  0.16020932276E+02  0.20977188907E+02  0.51100000000E-03 0. -1.
        -11    1    3    3    0    0  0.12719679126E+02  0.59610610556E+01  0.10879986130E+02  0.17767908837E+02  0.51100000000E-03 0.  1.
         12    1    3    3    0    0  0.10939570258E+02  0.16119420776E+01  0.40724900110E+01  0.11783790968E+02  0.00000000000E+00 0. -1.
</event>
<event>
 7    1  0.2991278E-011  0.5052886E+02  0.7816164E-02  0.1300439E+00
        -11   -1    0    0    0    0  0.00000000000E+00  0.00000000000E+00  0.45593999997E+02  0.45594000000E+02  0.51100000000E-03 0.  1.
         11   -1    0    0    0    0 -0.00000000000E+00 -0.00000000000E+00 -0.45593999997E+02  0.45594000000E+02  0.51100000000E-03 0. -1.
    9900012    2    1    2    0    0 -0.26674036812E+02  0.19574922206E+02  0.23632255414E+02  0.50528864309E+02  0.30000013553E+02 0.  0.
         12    1    1    2    0    0  0.26674036812E+02 -0.19574922206E+02 -0.23632255414E+02  0.40659135691E+02  0.00000000000E+00 0. -1.
         11    1    3    3    0    0  0.37269254352E+00 -0.28957237205E+01 -0.10531037715E+01  0.31037305637E+01  0.51100000000E-03 0. -1.
        -11    1    3    3    0    0 -0.23408649408E+02  0.10447866640E+02  0.86474988420E+01  0.27053687751E+02  0.51100000000E-03 0.  1.
        -12    1    3    3    0    0 -0.36380799468E+01  0.12022779286E+02  0.16037860344E+02  0.20371445994E+02  0.00000000000E+00 0.  1.
</event>
<event>
 7    1  0.2991278E-011  0.5052887E+02  0.7816164E-02  0.1300439E+00
        -11   -1    0    0    0    0  0.00000000000E+00  0.00000000000E+00  0.45593999997E+02  0.45594000000E+02  0.51100000000E-03 0.  1.
         11   -1    0    0    0    0 -0.00000000000E+00 -0.00000000000E+00 -0.45593999997E+02  0.45594000000E+02  0.51100000000E-03 0. -1.
    9900012    2    1    2    0    0 -0.38613403963E+02  0.30851222357E+01  0.12355232296E+02  0.50528871751E+02  0.30000036176E+02 0.  0.
         12    1    1    2    0    0  0.38613403963E+02 -0.30851222357E+01 -0.12355232296E+02  0.40659128249E+02  0.00000000000E+00 0. -1.
         11    1    3    3    0    0 -0.20696133223E+02 -0.48522606507E+01 -0.42974651268E+01  0.21687382751E+02  0.51100000000E-03 0. -1.
        -11    1    3    3    0    0 -0.14595914605E+02  0.35888841441E+01  0.17751747581E+02  0.23260381661E+02  0.51100000000E-03 0.  1.
         12    1    3    3    0    0 -0.33213561353E+01  0.43484987424E+01 -0.10990501582E+01  0.55811073400E+01  0.00000000000E+00 0. -1.
</event>
<event>
 7    1  0.2991278E-011  0.5052886E+02  0.7816164E-02  0.1300439E+00
        -11   -1    0    0    0    0  0.00000000000E+00  0.00000000000E+00  0.45593999997E+02  0.45594000000E+02  0.51100000000E-03 0.  1.
         11   -1    0    0    0    0 -0.00000000000E+00 -0.00000000000E+00 -0.45593999997E+02  0.45594000000E+02  0.51100000000E-03 0. -1.
    9900012    2    1    2    0    0  0.24006970922E+01 -0.11735753359E+02  0.38854525122E+02  0.50528863562E+02  0.30000011282E+02 0.  0.
         12    1    1    2    0    0 -0.24006970922E+01  0.11735753359E+02 -0.38854525122E+02  0.40659136438E+02  0.00000000000E+00 0. -1.
         11    1    3    3    0    0 -0.28268951716E+01  0.89778982535E+01  0.74460666320E+01  0.12001579142E+02  0.51100000000E-03 0. -1.
        -11    1    3    3    0    0  0.58724707430E+01 -0.10605989064E+02  0.15682899152E+02  0.19822367233E+02  0.51100000000E-03 0.  1.
         12    1    3    3    0    0 -0.64487847914E+00 -0.10107662548E+02  0.15725559338E+02  0.18704917186E+02  0.00000000000E+00 0. -1.
</event>
<event>
 7    1  0.2991278E-011  0.5052887E+02  0.7816164E-02  0.1300439E+00
        -11   -1    0    0    0    0  0.00000000000E+00  0.00000000000E+00  0.45593999997E+02  0.45594000000E+02  0.51100000000E-03 0. -1.
         11   -1    0    0    0    0 -0.00000000000E+00 -0.00000000000E+00 -0.45593999997E+02  0.45594000000E+02  0.51100000000E-03 0.  1.
    9900012    2    1    2    0    0  0.16965224492E+02 -0.14247850146E+02 -0.34093180544E+02  0.50528867748E+02  0.30000024008E+02 0.  0.
         12    1    1    2    0    0 -0.16965224492E+02  0.14247850146E+02  0.34093180544E+02  0.40659132252E+02  0.00000000000E+00 0. -1.
         11    1    3    3    0    0  0.18884401460E+01 -0.15461335163E+02 -0.39808216118E+01  0.16076878807E+02  0.51100000000E-03 0. -1.
        -11    1    3    3    0    0  0.52851323933E+01  0.26203257606E+01 -0.61193187505E+01  0.84996937438E+01  0.51100000000E-03 0.  1.
         12    1    3    3    0    0  0.97916519524E+01 -0.14068407429E+01 -0.23993040182E+02  0.25952295197E+02  0.00000000000E+00 0. -1.
</event>
<event>
 7    1  0.2991278E-011  0.5052885E+02  0.7816164E-02  0.1300439E+00
        -11   -1    0    0    0    0  0.00000000000E+00  0.00000000000E+00  0.45593999997E+02  0.45594000000E+02  0.51100000000E-03 0.  1.
         11   -1    0    0    0    0 -0.00000000000E+00 -0.00000000000E+00 -0.45593999997E+02  0.45594000000E+02  0.51100000000E-03 0. -1.
    9900012    2    1    2    0    0 -0.95478511211E+00  0.17049613569E+02  0.36899396902E+02  0.50528850609E+02  0.29999971913E+02 0.  0.
         12    1    1    2    0    0  0.95478511211E+00 -0.17049613569E+02 -0.36899396902E+02  0.40659149391E+02  0.00000000000E+00 0. -1.
         11    1    3    3    0    0 -0.76677846707E+00  0.22743697850E+00 -0.39146054347E+01  0.39954740353E+01  0.51100000000E-03 0. -1.
        -11    1    3    3    0    0  0.23780001952E+01  0.14374830963E+01  0.21635362333E+02  0.21813072827E+02  0.51100000000E-03 0.  1.
         12    1    3    3    0    0 -0.25660068403E+01  0.15384693494E+02  0.19178640003E+02  0.24720303748E+02  0.00000000000E+00 0. -1.
</event>
<event>
 7    1  0.2991278E-011  0.5052886E+02  0.7816164E-02  0.1300439E+00
        -11   -1    0    0    0    0  0.00000000000E+00  0.00000000000E+00  0.45593999997E+02  0.45594000000E+02  0.51100000000E-03 0.  1.
         11   -1    0    0    0    0 -0.00000000000E+00 -0.00000000000E+00 -0.45593999997E+02  0.45594000000E+02  0.51100000000E-03 0. -1.
    9900012    2    1    2    0    0 -0.27524152775E+02 -0.19134094091E+02  0.23010289414E+02  0.50528856360E+02  0.29999989390E+02 0.  0.
         12    1    1    2    0    0  0.27524152775E+02  0.19134094091E+02 -0.23010289414E+02  0.40659143640E+02  0.00000000000E+00 0. -1.
         11    1    3    3    0    0 -0.13235849629E+02 -0.16369874759E+02  0.18108304837E+02  0.27768169176E+02  0.51100000000E-03 0.  1.
        -11    1    3    3    0    0 -0.14179576814E+02  0.11359541230E+01 -0.24529316577E+01  0.14434945943E+02  0.51100000000E-03 0. -1.
         12    1    3    3    0    0 -0.10872633176E+00 -0.39001734544E+01  0.73549162345E+01  0.83257412407E+01  0.00000000000E+00 0. -1.
</event>
<event>
 7    1  0.2991278E-011  0.5052888E+02  0.7816164E-02  0.1300439E+00
        -11   -1    0    0    0    0  0.00000000000E+00  0.00000000000E+00  0.45593999997E+02  0.45594000000E+02  0.51100000000E-03 0.  1.
         11   -1    0    0    0    0 -0.00000000000E+00 -0.00000000000E+00 -0.45593999997E+02  0.45594000000E+02  0.51100000000E-03 0. -1.
    9900012    2    1    2    0    0 -0.14130361319E+02  0.37687513832E+02  0.57574756965E+01  0.50528876347E+02  0.30000050145E+02 0.  0.
         12    1    1    2    0    0  0.14130361319E+02 -0.37687513832E+02 -0.57574756965E+01  0.40659123653E+02  0.00000000000E+00 0. -1.
         11    1    3    3    0    0  0.50769499686E+01  0.33847703773E+01 -0.59813705332E+01  0.85445236969E+01  0.51100000000E-03 0. -1.
        -11    1    3    3    0    0 -0.15039668714E+01  0.65244206445E+01  0.50142212966E+01  0.83649504822E+01  0.51100000000E-03 0.  1.
         12    1    3    3    0    0 -0.17703344416E+02  0.27778322810E+02  0.67246249331E+01  0.33619402168E+02  0.00000000000E+00 0. -1.
</event>
<event>
 7    1  0.2991278E-011  0.5052887E+02  0.7816164E-02  0.1300439E+00
        -11   -1    0    0    0    0  0.00000000000E+00  0.00000000000E+00  0.45593999997E+02  0.45594000000E+02  0.51100000000E-03 0.  1.
         11   -1    0    0    0    0 -0.00000000000E+00 -0.00000000000E+00 -0.45593999997E+02  0.45594000000E+02  0.51100000000E-03 0. -1.
    9900012    2    1    2    0    0 -0.49940718697E+00  0.28533095839E+02  0.28961661310E+02  0.50528870748E+02  0.30000033127E+02 0.  0.
         12    1    1    2    0    0  0.49940718697E+00 -0.28533095839E+02 -0.28961661310E+02  0.40659129252E+02  0.00000000000E+00 0. -1.
         11    1    3    3    0    0 -0.81745679882E-01  0.25070702504E+00  0.12162415218E+02  0.12165273551E+02  0.51100000000E-03 0.  1.
        -11    1    3    3    0    0 -0.20578262183E+01  0.14647035061E+02 -0.21652540144E+01  0.14948532036E+02  0.51100000000E-03 0. -1.
        -12    1    3    3    0    0  0.16401647112E+01  0.13635353752E+02  0.18964500106E+02  0.23415065162E+02  0.00000000000E+00 0.  1.
</event>
<event>
 7    1  0.2991278E-011  0.5052886E+02  0.7816164E-02  0.1300439E+00
        -11   -1    0    0    0    0  0.00000000000E+00  0.00000000000E+00  0.45593999997E+02  0.45594000000E+02  0.51100000000E-03 0.  1.
         11   -1    0    0    0    0 -0.00000000000E+00 -0.00000000000E+00 -0.45593999997E+02  0.45594000000E+02  0.51100000000E-03 0. -1.
    9900012    2    1    2    0    0  0.26814349420E+02  0.25743222456E+02  0.16475528360E+02  0.50528857461E+02  0.29999992739E+02 0.  0.
         12    1    1    2    0    0 -0.26814349420E+02 -0.25743222456E+02 -0.16475528360E+02  0.40659142539E+02  0.00000000000E+00 0. -1.
         11    1    3    3    0    0  0.48446928350E+01 -0.58793609582E+01 -0.28633273755E+00  0.76236422162E+01  0.51100000000E-03 0. -1.
        -11    1    3    3    0    0  0.61205090536E+01  0.42347499963E+01  0.57344686093E+01  0.93956303193E+01  0.51100000000E-03 0.  1.
         12    1    3    3    0    0  0.15849147532E+02  0.27387833418E+02  0.11027392488E+02  0.33509584926E+02  0.00000000000E+00 0. -1.
</event>
<event>
 7    1  0.2991278E-011  0.5052886E+02  0.7816164E-02  0.1300439E+00
        -11   -1    0    0    0    0  0.00000000000E+00  0.00000000000E+00  0.45593999997E+02  0.45594000000E+02  0.51100000000E-03 0.  1.
         11   -1    0    0    0    0 -0.00000000000E+00 -0.00000000000E+00 -0.45593999997E+02  0.45594000000E+02  0.51100000000E-03 0. -1.
    9900012    2    1    2    0    0 -0.71795235927E+01 -0.39550349592E+02 -0.61147285600E+01  0.50528860594E+02  0.30000002262E+02 0.  0.
         12    1    1    2    0    0  0.71795235927E+01  0.39550349592E+02  0.61147285600E+01  0.40659139406E+02  0.00000000000E+00 0. -1.
         11    1    3    3    0    0  0.37630749526E+01 -0.17726753540E+02 -0.14295672499E+02  0.23081697871E+02  0.51100000000E-03 0. -1.
        -11    1    3    3    0    0 -0.30704782699E+01 -0.14337854669E+02  0.77276290358E+01  0.16574624101E+02  0.51100000000E-03 0.  1.
         12    1    3    3    0    0 -0.78721202754E+01 -0.74857413835E+01  0.45331490319E+00  0.10872538622E+02  0.00000000000E+00 0. -1.
</event>
<event>
 7    1  0.2991278E-011  0.5052887E+02  0.7816164E-02  0.1300439E+00
        -11   -1    0    0    0    0  0.00000000000E+00  0.00000000000E+00  0.45593999997E+02  0.45594000000E+02  0.51100000000E-03 0.  1.
         11   -1    0    0    0    0 -0.00000000000E+00 -0.00000000000E+00 -0.45593999997E+02  0.45594000000E+02  0.51100000000E-03 0. -1.
    9900012    2    1    2    0    0  0.21166033010E+02 -0.19682566310E+01  0.34659634479E+02  0.50528865113E+02  0.30000015998E+02 0.  0.
         12    1    1    2    0    0 -0.21166033010E+02  0.19682566310E+01 -0.34659634479E+02  0.40659134887E+02  0.00000000000E+00 0. -1.
         11    1    3    3    0    0  0.28756934126E+01 -0.76971331686E+01  0.13754182202E+02  0.16021641611E+02  0.51100000000E-03 0. -1.
        -11    1    3    3    0    0  0.16440005442E+02  0.48534430805E+01  0.41625168078E+01  0.17639621172E+02  0.51100000000E-03 0.  1.
        -12    1    3    3    0    0  0.18503341559E+01  0.87543345713E+00  0.16742935469E+02  0.16867602330E+02  0.00000000000E+00 0.  1.
</event>
<event>
 7    1  0.2991278E-011  0.5052886E+02  0.7816164E-02  0.1300439E+00
        -11   -1    0    0    0    0  0.00000000000E+00  0.00000000000E+00  0.45593999997E+02  0.45594000000E+02  0.51100000000E-03 0.  1.
         11   -1    0    0    0    0 -0.00000000000E+00 -0.00000000000E+00 -0.45593999997E+02  0.45594000000E+02  0.51100000000E-03 0. -1.
    9900012    2    1    2    0    0 -0.27428014505E+02 -0.38673303290E+01  0.29764299907E+02  0.50528858685E+02  0.29999996459E+02 0.  0.
         12    1    1    2    0    0  0.27428014505E+02  0.38673303290E+01 -0.29764299907E+02  0.40659141315E+02  0.00000000000E+00 0. -1.
         11    1    3    3    0    0 -0.32692291155E+01  0.36991800125E+01  0.95346839071E+01  0.10736945061E+02  0.51100000000E-03 0. -1.
        -11    1    3    3    0    0 -0.49333910313E+01 -0.13074199786E+02  0.57947790865E+01  0.15127872026E+02  0.51100000000E-03 0.  1.
        -12    1    3    3    0    0 -0.19225394358E+02  0.55076894449E+01  0.14434836913E+02  0.24664041598E+02  0.00000000000E+00 0.  1.
</event>
<event>
 7    1  0.2991278E-011  0.5052886E+02  0.7816164E-02  0.1300439E+00
        -11   -1    0    0    0    0  0.00000000000E+00  0.00000000000E+00  0.45593999997E+02  0.45594000000E+02  0.51100000000E-03 0. -1.
         11   -1    0    0    0    0 -0.00000000000E+00 -0.00000000000E+00 -0.45593999997E+02  0.45594000000E+02  0.51100000000E-03 0.  1.
    9900012    2    1    2    0    0 -0.51894562111E+01  0.37389834579E+02 -0.15107466078E+02  0.50528859368E+02  0.29999998534E+02 0.  0.
         12    1    1    2    0    0  0.51894562111E+01 -0.37389834579E+02  0.15107466078E+02  0.40659140632E+02  0.00000000000E+00 0. -1.
         11    1    3    3    0    0 -0.13874283719E+01 -0.91346588716E+00 -0.84308658598E+00  0.18628399467E+01  0.51100000000E-03 0. -1.
        -11    1    3    3    0    0  0.32194388702E+01  0.30692576822E+02 -0.20052155717E+02  0.36803369516E+02  0.51100000000E-03 0.  1.
        -12    1    3    3    0    0 -0.70214667093E+01  0.76107236448E+01  0.57877762243E+01  0.11862649905E+02  0.00000000000E+00 0.  1.
</event>
<event>
 7    1  0.2991278E-011  0.5052887E+02  0.7816164E-02  0.1300439E+00
        -11   -1    0    0    0    0  0.00000000000E+00  0.00000000000E+00  0.45593999997E+02  0.45594000000E+02  0.51100000000E-03 0.  1.
         11   -1    0    0    0    0 -0.00000000000E+00 -0.00000000000E+00 -0.45593999997E+02  0.45594000000E+02  0.51100000000E-03 0. -1.
    9900012    2    1    2    0    0 -0.22114944398E+02  0.10918621362E+02  0.32324567683E+02  0.50528871454E+02  0.30000035273E+02 0.  0.
         12    1    1    2    0    0  0.22114944398E+02 -0.10918621362E+02 -0.32324567683E+02  0.40659128546E+02  0.00000000000E+00 0. -1.
         11    1    3    3    0    0  0.13157772437E+01  0.85318496705E+01 -0.16722860942E+01  0.87931945047E+01  0.51100000000E-03 0. -1.
        -11    1    3    3    0    0 -0.37833585432E+01 -0.16585965980E+01  0.64394297997E+01  0.76505555974E+01  0.51100000000E-03 0.  1.
         12    1    3    3    0    0 -0.19647363098E+02  0.40453682895E+01  0.27557423978E+02  0.34085121352E+02  0.00000000000E+00 0. -1.
</event>
<event>
 7    1  0.2991278E-011  0.5052885E+02  0.7816164E-02  0.1300439E+00
        -11   -1    0    0    0    0  0.00000000000E+00  0.00000000000E+00  0.45593999997E+02  0.45594000000E+02  0.51100000000E-03 0.  1.
         11   -1    0    0    0    0 -0.00000000000E+00 -0.00000000000E+00 -0.45593999997E+02  0.45594000000E+02  0.51100000000E-03 0. -1.
    9900012    2    1    2    0    0  0.60319099298E+01 -0.38506081134E+02  0.11578605737E+02  0.50528851798E+02  0.29999975526E+02 0.  0.
         12    1    1    2    0    0 -0.60319099298E+01  0.38506081134E+02 -0.11578605737E+02  0.40659148202E+02  0.00000000000E+00 0. -1.
         11    1    3    3    0    0 -0.42606089507E+01  0.25863997501E+01  0.39123276025E+00  0.49995315413E+01  0.51100000000E-03 0. -1.
        -11    1    3    3    0    0  0.61644609209E+01 -0.33131001780E+02  0.13443039368E+02  0.36281939931E+02  0.51100000000E-03 0.  1.
         12    1    3    3    0    0  0.41280579596E+01 -0.79614791034E+01 -0.22556663919E+01  0.92473803265E+01  0.00000000000E+00 0. -1.
</event>
<event>
 7    1  0.2991278E-011  0.5052886E+02  0.7816164E-02  0.1300439E+00
        -11   -1    0    0    0    0  0.00000000000E+00  0.00000000000E+00  0.45593999997E+02  0.45594000000E+02  0.51100000000E-03 0.  1.
         11   -1    0    0    0    0 -0.00000000000E+00 -0.00000000000E+00 -0.45593999997E+02  0.45594000000E+02  0.51100000000E-03 0. -1.
    9900012    2    1    2    0    0  0.21880758259E+02 -0.33539734796E+02  0.70344853403E+01  0.50528863558E+02  0.30000011271E+02 0.  0.
         12    1    1    2    0    0 -0.21880758259E+02  0.33539734796E+02 -0.70344853403E+01  0.40659136442E+02  0.00000000000E+00 0. -1.
         11    1    3    3    0    0  0.95385740779E+01 -0.20763814372E+02  0.60586984703E+01  0.23639547587E+02  0.51100000000E-03 0.  1.
        -11    1    3    3    0    0  0.18649168629E+01  0.54985726118E+01  0.14486564082E+00  0.58080290967E+01  0.51100000000E-03 0. -1.
         12    1    3    3    0    0  0.10477267318E+02 -0.18274493036E+02  0.83092122917E+00  0.21081286874E+02  0.00000000000E+00 0. -1.
</event>
<event>
 7    1  0.2991278E-011  0.5052886E+02  0.7816164E-02  0.1300439E+00
        -11   -1    0    0    0    0  0.00000000000E+00  0.00000000000E+00  0.45593999997E+02  0.45594000000E+02  0.51100000000E-03 0.  1.
         11   -1    0    0    0    0 -0.00000000000E+00 -0.00000000000E+00 -0.45593999997E+02  0.45594000000E+02  0.51100000000E-03 0. -1.
    9900012    2    1    2    0    0 -0.26500350289E+02 -0.61855579585E+01  0.30209867353E+02  0.50528858615E+02  0.29999996246E+02 0.  0.
         12    1    1    2    0    0  0.26500350289E+02  0.61855579585E+01 -0.30209867353E+02  0.40659141385E+02  0.00000000000E+00 0. -1.
         11    1    3    3    0    0 -0.95483732476E+00 -0.12938585430E+02  0.92635340741E+01  0.15941510940E+02  0.51100000000E-03 0.  1.
        -11    1    3    3    0    0 -0.15498151811E+02  0.75588688244E+01  0.11167375691E+02  0.20543599673E+02  0.51100000000E-03 0. -1.
         12    1    3    3    0    0 -0.10047361153E+02 -0.80584135318E+00  0.97789575877E+01  0.14043748002E+02  0.00000000000E+00 0. -1.
</event>
<event>
 7    1  0.2991278E-011  0.5052886E+02  0.7816164E-02  0.1300439E+00
        -11   -1    0    0    0    0  0.00000000000E+00  0.00000000000E+00  0.45593999997E+02  0.45594000000E+02  0.51100000000E-03 0. -1.
         11   -1    0    0    0    0 -0.00000000000E+00 -0.00000000000E+00 -0.45593999997E+02  0.45594000000E+02  0.51100000000E-03 0.  1.
    9900012    2    1    2    0    0 -0.85683928708E+01  0.21150755352E+02 -0.33651065612E+02  0.50528855578E+02  0.29999987014E+02 0.  0.
         12    1    1    2    0    0  0.85683928708E+01 -0.21150755352E+02  0.33651065612E+02  0.40659144422E+02  0.00000000000E+00 0. -1.
         11    1    3    3    0    0 -0.14184173364E+02  0.11599368458E+02 -0.10543824536E+02  0.21140207159E+02  0.51100000000E-03 0. -1.
        -11    1    3    3    0    0  0.13343215484E+01  0.11548811045E+02 -0.21420738949E+02  0.24372187180E+02  0.51100000000E-03 0.  1.
         12    1    3    3    0    0  0.42814589444E+01 -0.19974241514E+01 -0.16865021269E+01  0.50164612384E+01  0.00000000000E+00 0. -1.
</event>
<event>
 7    1  0.2991278E-011  0.5052885E+02  0.7816164E-02  0.1300439E+00
        -11   -1    0    0    0    0  0.00000000000E+00  0.00000000000E+00  0.45593999997E+02  0.45594000000E+02  0.51100000000E-03 0.  1.
         11   -1    0    0    0    0 -0.00000000000E+00 -0.00000000000E+00 -0.45593999997E+02  0.45594000000E+02  0.51100000000E-03 0. -1.
    9900012    2    1    2    0    0 -0.38232547997E+02 -0.58973077400E+01 -0.12516394814E+02  0.50528854607E+02  0.29999984064E+02 0.  0.
         12    1    1    2    0    0  0.38232547997E+02  0.58973077400E+01  0.12516394814E+02  0.40659145393E+02  0.00000000000E+00 0. -1.
         11    1    3    3    0    0 -0.33691025927E+01 -0.11698960737E+02 -0.23237135600E+00  0.12176638753E+02  0.51100000000E-03 0. -1.
        -11    1    3    3    0    0 -0.28820970191E+02  0.26554093602E+01 -0.12521656899E+02  0.31535557921E+02  0.51100000000E-03 0.  1.
         12    1    3    3    0    0 -0.60424752134E+01  0.31462436369E+01  0.23763344147E+00  0.68166579333E+01  0.00000000000E+00 0. -1.
</event>
<event>
 7    1  0.2991278E-011  0.5052887E+02  0.7816164E-02  0.1300439E+00
        -11   -1    0    0    0    0  0.00000000000E+00  0.00000000000E+00  0.45593999997E+02  0.45594000000E+02  0.51100000000E-03 0. -1.
         11   -1    0    0    0    0 -0.00000000000E+00 -0.00000000000E+00 -0.45593999997E+02  0.45594000000E+02  0.51100000000E-03 0.  1.
    9900012    2    1    2    0    0 -0.12925810580E+02  0.36919005694E+02 -0.11093941721E+02  0.50528866912E+02  0.30000021464E+02 0.  0.
         12    1    1    2    0    0  0.12925810580E+02 -0.36919005694E+02  0.11093941721E+02  0.40659133088E+02  0.00000000000E+00 0. -1.
         11    1    3    3    0    0  0.95331993398E+01  0.11534028433E+02 -0.62458434063E+01  0.16215001131E+02  0.51100000000E-03 0. -1.
        -11    1    3    3    0    0 -0.15310931681E+02  0.17247208755E+02 -0.43617612702E+01  0.23471595608E+02  0.51100000000E-03 0.  1.
         12    1    3    3    0    0 -0.71480782390E+01  0.81377685061E+01 -0.48633704467E+00  0.10842270172E+02  0.00000000000E+00 0. -1.
</event>
<event>
 7    1  0.2991278E-011  0.5052886E+02  0.7816164E-02  0.1300439E+00
        -11   -1    0    0    0    0  0.00000000000E+00  0.00000000000E+00  0.45593999997E+02  0.45594000000E+02  0.51100000000E-03 0.  1.
         11   -1    0    0    0    0 -0.00000000000E+00 -0.00000000000E+00 -0.45593999997E+02  0.45594000000E+02  0.51100000000E-03 0. -1.
    9900012    2    1    2    0    0  0.31584505601E+02  0.19960765105E+01  0.25526465767E+02  0.50528858715E+02  0.29999996549E+02 0.  0.
         12    1    1    2    0    0 -0.31584505601E+02 -0.19960765105E+01 -0.25526465767E+02  0.40659141285E+02  0.00000000000E+00 0. -1.
         11    1    3    3    0    0  0.78277429201E+01 -0.25126259463E+01 -0.50682879013E+01  0.96578667873E+01  0.51100000000E-03 0. -1.
        -11    1    3    3    0    0  0.15395922241E+02  0.84542756605E+01  0.17104093638E+02  0.24516509092E+02  0.51100000000E-03 0.  1.
         12    1    3    3    0    0  0.83608404393E+01 -0.39455732038E+01  0.13490660031E+02  0.16354482836E+02  0.00000000000E+00 0. -1.
</event>
<event>
 7    1  0.2991278E-011  0.5052887E+02  0.7816164E-02  0.1300439E+00
        -11   -1    0    0    0    0  0.00000000000E+00  0.00000000000E+00  0.45593999997E+02  0.45594000000E+02  0.51100000000E-03 0.  1.
         11   -1    0    0    0    0 -0.00000000000E+00 -0.00000000000E+00 -0.45593999997E+02  0.45594000000E+02  0.51100000000E-03 0. -1.
    9900012    2    1    2    0    0  0.29004067819E+02  0.28452375633E+02  0.15464198365E+01  0.50528867649E+02  0.30000023707E+02 0.  0.
         12    1    1    2    0    0 -0.29004067819E+02 -0.28452375633E+02 -0.15464198365E+01  0.40659132351E+02  0.00000000000E+00 0. -1.
         11    1    3    3    0    0  0.49002790733E+00  0.97289483002E+01 -0.23153695558E+01  0.10012666918E+02  0.51100000000E-03 0. -1.
        -11    1    3    3    0    0  0.31660512699E+02  0.17741457602E+02  0.12556592584E+01  0.36314240494E+02  0.51100000000E-03 0.  1.
        -12    1    3    3    0    0 -0.31464727878E+01  0.98196973058E+00  0.26061301339E+01  0.42019602367E+01  0.00000000000E+00 0.  1.
</event>
<event>
 7    1  0.2991278E-011  0.5052886E+02  0.7816164E-02  0.1300439E+00
        -11   -1    0    0    0    0  0.00000000000E+00  0.00000000000E+00  0.45593999997E+02  0.45594000000E+02  0.51100000000E-03 0.  1.
         11   -1    0    0    0    0 -0.00000000000E+00 -0.00000000000E+00 -0.45593999997E+02  0.45594000000E+02  0.51100000000E-03 0. -1.
    9900012    2    1    2    0    0  0.13008918813E+02 -0.68505384240E+01  0.37907828060E+02  0.50528864820E+02  0.30000015106E+02 0.  0.
         12    1    1    2    0    0 -0.13008918813E+02  0.68505384240E+01 -0.37907828060E+02  0.40659135180E+02  0.00000000000E+00 0. -1.
         11    1    3    3    0    0 -0.70770159078E+01  0.32622899524E+01  0.40333158879E+01  0.87746411440E+01  0.51100000000E-03 0. -1.
        -11    1    3    3    0    0  0.63942623175E+01  0.12707953770E+01  0.10691665650E+02  0.12522508779E+02  0.51100000000E-03 0.  1.
         12    1    3    3    0    0  0.13691672404E+02 -0.11383623753E+02  0.23182846522E+02  0.29231714897E+02  0.00000000000E+00 0. -1.
</event>
<event>
 7    1  0.2991278E-011  0.5052886E+02  0.7816164E-02  0.1300439E+00
        -11   -1    0    0    0    0  0.00000000000E+00  0.00000000000E+00  0.45593999997E+02  0.45594000000E+02  0.51100000000E-03 0.  1.
         11   -1    0    0    0    0 -0.00000000000E+00 -0.00000000000E+00 -0.45593999997E+02  0.45594000000E+02  0.51100000000E-03 0. -1.
    9900012    2    1    2    0    0  0.14640705312E+02  0.22121446943E+02  0.30813261983E+02  0.50528858581E+02  0.29999996143E+02 0.  0.
         12    1    1    2    0    0 -0.14640705312E+02 -0.22121446943E+02 -0.30813261983E+02  0.40659141419E+02  0.00000000000E+00 0. -1.
         11    1    3    3    0    0  0.36006277423E+00  0.11617669466E+02  0.72931603725E+01  0.13721883162E+02  0.51100000000E-03 0.  1.
        -11    1    3    3    0    0  0.35457679035E+01 -0.68757859482E+01  0.48360193336E+01  0.91233757836E+01  0.51100000000E-03 0. -1.
        -12    1    3    3    0    0  0.10734874634E+02  0.17379563426E+02  0.18684082277E+02  0.27683599636E+02  0.00000000000E+00 0.  1.
</event>
<event>
 7    1  0.2991278E-011  0.5052878E+02  0.7816164E-02  0.1300439E+00
        -11   -1    0    0    0    0  0.00000000000E+00  0.00000000000E+00  0.45593999997E+02  0.45594000000E+02  0.51100000000E-03 0. -1.
         11   -1    0    0    0    0 -0.00000000000E+00 -0.00000000000E+00 -0.45593999997E+02  0.45594000000E+02  0.51100000000E-03 0.  1.
    9900012    2    1    2    0    0 -0.36043715519E+02 -0.50006685794E+01 -0.18138801864E+02  0.50528779056E+02  0.29999754419E+02 0.  0.
         12    1    1    2    0    0  0.36043715519E+02  0.50006685794E+01  0.18138801864E+02  0.40659220944E+02  0.00000000000E+00 0. -1.
         11    1    3    3    0    0 -0.32460510788E+00  0.82206115881E+01 -0.58434884718E+01  0.10091094150E+02  0.51100000000E-03 0. -1.
        -11    1    3    3    0    0 -0.91543951602E+01 -0.10049604529E+01 -0.18825565855E+01  0.93998359464E+01  0.51100000000E-03 0.  1.
         12    1    3    3    0    0 -0.26564715251E+02 -0.12216319715E+02 -0.10412756807E+02  0.31037848960E+02  0.00000000000E+00 0. -1.
</event>
<event>
 7    1  0.2991278E-011  0.5052883E+02  0.7816164E-02  0.1300439E+00
        -11   -1    0    0    0    0  0.00000000000E+00  0.00000000000E+00  0.45593999997E+02  0.45594000000E+02  0.51100000000E-03 0.  1.
         11   -1    0    0    0    0 -0.00000000000E+00 -0.00000000000E+00 -0.45593999997E+02  0.45594000000E+02  0.51100000000E-03 0. -1.
    9900012    2    1    2    0    0 -0.31597174058E+02 -0.21696526604E+01  0.25496659404E+02  0.50528825859E+02  0.29999896680E+02 0.  0.
         12    1    1    2    0    0  0.31597174058E+02  0.21696526604E+01 -0.25496659404E+02  0.40659174141E+02  0.00000000000E+00 0. -1.
         11    1    3    3    0    0 -0.12983314943E+02  0.39083370258E+00 -0.11864685623E+01  0.13043271284E+02  0.51100000000E-03 0. -1.
        -11    1    3    3    0    0 -0.18576051845E+02  0.39758380896E+01  0.23491934189E+02  0.30211718966E+02  0.51100000000E-03 0.  1.
        -12    1    3    3    0    0 -0.37807270490E-01 -0.65363244526E+01  0.31911937767E+01  0.72738356085E+01  0.00000000000E+00 0.  1.
</event>
<event>
 7    1  0.2991278E-011  0.5052886E+02  0.7816164E-02  0.1300439E+00
        -11   -1    0    0    0    0  0.00000000000E+00  0.00000000000E+00  0.45593999997E+02  0.45594000000E+02  0.51100000000E-03 0. -1.
         11   -1    0    0    0    0 -0.00000000000E+00 -0.00000000000E+00 -0.45593999997E+02  0.45594000000E+02  0.51100000000E-03 0.  1.
    9900012    2    1    2    0    0 -0.36392127375E+02 -0.56266381603E+01 -0.17237155491E+02  0.50528861774E+02  0.30000005849E+02 0.  0.
         12    1    1    2    0    0  0.36392127375E+02  0.56266381603E+01  0.17237155491E+02  0.40659138226E+02  0.00000000000E+00 0. -1.
         11    1    3    3    0    0 -0.11319760225E+02  0.53968446855E+01  0.63844814886E+01  0.14072118115E+02  0.51100000000E-03 0. -1.
        -11    1    3    3    0    0 -0.15388422556E+02 -0.49762533120E+01 -0.15855886801E+02  0.22648968902E+02  0.51100000000E-03 0.  1.
         12    1    3    3    0    0 -0.96839445936E+01 -0.60472295338E+01 -0.77657501778E+01  0.13807774757E+02  0.00000000000E+00 0. -1.
</event>
<event>
 7    1  0.2991278E-011  0.5052886E+02  0.7816164E-02  0.1300439E+00
        -11   -1    0    0    0    0  0.00000000000E+00  0.00000000000E+00  0.45593999997E+02  0.45594000000E+02  0.51100000000E-03 0.  1.
         11   -1    0    0    0    0 -0.00000000000E+00 -0.00000000000E+00 -0.45593999997E+02  0.45594000000E+02  0.51100000000E-03 0. -1.
    9900012    2    1    2    0    0 -0.11343277426E+01  0.45862487009E+01  0.40383723675E+02  0.50528861858E+02  0.30000006104E+02 0.  0.
         12    1    1    2    0    0  0.11343277426E+01 -0.45862487009E+01 -0.40383723675E+02  0.40659138142E+02  0.00000000000E+00 0. -1.
         11    1    3    3    0    0 -0.73692852579E+01  0.10750349270E+02  0.20808359894E+02  0.24553293392E+02  0.51100000000E-03 0. -1.
        -11    1    3    3    0    0  0.34023800084E+01 -0.22772847544E+01  0.20646300566E+02  0.21048323992E+02  0.51100000000E-03 0.  1.
         12    1    3    3    0    0  0.28325775069E+01 -0.38868158147E+01 -0.10709367848E+01  0.49272444741E+01  0.00000000000E+00 0. -1.
</event>
<event>
 7    1  0.2991278E-011  0.5052886E+02  0.7816164E-02  0.1300439E+00
        -11   -1    0    0    0    0  0.00000000000E+00  0.00000000000E+00  0.45593999997E+02  0.45594000000E+02  0.51100000000E-03 0.  1.
         11   -1    0    0    0    0 -0.00000000000E+00 -0.00000000000E+00 -0.45593999997E+02  0.45594000000E+02  0.51100000000E-03 0. -1.
    9900012    2    1    2    0    0  0.25496707209E+01  0.15912450750E+01  0.40547906359E+02  0.50528860907E+02  0.30000003213E+02 0.  0.
         12    1    1    2    0    0 -0.25496707209E+01 -0.15912450750E+01 -0.40547906359E+02  0.40659139093E+02  0.00000000000E+00 0. -1.
         11    1    3    3    0    0 -0.41495583384E+01 -0.13770264528E+01  0.11994011105E+00  0.43737194865E+01  0.51100000000E-03 0. -1.
        -11    1    3    3    0    0  0.51821841667E+01  0.24314742966E+01  0.42859095553E+02  0.43239671274E+02  0.51100000000E-03 0.  1.
        -12    1    3    3    0    0  0.15170448926E+01  0.53679723128E+00 -0.24311293052E+01  0.29154701460E+01  0.00000000000E+00 0.  1.
</event>
<event>
 7    1  0.2991278E-011  0.5052885E+02  0.7816164E-02  0.1300439E+00
        -11   -1    0    0    0    0  0.00000000000E+00  0.00000000000E+00  0.45593999997E+02  0.45594000000E+02  0.51100000000E-03 0. -1.
         11   -1    0    0    0    0 -0.00000000000E+00 -0.00000000000E+00 -0.45593999997E+02  0.45594000000E+02  0.51100000000E-03 0.  1.
    9900012    2    1    2    0    0 -0.23692004123E+02  0.21358586348E+01 -0.32974134017E+02  0.50528850161E+02  0.29999970548E+02 0.  0.
         12    1    1    2    0    0  0.23692004123E+02 -0.21358586348E+01  0.32974134017E+02  0.40659149839E+02  0.00000000000E+00 0. -1.
         11    1    3    3    0    0 -0.21807717465E+02  0.68569976436E+01 -0.17036505510E+02  0.28510304768E+02  0.51100000000E-03 0. -1.
        -11    1    3    3    0    0 -0.10495629339E+01  0.88249212174E+00 -0.16284824058E+02  0.16342456044E+02  0.51100000000E-03 0.  1.
         12    1    3    3    0    0 -0.83472372390E+00 -0.56036311305E+01  0.34719555033E+00  0.56760893485E+01  0.00000000000E+00 0. -1.
</event>
<event>
 7    1  0.2991278E-011  0.5052886E+02  0.7816164E-02  0.1300439E+00
        -11   -1    0    0    0    0  0.00000000000E+00  0.00000000000E+00  0.45593999997E+02  0.45594000000E+02  0.51100000000E-03 0. -1.
         11   -1    0    0    0    0 -0.00000000000E+00 -0.00000000000E+00 -0.45593999997E+02  0.45594000000E+02  0.51100000000E-03 0.  1.
    9900012    2    1    2    0    0 -0.27613716789E+02 -0.29411621901E+02  0.50601354086E+01  0.50528858001E+02  0.29999994379E+02 0.  0.
         12    1    1    2    0    0  0.27613716789E+02  0.29411621901E+02 -0.50601354086E+01  0.40659141999E+02  0.00000000000E+00 0. -1.
         11    1    3    3    0    0 -0.26577084494E+02 -0.10912406282E+02  0.81560483436E+01  0.29865417390E+02  0.51100000000E-03 0. -1.
        -11    1    3    3    0    0 -0.35171193077E+01 -0.15258653985E+02 -0.45899627797E+01  0.16317610372E+02  0.51100000000E-03 0.  1.
         12    1    3    3    0    0  0.24804870124E+01 -0.32405616340E+01  0.14940498447E+01  0.43458302384E+01  0.00000000000E+00 0. -1.
</event>
<event>
 7    1  0.2991278E-011  0.5052885E+02  0.7816164E-02  0.1300439E+00
        -11   -1    0    0    0    0  0.00000000000E+00  0.00000000000E+00  0.45593999997E+02  0.45594000000E+02  0.51100000000E-03 0.  1.
         11   -1    0    0    0    0 -0.00000000000E+00 -0.00000000000E+00 -0.45593999997E+02  0.45594000000E+02  0.51100000000E-03 0. -1.
    9900012    2    1    2    0    0  0.36291709642E+01  0.35844068364E+02  0.18846701715E+02  0.50528852391E+02  0.29999977328E+02 0.  0.
         12    1    1    2    0    0 -0.36291709642E+01 -0.35844068364E+02 -0.18846701715E+02  0.40659147609E+02  0.00000000000E+00 0. -1.
         11    1    3    3    0    0 -0.29802379202E+00 -0.46050138351E+01  0.56823463979E+01  0.73201114369E+01  0.51100000000E-03 0. -1.
        -11    1    3    3    0    0  0.17982491299E+01  0.25370831317E+02  0.49677147315E+01  0.25915072285E+02  0.51100000000E-03 0.  1.
         12    1    3    3    0    0  0.21289456263E+01  0.15078250882E+02  0.81966405855E+01  0.17293668669E+02  0.00000000000E+00 0. -1.
</event>
<event>
 7    1  0.2991278E-011  0.5052888E+02  0.7816164E-02  0.1300439E+00
        -11   -1    0    0    0    0  0.00000000000E+00  0.00000000000E+00  0.45593999997E+02  0.45594000000E+02  0.51100000000E-03 0.  1.
         11   -1    0    0    0    0 -0.00000000000E+00 -0.00000000000E+00 -0.45593999997E+02  0.45594000000E+02  0.51100000000E-03 0. -1.
    9900012    2    1    2    0    0  0.31743393686E+02 -0.25232494604E+02 -0.29736131938E+01  0.50528877997E+02  0.30000055159E+02 0.  0.
         12    1    1    2    0    0 -0.31743393686E+02  0.25232494604E+02  0.29736131938E+01  0.40659122003E+02  0.00000000000E+00 0. -1.
         11    1    3    3    0    0  0.14344553221E+02 -0.11666814261E+02 -0.47731514287E+01  0.19096170739E+02  0.51100000000E-03 0. -1.
        -11    1    3    3    0    0  0.52730494625E+01 -0.11291602960E+02  0.10533011685E+02  0.16317159173E+02  0.51100000000E-03 0.  1.
         12    1    3    3    0    0  0.12125791003E+02 -0.22740773835E+01 -0.87334734503E+01  0.15115548085E+02  0.00000000000E+00 0. -1.
</event>
<event>
 7    1  0.2991278E-011  0.5052890E+02  0.7816164E-02  0.1300439E+00
        -11   -1    0    0    0    0  0.00000000000E+00  0.00000000000E+00  0.45593999997E+02  0.45594000000E+02  0.51100000000E-03 0. -1.
         11   -1    0    0    0    0 -0.00000000000E+00 -0.00000000000E+00 -0.45593999997E+02  0.45594000000E+02  0.51100000000E-03 0.  1.
    9900012    2    1    2    0    0  0.30806466839E+01  0.30386722897E+02 -0.26838753962E+02  0.50528904749E+02  0.30000136475E+02 0.  0.
         12    1    1    2    0    0 -0.30806466839E+01 -0.30386722897E+02  0.26838753962E+02  0.40659095251E+02  0.00000000000E+00 0. -1.
         11    1    3    3    0    0 -0.52634083550E+01  0.13819914672E+02 -0.25705291531E+02  0.29655615354E+02  0.51100000000E-03 0.  1.
        -11    1    3    3    0    0  0.90287582059E+01  0.11010466608E+02 -0.37041681018E+01  0.14712909680E+02  0.51100000000E-03 0. -1.
        -12    1    3    3    0    0 -0.68470316710E+00  0.55563416163E+01  0.25707056710E+01  0.61603797149E+01  0.00000000000E+00 0.  1.
</event>
<event>
 7    1  0.2991278E-011  0.5052887E+02  0.7816164E-02  0.1300439E+00
        -11   -1    0    0    0    0  0.00000000000E+00  0.00000000000E+00  0.45593999997E+02  0.45594000000E+02  0.51100000000E-03 0.  1.
         11   -1    0    0    0    0 -0.00000000000E+00 -0.00000000000E+00 -0.45593999997E+02  0.45594000000E+02  0.51100000000E-03 0. -1.
    9900012    2    1    2    0    0 -0.43039142941E+01  0.63335609877E+01  0.39931528236E+02  0.50528872853E+02  0.30000039525E+02 0.  0.
         12    1    1    2    0    0  0.43039142941E+01 -0.63335609877E+01 -0.39931528236E+02  0.40659127147E+02  0.00000000000E+00 0. -1.
         11    1    3    3    0    0  0.64025825509E+01  0.63866997768E+00  0.78909764732E+01  0.10181771586E+02  0.51100000000E-03 0. -1.
        -11    1    3    3    0    0 -0.15290883960E+02  0.98898571300E+01  0.25388331729E+02  0.31244004138E+02  0.51100000000E-03 0.  1.
        -12    1    3    3    0    0  0.45843871151E+01 -0.41949661200E+01  0.66522200338E+01  0.91030971294E+01  0.00000000000E+00 0.  1.
</event>
<event>
 7    1  0.2991278E-011  0.5052887E+02  0.7816164E-02  0.1300439E+00
        -11   -1    0    0    0    0  0.00000000000E+00  0.00000000000E+00  0.45593999997E+02  0.45594000000E+02  0.51100000000E-03 0. -1.
         11   -1    0    0    0    0 -0.00000000000E+00 -0.00000000000E+00 -0.45593999997E+02  0.45594000000E+02  0.51100000000E-03 0.  1.
    9900012    2    1    2    0    0  0.19799508581E+02  0.66474612568E+01 -0.34884890778E+02  0.50528869589E+02  0.30000029602E+02 0.  0.
         12    1    1    2    0    0 -0.19799508581E+02 -0.66474612568E+01  0.34884890778E+02  0.40659130411E+02  0.00000000000E+00 0. -1.
         11    1    3    3    0    0 -0.35332984601E+01  0.11134335547E+02 -0.87162161178E+01  0.14574980266E+02  0.51100000000E-03 0. -1.
        -11    1    3    3    0    0  0.69548272972E+01 -0.17728423586E+01 -0.12651378694E+02  0.14545445194E+02  0.51100000000E-03 0.  1.
         12    1    3    3    0    0  0.16377979744E+02 -0.27140319312E+01 -0.13517295966E+02  0.21408444130E+02  0.00000000000E+00 0. -1.
</event>
<event>
 7    1  0.2991278E-011  0.5052886E+02  0.7816164E-02  0.1300439E+00
        -11   -1    0    0    0    0  0.00000000000E+00  0.00000000000E+00  0.45593999997E+02  0.45594000000E+02  0.51100000000E-03 0.  1.
         11   -1    0    0    0    0 -0.00000000000E+00 -0.00000000000E+00 -0.45593999997E+02  0.45594000000E+02  0.51100000000E-03 0. -1.
    9900012    2    1    2    0    0  0.61400411873E+01  0.24096945095E+02  0.32168351718E+02  0.50528859319E+02  0.29999998385E+02 0.  0.
         12    1    1    2    0    0 -0.61400411873E+01 -0.24096945095E+02 -0.32168351718E+02  0.40659140681E+02  0.00000000000E+00 0. -1.
         11    1    3    3    0    0  0.13996769171E+02  0.17646416253E+02  0.16958020910E+02  0.28193616782E+02  0.51100000000E-03 0.  1.
        -11    1    3    3    0    0 -0.49786832824E+01  0.10334858573E+02  0.98863121014E+01  0.15143835584E+02  0.51100000000E-03 0. -1.
         12    1    3    3    0    0 -0.28780447018E+01 -0.38843297318E+01  0.53240187072E+01  0.71914069531E+01  0.00000000000E+00 0. -1.
</event>
<event>
 7    1  0.2991278E-011  0.5052885E+02  0.7816164E-02  0.1300439E+00
        -11   -1    0    0    0    0  0.00000000000E+00  0.00000000000E+00  0.45593999997E+02  0.45594000000E+02  0.51100000000E-03 0. -1.
         11   -1    0    0    0    0 -0.00000000000E+00 -0.00000000000E+00 -0.45593999997E+02  0.45594000000E+02  0.51100000000E-03 0.  1.
    9900012    2    1    2    0    0  0.34372072593E+02 -0.44907180040E+01 -0.21249944719E+02  0.50528854988E+02  0.29999985222E+02 0.  0.
         12    1    1    2    0    0 -0.34372072593E+02  0.44907180040E+01  0.21249944719E+02  0.40659145012E+02  0.00000000000E+00 0. -1.
         11    1    3    3    0    0  0.23730067077E+02  0.79767362931E+01 -0.17514333105E+02  0.30553171190E+02  0.51100000000E-03 0.  1.
        -11    1    3    3    0    0  0.11971408726E+02 -0.10466924013E+02 -0.45330899767E+00  0.15908381894E+02  0.51100000000E-03 0. -1.
        -12    1    3    3    0    0 -0.13294032105E+01 -0.20005302846E+01 -0.32823026165E+01  0.40673019045E+01  0.00000000000E+00 0.  1.
</event>
<event>
 7    1  0.2991278E-011  0.5052886E+02  0.7816164E-02  0.1300439E+00
        -11   -1    0    0    0    0  0.00000000000E+00  0.00000000000E+00  0.45593999997E+02  0.45594000000E+02  0.51100000000E-03 0.  1.
         11   -1    0    0    0    0 -0.00000000000E+00 -0.00000000000E+00 -0.45593999997E+02  0.45594000000E+02  0.51100000000E-03 0. -1.
    9900012    2    1    2    0    0  0.20789031229E+02 -0.17025060559E+02  0.30514412840E+02  0.50528857148E+02  0.29999991788E+02 0.  0.
         12    1    1    2    0    0 -0.20789031229E+02  0.17025060559E+02 -0.30514412840E+02  0.40659142852E+02  0.00000000000E+00 0. -1.
         11    1    3    3    0    0  0.67580841312E+01  0.53917695168E+00  0.12101918177E+01  0.68867247227E+01  0.51100000000E-03 0. -1.
        -11    1    3    3    0    0 -0.53275017357E+00 -0.17765825482E+02  0.15900328988E+02  0.23848036397E+02  0.51100000000E-03 0.  1.
        -12    1    3    3    0    0  0.14563697271E+02  0.20158797117E+00  0.13403892034E+02  0.19794096028E+02  0.00000000000E+00 0.  1.
</event>
<event>
 7    1  0.2991278E-011  0.5052886E+02  0.7816164E-02  0.1300439E+00
        -11   -1    0    0    0    0  0.00000000000E+00  0.00000000000E+00  0.45593999997E+02  0.45594000000E+02  0.51100000000E-03 0. -1.
         11   -1    0    0    0    0 -0.00000000000E+00 -0.00000000000E+00 -0.45593999997E+02  0.45594000000E+02  0.51100000000E-03 0.  1.
    9900012    2    1    2    0    0 -0.66523582882E+01 -0.33481596687E+02 -0.22088328094E+02  0.50528862952E+02  0.30000009430E+02 0.  0.
         12    1    1    2    0    0  0.66523582882E+01  0.33481596687E+02  0.22088328094E+02  0.40659137048E+02  0.00000000000E+00 0. -1.
         11    1    3    3    0    0 -0.27127551780E+01  0.15947823639E+01  0.35760273416E+01  0.47634381757E+01  0.51100000000E-03 0. -1.
        -11    1    3    3    0    0 -0.75255800457E+01 -0.23220264885E+02 -0.21967952378E+02  0.32839092379E+02  0.51100000000E-03 0.  1.
         12    1    3    3    0    0  0.35859769355E+01 -0.11856114165E+02 -0.36964030571E+01  0.12926332397E+02  0.00000000000E+00 0. -1.
</event>
<event>
 7    1  0.2991278E-011  0.5052885E+02  0.7816164E-02  0.1300439E+00
        -11   -1    0    0    0    0  0.00000000000E+00  0.00000000000E+00  0.45593999997E+02  0.45594000000E+02  0.51100000000E-03 0.  1.
         11   -1    0    0    0    0 -0.00000000000E+00 -0.00000000000E+00 -0.45593999997E+02  0.45594000000E+02  0.51100000000E-03 0. -1.
    9900012    2    1    2    0    0 -0.11738556365E+02  0.22949994400E+02  0.31443125403E+02  0.50528854859E+02  0.29999984829E+02 0.  0.
         12    1    1    2    0    0  0.11738556365E+02 -0.22949994400E+02 -0.31443125403E+02  0.40659145141E+02  0.00000000000E+00 0. -1.
         11    1    3    3    0    0 -0.73562361844E+00 -0.15976140436E+00  0.10909255038E+02  0.10935196000E+02  0.51100000000E-03 0. -1.
        -11    1    3    3    0    0  0.51513549054E+01  0.14535597094E+02  0.75913902564E+01  0.17188637134E+02  0.51100000000E-03 0.  1.
        -12    1    3    3    0    0 -0.16154287651E+02  0.85741587108E+01  0.12942480108E+02  0.22405021725E+02  0.00000000000E+00 0.  1.
</event>
<event>
 7    1  0.2991278E-011  0.5052888E+02  0.7816164E-02  0.1300439E+00
        -11   -1    0    0    0    0  0.00000000000E+00  0.00000000000E+00  0.45593999997E+02  0.45594000000E+02  0.51100000000E-03 0.  1.
         11   -1    0    0    0    0 -0.00000000000E+00 -0.00000000000E+00 -0.45593999997E+02  0.45594000000E+02  0.51100000000E-03 0. -1.
    9900012    2    1    2    0    0 -0.40757412181E+01 -0.19738444831E+02  0.35312119254E+02  0.50528884946E+02  0.30000076281E+02 0.  0.
         12    1    1    2    0    0  0.40757412181E+01  0.19738444831E+02 -0.35312119254E+02  0.40659115054E+02  0.00000000000E+00 0. -1.
         11    1    3    3    0    0  0.81858062331E+01 -0.14804108753E+02  0.59230847074E+01  0.17923503909E+02  0.51100000000E-03 0. -1.
        -11    1    3    3    0    0 -0.61566754893E+01 -0.51036696549E+01  0.15877466421E+02  0.17777683686E+02  0.51100000000E-03 0.  1.
         12    1    3    3    0    0 -0.61048719619E+01  0.16933357686E+00  0.13511568125E+02  0.14827697351E+02  0.00000000000E+00 0. -1.
</event>
<event>
 7    1  0.2991278E-011  0.5052880E+02  0.7816164E-02  0.1300439E+00
        -11   -1    0    0    0    0  0.00000000000E+00  0.00000000000E+00  0.45593999997E+02  0.45594000000E+02  0.51100000000E-03 0.  1.
         11   -1    0    0    0    0 -0.00000000000E+00 -0.00000000000E+00 -0.45593999997E+02  0.45594000000E+02  0.51100000000E-03 0. -1.
    9900012    2    1    2    0    0 -0.32481001245E+02 -0.24417555833E+02  0.13922439438E+01  0.50528796639E+02  0.29999807864E+02 0.  0.
         12    1    1    2    0    0  0.32481001245E+02  0.24417555833E+02 -0.13922439438E+01  0.40659203361E+02  0.00000000000E+00 0. -1.
         11    1    3    3    0    0 -0.48752666584E+01  0.29820152983E+01 -0.32495306477E+01  0.65741988045E+01  0.51100000000E-03 0. -1.
        -11    1    3    3    0    0 -0.27336691074E+02 -0.29527309986E+02  0.69158384587E+01  0.40828734192E+02  0.51100000000E-03 0.  1.
        -12    1    3    3    0    0 -0.26904351253E+00  0.21277388541E+01 -0.22740638672E+01  0.31258636431E+01  0.00000000000E+00 0.  1.
</event>
<event>
 7    1  0.2991278E-011  0.5052873E+02  0.7816164E-02  0.1300439E+00
        -11   -1    0    0    0    0  0.00000000000E+00  0.00000000000E+00  0.45593999997E+02  0.45594000000E+02  0.51100000000E-03 0. -1.
         11   -1    0    0    0    0 -0.00000000000E+00 -0.00000000000E+00 -0.45593999997E+02  0.45594000000E+02  0.51100000000E-03 0.  1.
    9900012    2    1    2    0    0  0.28318818730E+02 -0.62504536512E+01 -0.28498291232E+02  0.50528729615E+02  0.29999604134E+02 0.  0.
         12    1    1    2    0    0 -0.28318818730E+02  0.62504536512E+01  0.28498291232E+02  0.40659270385E+02  0.00000000000E+00 0. -1.
         11    1    3    3    0    0  0.14960152512E+02 -0.12644123047E+02 -0.71048785629E+01  0.20836489879E+02  0.51100000000E-03 0. -1.
        -11    1    3    3    0    0  0.10934204555E+02  0.88560603288E+01 -0.22067222394E+02  0.26171529154E+02  0.51100000000E-03 0.  1.
        -12    1    3    3    0    0  0.24244616627E+01 -0.24623909328E+01  0.67380972448E+00  0.35207105823E+01  0.00000000000E+00 0.  1.
</event>
<event>
 7    1  0.2991278E-011  0.5052887E+02  0.7816164E-02  0.1300439E+00
        -11   -1    0    0    0    0  0.00000000000E+00  0.00000000000E+00  0.45593999997E+02  0.45594000000E+02  0.51100000000E-03 0. -1.
         11   -1    0    0    0    0 -0.00000000000E+00 -0.00000000000E+00 -0.45593999997E+02  0.45594000000E+02  0.51100000000E-03 0.  1.
    9900012    2    1    2    0    0 -0.28615571436E+02 -0.17407977925E+01 -0.28831992273E+02  0.50528867151E+02  0.30000022193E+02 0.  0.
         12    1    1    2    0    0  0.28615571436E+02  0.17407977925E+01  0.28831992273E+02  0.40659132849E+02  0.00000000000E+00 0. -1.
         11    1    3    3    0    0 -0.66485249299E+01  0.18366853470E+01 -0.15126160047E+02  0.16624590667E+02  0.51100000000E-03 0.  1.
        -11    1    3    3    0    0 -0.32784943177E+01  0.49751318643E+01  0.36641086247E+01  0.69947233207E+01  0.51100000000E-03 0. -1.
        -12    1    3    3    0    0 -0.18688552188E+02 -0.85526150038E+01 -0.17369940851E+02  0.26909553164E+02  0.00000000000E+00 0.  1.
</event>
<event>
 7    1  0.2991278E-011  0.5052889E+02  0.7816164E-02  0.1300439E+00
        -11   -1    0    0    0    0  0.00000000000E+00  0.00000000000E+00  0.45593999997E+02  0.45594000000E+02  0.51100000000E-03 0.  1.
         11   -1    0    0    0    0 -0.00000000000E+00 -0.00000000000E+00 -0.45593999997E+02  0.45594000000E+02  0.51100000000E-03 0. -1.
    9900012    2    1    2    0    0  0.35968715245E+02  0.11749400035E+02  0.14878384408E+02  0.50528890318E+02  0.30000092610E+02 0.  0.
         12    1    1    2    0    0 -0.35968715245E+02 -0.11749400035E+02 -0.14878384408E+02  0.40659109682E+02  0.00000000000E+00 0. -1.
         11    1    3    3    0    0  0.65927011634E+00  0.76838149248E+00  0.61880426337E+01  0.62703204943E+01  0.51100000000E-03 0. -1.
        -11    1    3    3    0    0  0.34484146863E+02  0.56930135219E+01  0.13098630528E+02  0.37324802877E+02  0.51100000000E-03 0.  1.
        -12    1    3    3    0    0  0.82529826608E+00  0.52880050206E+01 -0.44082887546E+01  0.69337669466E+01  0.00000000000E+00 0.  1.
</event>
<event>
 7    1  0.2991278E-011  0.5052887E+02  0.7816164E-02  0.1300439E+00
        -11   -1    0    0    0    0  0.00000000000E+00  0.00000000000E+00  0.45593999997E+02  0.45594000000E+02  0.51100000000E-03 0.  1.
         11   -1    0    0    0    0 -0.00000000000E+00 -0.00000000000E+00 -0.45593999997E+02  0.45594000000E+02  0.51100000000E-03 0. -1.
    9900012    2    1    2    0    0 -0.23723633724E+02  0.32090022607E+02 -0.77836086205E+01  0.50528869277E+02  0.30000028654E+02 0.  0.
         12    1    1    2    0    0  0.23723633724E+02 -0.32090022607E+02  0.77836086205E+01  0.40659130723E+02  0.00000000000E+00 0. -1.
         11    1    3    3    0    0 -0.15022436944E+02  0.10131902955E+00  0.63871615810E+00  0.15036350484E+02  0.51100000000E-03 0. -1.
        -11    1    3    3    0    0  0.20626986486E+01  0.47515943644E+01 -0.16005078630E+01  0.54216234100E+01  0.51100000000E-03 0.  1.
         12    1    3    3    0    0 -0.10763895428E+02  0.27237109213E+02 -0.68218169156E+01  0.30070895383E+02  0.00000000000E+00 0. -1.
</event>
<event>
 7    1  0.2991278E-011  0.5052885E+02  0.7816164E-02  0.1300439E+00
        -11   -1    0    0    0    0  0.00000000000E+00  0.00000000000E+00  0.45593999997E+02  0.45594000000E+02  0.51100000000E-03 0.  1.
         11   -1    0    0    0    0 -0.00000000000E+00 -0.00000000000E+00 -0.45593999997E+02  0.45594000000E+02  0.51100000000E-03 0. -1.
    9900012    2    1    2    0    0  0.70134866444E+01 -0.21657193678E+01  0.39991087409E+02  0.50528850876E+02  0.29999972724E+02 0.  0.
         12    1    1    2    0    0 -0.70134866444E+01  0.21657193678E+01 -0.39991087409E+02  0.40659149124E+02  0.00000000000E+00 0. -1.
         11    1    3    3    0    0 -0.47972384733E+00 -0.76092933760E+01  0.18741504681E+02  0.20233029398E+02  0.51100000000E-03 0.  1.
        -11    1    3    3    0    0 -0.30740073881E+01  0.97165999668E+01  0.97371021349E+01  0.14095140815E+02  0.51100000000E-03 0. -1.
         12    1    3    3    0    0  0.10567217880E+02 -0.42730259587E+01  0.11512480593E+02  0.16200680664E+02  0.00000000000E+00 0. -1.
</event>
<event>
 7    1  0.2991278E-011  0.5052886E+02  0.7816164E-02  0.1300439E+00
        -11   -1    0    0    0    0  0.00000000000E+00  0.00000000000E+00  0.45593999997E+02  0.45594000000E+02  0.51100000000E-03 0. -1.
         11   -1    0    0    0    0 -0.00000000000E+00 -0.00000000000E+00 -0.45593999997E+02  0.45594000000E+02  0.51100000000E-03 0.  1.
    9900012    2    1    2    0    0 -0.16119891410E+02  0.15348755509E+02 -0.34025439562E+02  0.50528859181E+02  0.29999997966E+02 0.  0.
         12    1    1    2    0    0  0.16119891410E+02 -0.15348755509E+02  0.34025439562E+02  0.40659140819E+02  0.00000000000E+00 0. -1.
         11    1    3    3    0    0 -0.11489295265E+02  0.11975870899E+02 -0.11460378851E+01  0.16635467909E+02  0.51100000000E-03 0. -1.
        -11    1    3    3    0    0 -0.27473596940E+01  0.25310731728E-01 -0.24752828286E+02  0.24904841584E+02  0.51100000000E-03 0.  1.
        -12    1    3    3    0    0 -0.18832364513E+01  0.33475738780E+01 -0.81265733913E+01  0.89885496874E+01  0.00000000000E+00 0.  1.
</event>
<event>
 7    1  0.2991278E-011  0.5052886E+02  0.7816164E-02  0.1300439E+00
        -11   -1    0    0    0    0  0.00000000000E+00  0.00000000000E+00  0.45593999997E+02  0.45594000000E+02  0.51100000000E-03 0.  1.
         11   -1    0    0    0    0 -0.00000000000E+00 -0.00000000000E+00 -0.45593999997E+02  0.45594000000E+02  0.51100000000E-03 0. -1.
    9900012    2    1    2    0    0 -0.37536113930E+02  0.15616723275E+02  0.56902678491E+00  0.50528859745E+02  0.29999999682E+02 0.  0.
         12    1    1    2    0    0  0.37536113930E+02 -0.15616723275E+02 -0.56902678491E+00  0.40659140255E+02  0.00000000000E+00 0. -1.
         11    1    3    3    0    0  0.14311293824E+00  0.65973551877E+01 -0.41320993821E+01  0.77858732555E+01  0.51100000000E-03 0. -1.
        -11    1    3    3    0    0 -0.33521878844E+02  0.13706158670E+02  0.38259706730E+01  0.36417210198E+02  0.51100000000E-03 0.  1.
         12    1    3    3    0    0 -0.41573480239E+01 -0.46867905830E+01  0.87515549403E+00  0.63257762922E+01  0.00000000000E+00 0. -1.
</event>
<event>
 7    1  0.2991278E-011  0.5052886E+02  0.7816164E-02  0.1300439E+00
        -11   -1    0    0    0    0  0.00000000000E+00  0.00000000000E+00  0.45593999997E+02  0.45594000000E+02  0.51100000000E-03 0. -1.
         11   -1    0    0    0    0 -0.00000000000E+00 -0.00000000000E+00 -0.45593999997E+02  0.45594000000E+02  0.51100000000E-03 0.  1.
    9900012    2    1    2    0    0 -0.13329313383E+02 -0.23610186472E+02  0.30299407630E+02  0.50528860766E+02  0.30000002785E+02 0.  0.
         12    1    1    2    0    0  0.13329313383E+02  0.23610186472E+02 -0.30299407630E+02  0.40659139234E+02  0.00000000000E+00 0. -1.
         11    1    3    3    0    0 -0.14305034400E+02 -0.15478596178E+02  0.55032700075E+01  0.21783179976E+02  0.51100000000E-03 0. -1.
        -11    1    3    3    0    0 -0.16121100290E+01 -0.64504180750E+01  0.40797668045E+01  0.78007236542E+01  0.51100000000E-03 0.  1.
         12    1    3    3    0    0  0.25878310467E+01 -0.16811722193E+01  0.20716370818E+02  0.20944957136E+02  0.00000000000E+00 0. -1.
</event>
<event>
 7    1  0.2991278E-011  0.5052888E+02  0.7816164E-02  0.1300439E+00
        -11   -1    0    0    0    0  0.00000000000E+00  0.00000000000E+00  0.45593999997E+02  0.45594000000E+02  0.51100000000E-03 0. -1.
         11   -1    0    0    0    0 -0.00000000000E+00 -0.00000000000E+00 -0.45593999997E+02  0.45594000000E+02  0.51100000000E-03 0.  1.
    9900012    2    1    2    0    0 -0.10175242960E+02  0.35776222460E+02  0.16422257748E+02  0.50528877870E+02  0.30000054774E+02 0.  0.
         12    1    1    2    0    0  0.10175242960E+02 -0.35776222460E+02 -0.16422257748E+02  0.40659122130E+02  0.00000000000E+00 0. -1.
         11    1    3    3    0    0  0.16256001762E+01 -0.34526946853E+00 -0.30794149266E+01  0.34992261273E+01  0.51100000000E-03 0. -1.
        -11    1    3    3    0    0 -0.15366463471E+02  0.36094903575E+02  0.17923730734E+02  0.43130388213E+02  0.51100000000E-03 0.  1.
        -12    1    3    3    0    0  0.35656203343E+01  0.26588353374E-01  0.15779419409E+01  0.38992635302E+01  0.00000000000E+00 0.  1.
</event>
<event>
 7    1  0.2991278E-011  0.5052880E+02  0.7816164E-02  0.1300439E+00
        -11   -1    0    0    0    0  0.00000000000E+00  0.00000000000E+00  0.45593999997E+02  0.45594000000E+02  0.51100000000E-03 0.  1.
         11   -1    0    0    0    0 -0.00000000000E+00 -0.00000000000E+00 -0.45593999997E+02  0.45594000000E+02  0.51100000000E-03 0. -1.
    9900012    2    1    2    0    0 -0.14058011175E+02 -0.29776917695E+02  0.23851157744E+02  0.50528803853E+02  0.29999829791E+02 0.  0.
         12    1    1    2    0    0  0.14058011175E+02  0.29776917695E+02 -0.23851157744E+02  0.40659196147E+02  0.00000000000E+00 0. -1.
         11    1    3    3    0    0  0.14616531321E+01  0.39722963693E+01 -0.10790405726E+01  0.43680541598E+01  0.51100000000E-03 0. -1.
        -11    1    3    3    0    0 -0.12100314099E+02 -0.32432870343E+02  0.19872092244E+02  0.39915018857E+02  0.51100000000E-03 0.  1.
        -12    1    3    3    0    0 -0.34193502072E+01 -0.13163437213E+01  0.50581060727E+01  0.62457308359E+01  0.00000000000E+00 0.  1.
</event>
<event>
 7    1  0.2991278E-011  0.5052893E+02  0.7816164E-02  0.1300439E+00
        -11   -1    0    0    0    0  0.00000000000E+00  0.00000000000E+00  0.45593999997E+02  0.45594000000E+02  0.51100000000E-03 0.  1.
         11   -1    0    0    0    0 -0.00000000000E+00 -0.00000000000E+00 -0.45593999997E+02  0.45594000000E+02  0.51100000000E-03 0. -1.
    9900012    2    1    2    0    0  0.91069367462E+01  0.39169143127E+02  0.60001800947E+01  0.50528926826E+02  0.30000203578E+02 0.  0.
         12    1    1    2    0    0 -0.91069367462E+01 -0.39169143127E+02 -0.60001800947E+01  0.40659073174E+02  0.00000000000E+00 0. -1.
         11    1    3    3    0    0  0.13761596162E+01  0.22655925682E+02 -0.84778653565E+00  0.22713509770E+02  0.51100000000E-03 0. -1.
        -11    1    3    3    0    0  0.17055084558E+01 -0.45117025245E+01 -0.22612434926E+00  0.48285972337E+01  0.51100000000E-03 0.  1.
        -12    1    3    3    0    0  0.60252686742E+01  0.21024919969E+02  0.70740909796E+01  0.22986819821E+02  0.00000000000E+00 0.  1.
</event>
<event>
 7    1  0.2991278E-011  0.5052884E+02  0.7816164E-02  0.1300439E+00
        -11   -1    0    0    0    0  0.00000000000E+00  0.00000000000E+00  0.45593999997E+02  0.45594000000E+02  0.51100000000E-03 0.  1.
         11   -1    0    0    0    0 -0.00000000000E+00 -0.00000000000E+00 -0.45593999997E+02  0.45594000000E+02  0.51100000000E-03 0. -1.
    9900012    2    1    2    0    0 -0.33103443125E+02 -0.33306069357E+01  0.23371694270E+02  0.50528843807E+02  0.29999951236E+02 0.  0.
         12    1    1    2    0    0  0.33103443125E+02  0.33306069357E+01 -0.23371694270E+02  0.40659156193E+02  0.00000000000E+00 0. -1.
         11    1    3    3    0    0 -0.50035066112E+01 -0.60778282224E+01 -0.42229122915E+01  0.89335358505E+01  0.51100000000E-03 0. -1.
        -11    1    3    3    0    0 -0.37456680752E+01  0.21859461897E+01  0.11776101232E+02  0.12549300800E+02  0.51100000000E-03 0.  1.
         12    1    3    3    0    0 -0.24354268438E+02  0.56127509711E+00  0.15818505329E+02  0.29046007157E+02  0.00000000000E+00 0. -1.
</event>
<event>
 7    1  0.2991278E-011  0.5052888E+02  0.7816164E-02  0.1300439E+00
        -11   -1    0    0    0    0  0.00000000000E+00  0.00000000000E+00  0.45593999997E+02  0.45594000000E+02  0.51100000000E-03 0.  1.
         11   -1    0    0    0    0 -0.00000000000E+00 -0.00000000000E+00 -0.45593999997E+02  0.45594000000E+02  0.51100000000E-03 0. -1.
    9900012    2    1    2    0    0  0.95599648450E+01  0.18071733915E+02  0.35145176704E+02  0.50528881219E+02  0.30000064952E+02 0.  0.
         12    1    1    2    0    0 -0.95599648450E+01 -0.18071733915E+02 -0.35145176704E+02  0.40659118781E+02  0.00000000000E+00 0. -1.
         11    1    3    3    0    0 -0.46443925629E+01  0.10347381688E+02  0.26236064130E+01  0.11641391710E+02  0.51100000000E-03 0. -1.
        -11    1    3    3    0    0  0.23494563003E+01  0.14126081016E+01  0.21041079164E+02  0.21218916542E+02  0.51100000000E-03 0.  1.
         12    1    3    3    0    0  0.11854901108E+02  0.63117441251E+01  0.11480491127E+02  0.17668572967E+02  0.00000000000E+00 0. -1.
</event>
<event>
 7    1  0.2991278E-011  0.5052886E+02  0.7816164E-02  0.1300439E+00
        -11   -1    0    0    0    0  0.00000000000E+00  0.00000000000E+00  0.45593999997E+02  0.45594000000E+02  0.51100000000E-03 0.  1.
         11   -1    0    0    0    0 -0.00000000000E+00 -0.00000000000E+00 -0.45593999997E+02  0.45594000000E+02  0.51100000000E-03 0. -1.
    9900012    2    1    2    0    0 -0.35810145967E+01  0.21726597141E+02  0.34180358246E+02  0.50528861068E+02  0.30000003701E+02 0.  0.
         12    1    1    2    0    0  0.35810145967E+01 -0.21726597141E+02 -0.34180358246E+02  0.40659138932E+02  0.00000000000E+00 0. -1.
         11    1    3    3    0    0  0.10862146388E+02  0.15295280419E+02  0.14194752441E+02  0.23524940475E+02  0.51100000000E-03 0. -1.
        -11    1    3    3    0    0 -0.45014758909E+01 -0.21754704672E+01  0.50951326867E+01  0.71383705638E+01  0.51100000000E-03 0.  1.
        -12    1    3    3    0    0 -0.99416850939E+01  0.86067871896E+01  0.14890473119E+02  0.19865550028E+02  0.00000000000E+00 0.  1.
</event>
<event>
 7    1  0.2991278E-011  0.5052885E+02  0.7816164E-02  0.1300439E+00
        -11   -1    0    0    0    0  0.00000000000E+00  0.00000000000E+00  0.45593999997E+02  0.45594000000E+02  0.51100000000E-03 0.  1.
         11   -1    0    0    0    0 -0.00000000000E+00 -0.00000000000E+00 -0.45593999997E+02  0.45594000000E+02  0.51100000000E-03 0. -1.
    9900012    2    1    2    0    0 -0.17095321918E+02 -0.21535002973E+01  0.36827687300E+02  0.50528854081E+02  0.29999982464E+02 0.  0.
         12    1    1    2    0    0  0.17095321918E+02  0.21535002973E+01 -0.36827687300E+02  0.40659145919E+02  0.00000000000E+00 0. -1.
         11    1    3    3    0    0 -0.15442052428E+02  0.41279442599E+01  0.12128198857E+02  0.20064648384E+02  0.51100000000E-03 0. -1.
        -11    1    3    3    0    0  0.38615526296E+01 -0.81522084791E+01  0.58884349867E+01  0.10772360867E+02  0.51100000000E-03 0.  1.
        -12    1    3    3    0    0 -0.55148221202E+01  0.18707639219E+01  0.18811053457E+02  0.19691844830E+02  0.00000000000E+00 0.  1.
</event>
<event>
 7    1  0.2991278E-011  0.5052886E+02  0.7816164E-02  0.1300439E+00
        -11   -1    0    0    0    0  0.00000000000E+00  0.00000000000E+00  0.45593999997E+02  0.45594000000E+02  0.51100000000E-03 0. -1.
         11   -1    0    0    0    0 -0.00000000000E+00 -0.00000000000E+00 -0.45593999997E+02  0.45594000000E+02  0.51100000000E-03 0.  1.
    9900012    2    1    2    0    0 -0.38557701932E+02  0.98764745983E+01  0.83020836909E+01  0.50528859301E+02  0.29999998331E+02 0.  0.
         12    1    1    2    0    0  0.38557701932E+02 -0.98764745983E+01 -0.83020836909E+01  0.40659140699E+02  0.00000000000E+00 0. -1.
         11    1    3    3    0    0 -0.37835404283E+01 -0.41337863377E+01  0.10109383925E+02  0.11558676882E+02  0.51100000000E-03 0. -1.
        -11    1    3    3    0    0 -0.28781264728E+02  0.14900008989E+02  0.69078171769E+00  0.32416795753E+02  0.51100000000E-03 0.  1.
         12    1    3    3    0    0 -0.59928967753E+01 -0.88974805297E+00 -0.24980819519E+01  0.65533866661E+01  0.00000000000E+00 0. -1.
</event>
<event>
 7    1  0.2991278E-011  0.5052886E+02  0.7816164E-02  0.1300439E+00
        -11   -1    0    0    0    0  0.00000000000E+00  0.00000000000E+00  0.45593999997E+02  0.45594000000E+02  0.51100000000E-03 0.  1.
         11   -1    0    0    0    0 -0.00000000000E+00 -0.00000000000E+00 -0.45593999997E+02  0.45594000000E+02  0.51100000000E-03 0. -1.
    9900012    2    1    2    0    0  0.76113631837E+00  0.37700067240E+02  0.15208262802E+02  0.50528860119E+02  0.30000000818E+02 0.  0.
         12    1    1    2    0    0 -0.76113631837E+00 -0.37700067240E+02 -0.15208262802E+02  0.40659139881E+02  0.00000000000E+00 0. -1.
         11    1    3    3    0    0  0.80546501565E+01  0.46118412267E+01 -0.20116321657E+01  0.94970065218E+01  0.51100000000E-03 0. -1.
        -11    1    3    3    0    0  0.43496475457E+00  0.23868669998E+02  0.16420948970E+02  0.28974992099E+02  0.51100000000E-03 0.  1.
        -12    1    3    3    0    0 -0.77284785927E+01  0.92195560154E+01  0.79894599778E+00  0.12056861498E+02  0.00000000000E+00 0.  1.
</event>
<event>
 7    1  0.2991278E-011  0.5052886E+02  0.7816164E-02  0.1300439E+00
        -11   -1    0    0    0    0  0.00000000000E+00  0.00000000000E+00  0.45593999997E+02  0.45594000000E+02  0.51100000000E-03 0.  1.
         11   -1    0    0    0    0 -0.00000000000E+00 -0.00000000000E+00 -0.45593999997E+02  0.45594000000E+02  0.51100000000E-03 0. -1.
    9900012    2    1    2    0    0  0.25627546701E+02 -0.12001248773E+02  0.29195279749E+02  0.50528862261E+02  0.30000007329E+02 0.  0.
         12    1    1    2    0    0 -0.25627546701E+02  0.12001248773E+02 -0.29195279749E+02  0.40659137739E+02  0.00000000000E+00 0. -1.
         11    1    3    3    0    0  0.88705735471E+01  0.46090578717E+01  0.18942783819E+02  0.21418672895E+02  0.51100000000E-03 0.  1.
        -11    1    3    3    0    0  0.75413040482E+01 -0.15703621615E+02  0.94415433443E+01  0.19814584011E+02  0.51100000000E-03 0. -1.
         12    1    3    3    0    0  0.92156691060E+01 -0.90668503034E+00  0.81095258600E+00  0.92956053548E+01  0.00000000000E+00 0. -1.
</event>
<event>
 7    1  0.2991278E-011  0.5052886E+02  0.7816164E-02  0.1300439E+00
        -11   -1    0    0    0    0  0.00000000000E+00  0.00000000000E+00  0.45593999997E+02  0.45594000000E+02  0.51100000000E-03 0.  1.
         11   -1    0    0    0    0 -0.00000000000E+00 -0.00000000000E+00 -0.45593999997E+02  0.45594000000E+02  0.51100000000E-03 0. -1.
    9900012    2    1    2    0    0  0.32408077975E+01  0.33824103065E+02  0.22329184853E+02  0.50528864747E+02  0.30000014884E+02 0.  0.
         12    1    1    2    0    0 -0.32408077975E+01 -0.33824103065E+02 -0.22329184853E+02  0.40659135253E+02  0.00000000000E+00 0. -1.
         11    1    3    3    0    0 -0.66865562242E+01  0.18135548584E+00  0.64308484819E+00  0.67198573151E+01  0.51100000000E-03 0. -1.
        -11    1    3    3    0    0  0.12712062924E+02  0.25986971209E+02  0.20765309814E+02  0.35610634764E+02  0.51100000000E-03 0.  1.
        -12    1    3    3    0    0 -0.27846989025E+01  0.76557763708E+01  0.92079019100E+00  0.81983726674E+01  0.00000000000E+00 0.  1.
</event>
<event>
 7    1  0.2991278E-011  0.5052886E+02  0.7816164E-02  0.1300439E+00
        -11   -1    0    0    0    0  0.00000000000E+00  0.00000000000E+00  0.45593999997E+02  0.45594000000E+02  0.51100000000E-03 0.  1.
         11   -1    0    0    0    0 -0.00000000000E+00 -0.00000000000E+00 -0.45593999997E+02  0.45594000000E+02  0.51100000000E-03 0. -1.
    9900012    2    1    2    0    0  0.33767161645E+01  0.11130969256E+02  0.38959790038E+02  0.50528856767E+02  0.29999990628E+02 0.  0.
         12    1    1    2    0    0 -0.33767161645E+01 -0.11130969256E+02 -0.38959790038E+02  0.40659143233E+02  0.00000000000E+00 0. -1.
         11    1    3    3    0    0 -0.24621954359E-01  0.15718701770E+01 -0.56907289243E+00  0.16718930325E+01  0.51100000000E-03 0. -1.
        -11    1    3    3    0    0  0.45771274593E+01  0.44811244520E+01  0.42417024581E+02  0.42897955041E+02  0.51100000000E-03 0.  1.
        -12    1    3    3    0    0 -0.11757893405E+01  0.50779746269E+01 -0.28881616503E+01  0.59590086929E+01  0.00000000000E+00 0.  1.
</event>
<event>
 7    1  0.2991278E-011  0.5052885E+02  0.7816164E-02  0.1300439E+00
        -11   -1    0    0    0    0  0.00000000000E+00  0.00000000000E+00  0.45593999997E+02  0.45594000000E+02  0.51100000000E-03 0. -1.
         11   -1    0    0    0    0 -0.00000000000E+00 -0.00000000000E+00 -0.45593999997E+02  0.45594000000E+02  0.51100000000E-03 0.  1.
    9900012    2    1    2    0    0 -0.34773659828E+02  0.17824144947E+02  0.11236491962E+02  0.50528852043E+02  0.29999976271E+02 0.  0.
         12    1    1    2    0    0  0.34773659828E+02 -0.17824144947E+02 -0.11236491962E+02  0.40659147957E+02  0.00000000000E+00 0. -1.
         11    1    3    3    0    0 -0.69112096609E+01 -0.54368925098E-02 -0.37187942675E+01  0.78482023165E+01  0.51100000000E-03 0. -1.
        -11    1    3    3    0    0 -0.11106448785E+02  0.17491046077E+02  0.15558221150E+02  0.25910386780E+02  0.51100000000E-03 0.  1.
        -12    1    3    3    0    0 -0.16756001382E+02  0.33853576236E+00 -0.60293492058E+00  0.16770262947E+02  0.00000000000E+00 0.  1.
</event>
<event>
 7    1  0.2991278E-011  0.5052886E+02  0.7816164E-02  0.1300439E+00
        -11   -1    0    0    0    0  0.00000000000E+00  0.00000000000E+00  0.45593999997E+02  0.45594000000E+02  0.51100000000E-03 0.  1.
         11   -1    0    0    0    0 -0.00000000000E+00 -0.00000000000E+00 -0.45593999997E+02  0.45594000000E+02  0.51100000000E-03 0. -1.
    9900012    2    1    2    0    0  0.36110005360E+01 -0.33670181269E+02  0.22504341080E+02  0.50528858359E+02  0.29999995468E+02 0.  0.
         12    1    1    2    0    0 -0.36110005360E+01  0.33670181269E+02 -0.22504341080E+02  0.40659141641E+02  0.00000000000E+00 0. -1.
         11    1    3    3    0    0 -0.47997736704E+00 -0.31119314261E+02  0.15385819442E+02  0.34718374653E+02  0.51100000000E-03 0. -1.
        -11    1    3    3    0    0  0.79810600162E+01  0.19567907362E-01  0.77265127024E+01  0.11108406757E+02  0.51100000000E-03 0.  1.
         12    1    3    3    0    0 -0.38900821132E+01 -0.25704349148E+01 -0.60799106472E+00  0.47020769489E+01  0.00000000000E+00 0. -1.
</event>
<event>
 7    1  0.2991278E-011  0.5052886E+02  0.7816164E-02  0.1300439E+00
        -11   -1    0    0    0    0  0.00000000000E+00  0.00000000000E+00  0.45593999997E+02  0.45594000000E+02  0.51100000000E-03 0. -1.
         11   -1    0    0    0    0 -0.00000000000E+00 -0.00000000000E+00 -0.45593999997E+02  0.45594000000E+02  0.51100000000E-03 0.  1.
    9900012    2    1    2    0    0  0.90631868923E+01  0.37802044981E+02 -0.11917630599E+02  0.50528857357E+02  0.29999992422E+02 0.  0.
         12    1    1    2    0    0 -0.90631868923E+01 -0.37802044981E+02  0.11917630599E+02  0.40659142643E+02  0.00000000000E+00 0. -1.
         11    1    3    3    0    0 -0.83873261865E+00  0.17508994602E+02  0.71670829750E+01  0.18937672587E+02  0.51100000000E-03 0.  1.
        -11    1    3    3    0    0  0.70414990551E+01  0.12184229429E+02 -0.18113922520E+02  0.22938010922E+02  0.51100000000E-03 0. -1.
         12    1    3    3    0    0  0.28604204559E+01  0.81088209500E+01 -0.97079105425E+00  0.86531738486E+01  0.00000000000E+00 0. -1.
</event>
<event>
 7    1  0.2991278E-011  0.5052886E+02  0.7816164E-02  0.1300439E+00
        -11   -1    0    0    0    0  0.00000000000E+00  0.00000000000E+00  0.45593999997E+02  0.45594000000E+02  0.51100000000E-03 0.  1.
         11   -1    0    0    0    0 -0.00000000000E+00 -0.00000000000E+00 -0.45593999997E+02  0.45594000000E+02  0.51100000000E-03 0. -1.
    9900012    2    1    2    0    0  0.27296807642E+02 -0.75459137572E+01  0.29173778330E+02  0.50528857561E+02  0.29999993042E+02 0.  0.
         12    1    1    2    0    0 -0.27296807642E+02  0.75459137572E+01 -0.29173778330E+02  0.40659142439E+02  0.00000000000E+00 0. -1.
         11    1    3    3    0    0 -0.35934443977E+01  0.48182999370E+00  0.91560936800E+00  0.37394309137E+01  0.51100000000E-03 0. -1.
        -11    1    3    3    0    0  0.16651328739E+02 -0.13666587098E+02  0.12943886837E+02  0.25131385922E+02  0.51100000000E-03 0.  1.
        -12    1    3    3    0    0  0.14238923300E+02  0.56388433469E+01  0.15314282125E+02  0.21658040725E+02  0.00000000000E+00 0.  1.
</event>
<event>
 7    1  0.2991278E-011  0.5052896E+02  0.7816164E-02  0.1300438E+00
        -11   -1    0    0    0    0  0.00000000000E+00  0.00000000000E+00  0.45593999997E+02  0.45594000000E+02  0.51100000000E-03 0.  1.
         11   -1    0    0    0    0 -0.00000000000E+00 -0.00000000000E+00 -0.45593999997E+02  0.45594000000E+02  0.51100000000E-03 0. -1.
    9900012    2    1    2    0    0  0.42316797116E+01 -0.10708990351E+02  0.38994461630E+02  0.50528958873E+02  0.30000300989E+02 0.  0.
         12    1    1    2    0    0 -0.42316797116E+01  0.10708990351E+02 -0.38994461630E+02  0.40659041127E+02  0.00000000000E+00 0. -1.
         11    1    3    3    0    0  0.39850998000E+01  0.35171709843E+01  0.14989882553E+02  0.15904341903E+02  0.51100000000E-03 0. -1.
        -11    1    3    3    0    0  0.15062042208E+01 -0.16603327469E+02  0.81748544493E+01  0.18567912638E+02  0.51100000000E-03 0.  1.
        -12    1    3    3    0    0 -0.12596243092E+01  0.23771661335E+01  0.15829724628E+02  0.16056704333E+02  0.00000000000E+00 0.  1.
</event>
<event>
 7    1  0.2991278E-011  0.5052886E+02  0.7816164E-02  0.1300439E+00
        -11   -1    0    0    0    0  0.00000000000E+00  0.00000000000E+00  0.45593999997E+02  0.45594000000E+02  0.51100000000E-03 0. -1.
         11   -1    0    0    0    0 -0.00000000000E+00 -0.00000000000E+00 -0.45593999997E+02  0.45594000000E+02  0.51100000000E-03 0.  1.
    9900012    2    1    2    0    0  0.23090140146E+02  0.32413839383E+02 -0.83279041466E+01  0.50528861507E+02  0.30000005037E+02 0.  0.
         12    1    1    2    0    0 -0.23090140146E+02 -0.32413839383E+02  0.83279041466E+01  0.40659138493E+02  0.00000000000E+00 0. -1.
         11    1    3    3    0    0 -0.17030229398E+01  0.13351580491E+01  0.16009633694E+01  0.26918428856E+01  0.51100000000E-03 0. -1.
        -11    1    3    3    0    0  0.20585537614E+02  0.35162259873E+02 -0.72264512214E+01  0.41380798394E+02  0.51100000000E-03 0.  1.
        -12    1    3    3    0    0  0.42076254716E+01 -0.40835785388E+01 -0.27024162946E+01  0.64562202271E+01  0.00000000000E+00 0.  1.
</event>
<event>
 7    1  0.2991278E-011  0.5052883E+02  0.7816164E-02  0.1300439E+00
        -11   -1    0    0    0    0  0.00000000000E+00  0.00000000000E+00  0.45593999997E+02  0.45594000000E+02  0.51100000000E-03 0.  1.
         11   -1    0    0    0    0 -0.00000000000E+00 -0.00000000000E+00 -0.45593999997E+02  0.45594000000E+02  0.51100000000E-03 0. -1.
    9900012    2    1    2    0    0  0.23481592639E+02  0.57741503628E+01  0.32687035354E+02  0.50528827781E+02  0.29999902524E+02 0.  0.
         12    1    1    2    0    0 -0.23481592639E+02 -0.57741503628E+01 -0.32687035354E+02  0.40659172219E+02  0.00000000000E+00 0. -1.
         11    1    3    3    0    0  0.44265180856E+01  0.89331785006E+01  0.24394627122E+01  0.10263854981E+02  0.51100000000E-03 0. -1.
        -11    1    3    3    0    0  0.17548161120E+02 -0.66030815240E+01  0.13508183488E+02  0.23108649153E+02  0.51100000000E-03 0.  1.
         12    1    3    3    0    0  0.15069134333E+01  0.34440533862E+01  0.16739389154E+02  0.17156323647E+02  0.00000000000E+00 0. -1.
</event>
<event>
 7    1  0.2991278E-011  0.5052886E+02  0.7816164E-02  0.1300439E+00
        -11   -1    0    0    0    0  0.00000000000E+00  0.00000000000E+00  0.45593999997E+02  0.45594000000E+02  0.51100000000E-03 0.  1.
         11   -1    0    0    0    0 -0.00000000000E+00 -0.00000000000E+00 -0.45593999997E+02  0.45594000000E+02  0.51100000000E-03 0. -1.
    9900012    2    1    2    0    0  0.61269218260E+01  0.19384070113E+02  0.35211989321E+02  0.50528861579E+02  0.30000005254E+02 0.  0.
         12    1    1    2    0    0 -0.61269218260E+01 -0.19384070113E+02 -0.35211989321E+02  0.40659138421E+02  0.00000000000E+00 0. -1.
         11    1    3    3    0    0  0.17621640418E+02  0.93333329263E+01  0.20804856933E+02  0.28817969859E+02  0.51100000000E-03 0. -1.
        -11    1    3    3    0    0 -0.94862504828E+01  0.86602616169E+01  0.14361515257E+02  0.19267646463E+02  0.51100000000E-03 0.  1.
         12    1    3    3    0    0 -0.20084681092E+01  0.13904755703E+01  0.45617130470E-01  0.24432452558E+01  0.00000000000E+00 0. -1.
</event>
<event>
 7    1  0.2991278E-011  0.5052885E+02  0.7816164E-02  0.1300439E+00
        -11   -1    0    0    0    0  0.00000000000E+00  0.00000000000E+00  0.45593999997E+02  0.45594000000E+02  0.51100000000E-03 0.  1.
         11   -1    0    0    0    0 -0.00000000000E+00 -0.00000000000E+00 -0.45593999997E+02  0.45594000000E+02  0.51100000000E-03 0. -1.
    9900012    2    1    2    0    0  0.28709660575E+01  0.36331389361E+02 -0.18026485847E+02  0.50528849849E+02  0.29999969601E+02 0.  0.
         12    1    1    2    0    0 -0.28709660575E+01 -0.36331389361E+02  0.18026485847E+02  0.40659150151E+02  0.00000000000E+00 0. -1.
         11    1    3    3    0    0  0.13537768244E+02  0.97498157351E+01 -0.40019487756E+01  0.17156505185E+02  0.51100000000E-03 0. -1.
        -11    1    3    3    0    0 -0.44042504659E+01  0.13941602670E+02 -0.18471098708E+01  0.14736944131E+02  0.51100000000E-03 0.  1.
         12    1    3    3    0    0 -0.62625517203E+01  0.12639970955E+02 -0.12177427201E+02  0.18635400533E+02  0.00000000000E+00 0. -1.
</event>
<event>
 7    1  0.2991278E-011  0.5052887E+02  0.7816164E-02  0.1300439E+00
        -11   -1    0    0    0    0  0.00000000000E+00  0.00000000000E+00  0.45593999997E+02  0.45594000000E+02  0.51100000000E-03 0.  1.
         11   -1    0    0    0    0 -0.00000000000E+00 -0.00000000000E+00 -0.45593999997E+02  0.45594000000E+02  0.51100000000E-03 0. -1.
    9900012    2    1    2    0    0  0.95685668405E+01  0.32354740627E+02  0.22688728058E+02  0.50528867037E+02  0.30000021846E+02 0.  0.
         12    1    1    2    0    0 -0.95685668405E+01 -0.32354740627E+02 -0.22688728058E+02  0.40659132963E+02  0.00000000000E+00 0. -1.
         11    1    3    3    0    0  0.26168809541E+01  0.16176646523E+01 -0.36837947225E+01  0.47995050447E+01  0.51100000000E-03 0. -1.
        -11    1    3    3    0    0  0.17981898158E+01  0.30220289597E+02  0.26932470230E+02  0.40519838880E+02  0.51100000000E-03 0.  1.
         12    1    3    3    0    0  0.51534960707E+01  0.51678637782E+00 -0.55994744986E+00  0.52095231123E+01  0.00000000000E+00 0. -1.
</event>
<event>
 7    1  0.2991278E-011  0.5052882E+02  0.7816164E-02  0.1300439E+00
        -11   -1    0    0    0    0  0.00000000000E+00  0.00000000000E+00  0.45593999997E+02  0.45594000000E+02  0.51100000000E-03 0. -1.
         11   -1    0    0    0    0 -0.00000000000E+00 -0.00000000000E+00 -0.45593999997E+02  0.45594000000E+02  0.51100000000E-03 0.  1.
    9900012    2    1    2    0    0  0.51886183985E+01 -0.39829202891E+02  0.63152043354E+01  0.50528819369E+02  0.29999876954E+02 0.  0.
         12    1    1    2    0    0 -0.51886183985E+01  0.39829202891E+02 -0.63152043354E+01  0.40659180631E+02  0.00000000000E+00 0. -1.
         11    1    3    3    0    0  0.73269130073E+01  0.74780102806E-01  0.56700798640E+01  0.92649367081E+01  0.51100000000E-03 0. -1.
        -11    1    3    3    0    0 -0.98569070178E-01 -0.14376569002E+02  0.51312044297E+01  0.15265146946E+02  0.51100000000E-03 0.  1.
         12    1    3    3    0    0 -0.20397255386E+01 -0.25527413992E+02 -0.44860799583E+01  0.25998735715E+02  0.00000000000E+00 0. -1.
</event>
<event>
 7    1  0.2991278E-011  0.5052886E+02  0.7816164E-02  0.1300439E+00
        -11   -1    0    0    0    0  0.00000000000E+00  0.00000000000E+00  0.45593999997E+02  0.45594000000E+02  0.51100000000E-03 0.  1.
         11   -1    0    0    0    0 -0.00000000000E+00 -0.00000000000E+00 -0.45593999997E+02  0.45594000000E+02  0.51100000000E-03 0. -1.
    9900012    2    1    2    0    0  0.54555736651E+01  0.21656056586E+02  0.33976718216E+02  0.50528862631E+02  0.30000008454E+02 0.  0.
         12    1    1    2    0    0 -0.54555736651E+01 -0.21656056586E+02 -0.33976718216E+02  0.40659137369E+02  0.00000000000E+00 0. -1.
         11    1    3    3    0    0 -0.69978759505E+00 -0.11192569081E+01 -0.98258279494E+00  0.16455722149E+01  0.51100000000E-03 0. -1.
        -11    1    3    3    0    0  0.48990173437E+01  0.26568768839E+02  0.35749430760E+02  0.44809838746E+02  0.51100000000E-03 0.  1.
        -12    1    3    3    0    0  0.12563439164E+01 -0.37934553449E+01 -0.79012974902E+00  0.40734516703E+01  0.00000000000E+00 0.  1.
</event>
<event>
 7    1  0.2991278E-011  0.5052885E+02  0.7816164E-02  0.1300439E+00
        -11   -1    0    0    0    0  0.00000000000E+00  0.00000000000E+00  0.45593999997E+02  0.45594000000E+02  0.51100000000E-03 0.  1.
         11   -1    0    0    0    0 -0.00000000000E+00 -0.00000000000E+00 -0.45593999997E+02  0.45594000000E+02  0.51100000000E-03 0. -1.
    9900012    2    1    2    0    0  0.27093736637E+02 -0.10075633466E+02  0.28593310377E+02  0.50528851546E+02  0.29999974759E+02 0.  0.
         12    1    1    2    0    0 -0.27093736637E+02  0.10075633466E+02 -0.28593310377E+02  0.40659148454E+02  0.00000000000E+00 0. -1.
         11    1    3    3    0    0  0.96266107580E+00 -0.34618990629E+01 -0.14028267179E+01  0.38573805270E+01  0.51100000000E-03 0. -1.
        -11    1    3    3    0    0  0.27842770263E+02 -0.27621947962E+01  0.16387946147E+02  0.32425520122E+02  0.51100000000E-03 0.  1.
        -12    1    3    3    0    0 -0.17116947011E+01 -0.38515396068E+01  0.13608190948E+02  0.14245950897E+02  0.00000000000E+00 0.  1.
</event>
<event>
 7    1  0.2991278E-011  0.5052886E+02  0.7816164E-02  0.1300439E+00
        -11   -1    0    0    0    0  0.00000000000E+00  0.00000000000E+00  0.45593999997E+02  0.45594000000E+02  0.51100000000E-03 0.  1.
         11   -1    0    0    0    0 -0.00000000000E+00 -0.00000000000E+00 -0.45593999997E+02  0.45594000000E+02  0.51100000000E-03 0. -1.
    9900012    2    1    2    0    0  0.20220093103E+02  0.34896351228E+00  0.35273105903E+02  0.50528856617E+02  0.29999990172E+02 0.  0.
         12    1    1    2    0    0 -0.20220093103E+02 -0.34896351228E+00 -0.35273105903E+02  0.40659143383E+02  0.00000000000E+00 0. -1.
         11    1    3    3    0    0 -0.49525262468E+01  0.30159186560E+01  0.94043903412E+00  0.58743261233E+01  0.51100000000E-03 0. -1.
        -11    1    3    3    0    0  0.92887580724E+01  0.17362085573E+01  0.22382380395E+02  0.24295398722E+02  0.51100000000E-03 0.  1.
         12    1    3    3    0    0  0.15883861277E+02 -0.44031637011E+01  0.11950286474E+02  0.20359131771E+02  0.00000000000E+00 0. -1.
</event>
<event>
 7    1  0.2991278E-011  0.5052888E+02  0.7816164E-02  0.1300439E+00
        -11   -1    0    0    0    0  0.00000000000E+00  0.00000000000E+00  0.45593999997E+02  0.45594000000E+02  0.51100000000E-03 0. -1.
         11   -1    0    0    0    0 -0.00000000000E+00 -0.00000000000E+00 -0.45593999997E+02  0.45594000000E+02  0.51100000000E-03 0.  1.
    9900012    2    1    2    0    0 -0.10204622503E+02  0.32591075143E+02 -0.22064713887E+02  0.50528879272E+02  0.30000059036E+02 0.  0.
         12    1    1    2    0    0  0.10204622503E+02 -0.32591075143E+02  0.22064713887E+02  0.40659120728E+02  0.00000000000E+00 0. -1.
         11    1    3    3    0    0  0.60568333559E+01 -0.16550454162E+01 -0.63799645413E+01  0.89514442097E+01  0.51100000000E-03 0. -1.
        -11    1    3    3    0    0 -0.96983000848E+01  0.15988448570E+02 -0.10704224907E+02  0.21546877809E+02  0.51100000000E-03 0.  1.
         12    1    3    3    0    0 -0.65631557742E+01  0.18257671989E+02 -0.49805244396E+01  0.20030557253E+02  0.00000000000E+00 0. -1.
</event>
<event>
 7    1  0.2991278E-011  0.5052888E+02  0.7816164E-02  0.1300439E+00
        -11   -1    0    0    0    0  0.00000000000E+00  0.00000000000E+00  0.45593999997E+02  0.45594000000E+02  0.51100000000E-03 0.  1.
         11   -1    0    0    0    0 -0.00000000000E+00 -0.00000000000E+00 -0.45593999997E+02  0.45594000000E+02  0.51100000000E-03 0. -1.
    9900012    2    1    2    0    0  0.38249375524E+02  0.85481699019E+01  0.10820264338E+02  0.50528879781E+02  0.30000060582E+02 0.  0.
         12    1    1    2    0    0 -0.38249375524E+02 -0.85481699019E+01 -0.10820264338E+02  0.40659120219E+02  0.00000000000E+00 0. -1.
         11    1    3    3    0    0  0.23216966596E+02  0.45919222647E+01 -0.65085266464E+01  0.24545350015E+02  0.51100000000E-03 0. -1.
        -11    1    3    3    0    0  0.10328920635E+02  0.72794703516E+01  0.78006898941E+01  0.14850186974E+02  0.51100000000E-03 0.  1.
         12    1    3    3    0    0  0.47034882929E+01 -0.33232227143E+01  0.95281010903E+01  0.11133342792E+02  0.00000000000E+00 0. -1.
</event>
<event>
 7    1  0.2991278E-011  0.5052886E+02  0.7816164E-02  0.1300439E+00
        -11   -1    0    0    0    0  0.00000000000E+00  0.00000000000E+00  0.45593999997E+02  0.45594000000E+02  0.51100000000E-03 0.  1.
         11   -1    0    0    0    0 -0.00000000000E+00 -0.00000000000E+00 -0.45593999997E+02  0.45594000000E+02  0.51100000000E-03 0. -1.
    9900012    2    1    2    0    0 -0.26028825981E+00  0.40228538978E+02  0.58959863953E+01  0.50528858914E+02  0.29999997154E+02 0.  0.
         12    1    1    2    0    0  0.26028825981E+00 -0.40228538978E+02 -0.58959863953E+01  0.40659141086E+02  0.00000000000E+00 0. -1.
         11    1    3    3    0    0  0.12499693922E+02  0.16483510426E+02  0.31540204687E+01  0.20925972128E+02  0.51100000000E-03 0. -1.
        -11    1    3    3    0    0 -0.88141827554E+01  0.17836996009E+02  0.72649095869E+01  0.21180820471E+02  0.51100000000E-03 0.  1.
         12    1    3    3    0    0 -0.39457994267E+01  0.59080325437E+01 -0.45229436603E+01  0.84220663146E+01  0.00000000000E+00 0. -1.
</event>
<event>
 7    1  0.2991278E-011  0.5052886E+02  0.7816164E-02  0.1300439E+00
        -11   -1    0    0    0    0  0.00000000000E+00  0.00000000000E+00  0.45593999997E+02  0.45594000000E+02  0.51100000000E-03 0.  1.
         11   -1    0    0    0    0 -0.00000000000E+00 -0.00000000000E+00 -0.45593999997E+02  0.45594000000E+02  0.51100000000E-03 0. -1.
    9900012    2    1    2    0    0  0.34772972324E+02 -0.12119790096E+01  0.21036573033E+02  0.50528857088E+02  0.29999991605E+02 0.  0.
         12    1    1    2    0    0 -0.34772972324E+02  0.12119790096E+01 -0.21036573033E+02  0.40659142912E+02  0.00000000000E+00 0. -1.
         11    1    3    3    0    0  0.32694647346E+01  0.39636731448E+01 -0.36948615955E+01  0.63286733934E+01  0.51100000000E-03 0. -1.
        -11    1    3    3    0    0  0.29973904784E+02 -0.31432779146E+01  0.14108755810E+02  0.33277201727E+02  0.51100000000E-03 0.  1.
         12    1    3    3    0    0  0.15296028059E+01 -0.20323742397E+01  0.10622678818E+02  0.10922981968E+02  0.00000000000E+00 0. -1.
</event>
<event>
 7    1  0.2991278E-011  0.5052887E+02  0.7816164E-02  0.1300439E+00
        -11   -1    0    0    0    0  0.00000000000E+00  0.00000000000E+00  0.45593999997E+02  0.45594000000E+02  0.51100000000E-03 0. -1.
         11   -1    0    0    0    0 -0.00000000000E+00 -0.00000000000E+00 -0.45593999997E+02  0.45594000000E+02  0.51100000000E-03 0.  1.
    9900012    2    1    2    0    0 -0.66760228833E+01  0.24071610833E+02 -0.32080412711E+02  0.50528872988E+02  0.30000039936E+02 0.  0.
         12    1    1    2    0    0  0.66760228833E+01 -0.24071610833E+02  0.32080412711E+02  0.40659127012E+02  0.00000000000E+00 0. -1.
         11    1    3    3    0    0 -0.39210828477E+01  0.18100656043E+02 -0.40945419034E+01  0.18967707124E+02  0.51100000000E-03 0. -1.
        -11    1    3    3    0    0 -0.78985721384E+01  0.33638436259E+01 -0.13858405768E+02  0.16302094849E+02  0.51100000000E-03 0.  1.
         12    1    3    3    0    0  0.51436321028E+01  0.26071111649E+01 -0.14127465040E+02  0.15259071016E+02  0.00000000000E+00 0. -1.
</event>
<event>
 7    1  0.2991278E-011  0.5052885E+02  0.7816164E-02  0.1300439E+00
        -11   -1    0    0    0    0  0.00000000000E+00  0.00000000000E+00  0.45593999997E+02  0.45594000000E+02  0.51100000000E-03 0.  1.
         11   -1    0    0    0    0 -0.00000000000E+00 -0.00000000000E+00 -0.45593999997E+02  0.45594000000E+02  0.51100000000E-03 0. -1.
    9900012    2    1    2    0    0  0.18321450189E+02 -0.32310699531E+02  0.16538125031E+02  0.50528850713E+02  0.29999972226E+02 0.  0.
         12    1    1    2    0    0 -0.18321450189E+02  0.32310699531E+02 -0.16538125031E+02  0.40659149287E+02  0.00000000000E+00 0. -1.
         11    1    3    3    0    0  0.59512625040E+01  0.34168392484E+01 -0.29861392075E+01  0.74839390343E+01  0.51100000000E-03 0. -1.
        -11    1    3    3    0    0  0.68278355859E+01 -0.21680917223E+02  0.81790275426E+01  0.24157359173E+02  0.51100000000E-03 0.  1.
         12    1    3    3    0    0  0.55423520993E+01 -0.14046621556E+02  0.11345236696E+02  0.18887552505E+02  0.00000000000E+00 0. -1.
</event>
<event>
 7    1  0.2991278E-011  0.5052886E+02  0.7816164E-02  0.1300439E+00
        -11   -1    0    0    0    0  0.00000000000E+00  0.00000000000E+00  0.45593999997E+02  0.45594000000E+02  0.51100000000E-03 0.  1.
         11   -1    0    0    0    0 -0.00000000000E+00 -0.00000000000E+00 -0.45593999997E+02  0.45594000000E+02  0.51100000000E-03 0. -1.
    9900012    2    1    2    0    0 -0.32262502323E+02  0.22395719836E+02  0.10522752414E+02  0.50528860296E+02  0.30000001356E+02 0.  0.
         12    1    1    2    0    0  0.32262502323E+02 -0.22395719836E+02 -0.10522752414E+02  0.40659139704E+02  0.00000000000E+00 0. -1.
         11    1    3    3    0    0 -0.31291338675E+01  0.93706651546E+01  0.73227797667E+01  0.12297314665E+02  0.51100000000E-03 0. -1.
        -11    1    3    3    0    0 -0.21497051723E+02 -0.12786888692E+01 -0.73056178206E+00  0.21547436015E+02  0.51100000000E-03 0.  1.
         12    1    3    3    0    0 -0.76363167321E+01  0.14303743550E+02  0.39305344293E+01  0.16684109616E+02  0.00000000000E+00 0. -1.
</event>
<event>
 7    1  0.2991278E-011  0.5052886E+02  0.7816164E-02  0.1300439E+00
        -11   -1    0    0    0    0  0.00000000000E+00  0.00000000000E+00  0.45593999997E+02  0.45594000000E+02  0.51100000000E-03 0. -1.
         11   -1    0    0    0    0 -0.00000000000E+00 -0.00000000000E+00 -0.45593999997E+02  0.45594000000E+02  0.51100000000E-03 0.  1.
    9900012    2    1    2    0    0  0.31052693862E+02  0.24070450742E+02  0.10464656504E+02  0.50528862887E+02  0.30000009233E+02 0.  0.
         12    1    1    2    0    0 -0.31052693862E+02 -0.24070450742E+02 -0.10464656504E+02  0.40659137113E+02  0.00000000000E+00 0. -1.
         11    1    3    3    0    0  0.39158161936E+01  0.15281872573E+02  0.89278697256E+01  0.18126668306E+02  0.51100000000E-03 0. -1.
        -11    1    3    3    0    0  0.21809909461E+02  0.77141326099E+01  0.75142774433E+01  0.24323740633E+02  0.51100000000E-03 0.  1.
         12    1    3    3    0    0  0.53269682072E+01  0.10744455597E+01 -0.59774906653E+01  0.80784539483E+01  0.00000000000E+00 0. -1.
</event>
<event>
 7    1  0.2991278E-011  0.5052886E+02  0.7816164E-02  0.1300439E+00
        -11   -1    0    0    0    0  0.00000000000E+00  0.00000000000E+00  0.45593999997E+02  0.45594000000E+02  0.51100000000E-03 0. -1.
         11   -1    0    0    0    0 -0.00000000000E+00 -0.00000000000E+00 -0.45593999997E+02  0.45594000000E+02  0.51100000000E-03 0.  1.
    9900012    2    1    2    0    0 -0.34235537989E+02  0.18269345076E+02 -0.12137721993E+02  0.50528864174E+02  0.30000013145E+02 0.  0.
         12    1    1    2    0    0  0.34235537989E+02 -0.18269345076E+02  0.12137721993E+02  0.40659135826E+02  0.00000000000E+00 0. -1.
         11    1    3    3    0    0 -0.17245377821E+01 -0.51997694026E+01  0.23119614280E+01  0.59461582814E+01  0.51100000000E-03 0. -1.
        -11    1    3    3    0    0 -0.33356087131E+02  0.20658867218E+02 -0.13248720549E+02  0.41411905774E+02  0.51100000000E-03 0.  1.
         12    1    3    3    0    0  0.84508692397E+00  0.28102472601E+01 -0.12009628722E+01  0.31708001186E+01  0.00000000000E+00 0. -1.
</event>
<event>
 7    1  0.2991278E-011  0.5052886E+02  0.7816164E-02  0.1300439E+00
        -11   -1    0    0    0    0  0.00000000000E+00  0.00000000000E+00  0.45593999997E+02  0.45594000000E+02  0.51100000000E-03 0.  1.
         11   -1    0    0    0    0 -0.00000000000E+00 -0.00000000000E+00 -0.45593999997E+02  0.45594000000E+02  0.51100000000E-03 0. -1.
    9900012    2    1    2    0    0  0.15669773692E+02  0.26478885307E+02  0.26579920639E+02  0.50528863809E+02  0.30000012033E+02 0.  0.
         12    1    1    2    0    0 -0.15669773692E+02 -0.26478885307E+02 -0.26579920639E+02  0.40659136191E+02  0.00000000000E+00 0. -1.
         11    1    3    3    0    0  0.92748684252E+01  0.34195353396E+01  0.58048890371E+01  0.11463557181E+02  0.51100000000E-03 0. -1.
        -11    1    3    3    0    0 -0.81501813052E+01  0.11611700669E+02  0.60927147645E+01  0.15439501974E+02  0.51100000000E-03 0.  1.
        -12    1    3    3    0    0  0.14545086572E+02  0.11447649298E+02  0.14682316837E+02  0.23625804654E+02  0.00000000000E+00 0.  1.
</event>
<event>
 7    1  0.2991278E-011  0.5052886E+02  0.7816164E-02  0.1300439E+00
        -11   -1    0    0    0    0  0.00000000000E+00  0.00000000000E+00  0.45593999997E+02  0.45594000000E+02  0.51100000000E-03 0. -1.
         11   -1    0    0    0    0 -0.00000000000E+00 -0.00000000000E+00 -0.45593999997E+02  0.45594000000E+02  0.51100000000E-03 0.  1.
    9900012    2    1    2    0    0 -0.30703371519E+02  0.24999442136E+02 -0.92464240591E+01  0.50528862188E+02  0.30000007107E+02 0.  0.
         12    1    1    2    0    0  0.30703371519E+02 -0.24999442136E+02  0.92464240591E+01  0.40659137812E+02  0.00000000000E+00 0. -1.
         11    1    3    3    0    0 -0.23018179468E+01 -0.21787170944E+01 -0.87787608550E+01  0.93333711192E+01  0.51100000000E-03 0. -1.
        -11    1    3    3    0    0 -0.23550049142E+02  0.24054730495E+02 -0.47676155408E+01  0.33999485761E+02  0.51100000000E-03 0.  1.
         12    1    3    3    0    0 -0.48515044299E+01  0.31234287353E+01  0.42999523367E+01  0.71960053083E+01  0.00000000000E+00 0. -1.
</event>
<event>
 7    1  0.2991278E-011  0.5052886E+02  0.7816164E-02  0.1300439E+00
        -11   -1    0    0    0    0  0.00000000000E+00  0.00000000000E+00  0.45593999997E+02  0.45594000000E+02  0.51100000000E-03 0.  1.
         11   -1    0    0    0    0 -0.00000000000E+00 -0.00000000000E+00 -0.45593999997E+02  0.45594000000E+02  0.51100000000E-03 0. -1.
    9900012    2    1    2    0    0  0.13974680992E+02 -0.21753938844E+02  0.31378977292E+02  0.50528858593E+02  0.29999996180E+02 0.  0.
         12    1    1    2    0    0 -0.13974680992E+02  0.21753938844E+02 -0.31378977292E+02  0.40659141407E+02  0.00000000000E+00 0. -1.
         11    1    3    3    0    0 -0.46417544296E+01 -0.47061665584E+01  0.11455978788E+02  0.13226236733E+02  0.51100000000E-03 0. -1.
        -11    1    3    3    0    0  0.21144292641E+02 -0.12766608029E+02  0.20754643150E+02  0.32261782412E+02  0.51100000000E-03 0.  1.
         12    1    3    3    0    0 -0.25278572200E+01 -0.42811642570E+01 -0.83164464709E+00  0.50408394478E+01  0.00000000000E+00 0. -1.
</event>
<event>
 7    1  0.2991278E-011  0.5052872E+02  0.7816164E-02  0.1300439E+00
        -11   -1    0    0    0    0  0.00000000000E+00  0.00000000000E+00  0.45593999997E+02  0.45594000000E+02  0.51100000000E-03 0. -1.
         11   -1    0    0    0    0 -0.00000000000E+00 -0.00000000000E+00 -0.45593999997E+02  0.45594000000E+02  0.51100000000E-03 0.  1.
    9900012    2    1    2    0    0 -0.23860097166E+02 -0.29455561708E+02 -0.14705194004E+02  0.50528719596E+02  0.29999573680E+02 0.  0.
         12    1    1    2    0    0  0.23860097166E+02  0.29455561708E+02  0.14705194004E+02  0.40659280404E+02  0.00000000000E+00 0. -1.
         11    1    3    3    0    0 -0.43277484456E+01  0.44155931821E+01  0.31402680042E+00  0.61907578576E+01  0.51100000000E-03 0. -1.
        -11    1    3    3    0    0 -0.18315771284E+02 -0.20642232315E+02 -0.14180682253E+02  0.31026778468E+02  0.51100000000E-03 0.  1.
        -12    1    3    3    0    0 -0.12165774364E+01 -0.13228922575E+02 -0.83853855134E+00  0.13311183270E+02  0.00000000000E+00 0.  1.
</event>
<event>
 7    1  0.2991278E-011  0.5052886E+02  0.7816164E-02  0.1300439E+00
        -11   -1    0    0    0    0  0.00000000000E+00  0.00000000000E+00  0.45593999997E+02  0.45594000000E+02  0.51100000000E-03 0.  1.
         11   -1    0    0    0    0 -0.00000000000E+00 -0.00000000000E+00 -0.45593999997E+02  0.45594000000E+02  0.51100000000E-03 0. -1.
    9900012    2    1    2    0    0  0.23967097032E+02 -0.13826997007E+02  0.29791913432E+02  0.50528859671E+02  0.29999999455E+02 0.  0.
         12    1    1    2    0    0 -0.23967097032E+02  0.13826997007E+02 -0.29791913432E+02  0.40659140329E+02  0.00000000000E+00 0. -1.
         11    1    3    3    0    0  0.15557434594E+02  0.20324099707E+01  0.17986832592E+02  0.23868192399E+02  0.51100000000E-03 0. -1.
        -11    1    3    3    0    0  0.44217762771E+01 -0.13162529420E+02 -0.28362114977E-01  0.13885427284E+02  0.51100000000E-03 0.  1.
         12    1    3    3    0    0  0.39878861614E+01 -0.26968775576E+01  0.11833442955E+02  0.12775239988E+02  0.00000000000E+00 0. -1.
</event>
<event>
 7    1  0.2991278E-011  0.5052885E+02  0.7816164E-02  0.1300439E+00
        -11   -1    0    0    0    0  0.00000000000E+00  0.00000000000E+00  0.45593999997E+02  0.45594000000E+02  0.51100000000E-03 0. -1.
         11   -1    0    0    0    0 -0.00000000000E+00 -0.00000000000E+00 -0.45593999997E+02  0.45594000000E+02  0.51100000000E-03 0.  1.
    9900012    2    1    2    0    0 -0.28787882053E+02  0.27142516129E+02  0.93652546346E+01  0.50528851837E+02  0.29999975645E+02 0.  0.
         12    1    1    2    0    0  0.28787882053E+02 -0.27142516129E+02 -0.93652546346E+01  0.40659148163E+02  0.00000000000E+00 0. -1.
         11    1    3    3    0    0 -0.50050635836E+01  0.10481368897E+02 -0.94321216695E+01  0.14962442143E+02  0.51100000000E-03 0. -1.
        -11    1    3    3    0    0 -0.33128178279E+01  0.27532170204E+01 -0.28356258849E+00  0.43168708488E+01  0.51100000000E-03 0.  1.
         12    1    3    3    0    0 -0.20470000642E+02  0.13907930212E+02  0.19080938893E+02  0.31249538846E+02  0.00000000000E+00 0. -1.
</event>
<event>
 7    1  0.2991278E-011  0.5052886E+02  0.7816164E-02  0.1300439E+00
        -11   -1    0    0    0    0  0.00000000000E+00  0.00000000000E+00  0.45593999997E+02  0.45594000000E+02  0.51100000000E-03 0.  1.
         11   -1    0    0    0    0 -0.00000000000E+00 -0.00000000000E+00 -0.45593999997E+02  0.45594000000E+02  0.51100000000E-03 0. -1.
    9900012    2    1    2    0    0  0.25991452408E+02  0.27023049359E+02  0.15727830516E+02  0.50528862679E+02  0.30000008600E+02 0.  0.
         12    1    1    2    0    0 -0.25991452408E+02 -0.27023049359E+02 -0.15727830516E+02  0.40659137321E+02  0.00000000000E+00 0. -1.
         11    1    3    3    0    0 -0.11277285816E+01 -0.98315222600E+00 -0.53105150022E+01  0.55172393371E+01  0.51100000000E-03 0. -1.
        -11    1    3    3    0    0  0.32168801925E+01  0.79044189660E+01  0.52043362941E+01  0.99956627537E+01  0.51100000000E-03 0.  1.
         12    1    3    3    0    0  0.23902300797E+02  0.20101782619E+02  0.15834009224E+02  0.35015960589E+02  0.00000000000E+00 0. -1.
</event>
<event>
 7    1  0.2991278E-011  0.5052884E+02  0.7816164E-02  0.1300439E+00
        -11   -1    0    0    0    0  0.00000000000E+00  0.00000000000E+00  0.45593999997E+02  0.45594000000E+02  0.51100000000E-03 0.  1.
         11   -1    0    0    0    0 -0.00000000000E+00 -0.00000000000E+00 -0.45593999997E+02  0.45594000000E+02  0.51100000000E-03 0. -1.
    9900012    2    1    2    0    0 -0.18333168110E+02  0.22672596942E+02  0.28337528036E+02  0.50528841127E+02  0.29999943089E+02 0.  0.
         12    1    1    2    0    0  0.18333168110E+02 -0.22672596942E+02 -0.28337528036E+02  0.40659158873E+02  0.00000000000E+00 0. -1.
         11    1    3    3    0    0  0.19741667611E+01  0.11286895331E+02  0.15038245991E+02  0.18906088526E+02  0.51100000000E-03 0. -1.
        -11    1    3    3    0    0 -0.88008005367E+01 -0.13903155513E+01  0.11184084190E+02  0.14299328895E+02  0.51100000000E-03 0.  1.
         12    1    3    3    0    0 -0.11506534334E+02  0.12776017163E+02  0.21151978558E+01  0.17323423706E+02  0.00000000000E+00 0. -1.
</event>
<event>
 7    1  0.2991278E-011  0.5052887E+02  0.7816164E-02  0.1300439E+00
        -11   -1    0    0    0    0  0.00000000000E+00  0.00000000000E+00  0.45593999997E+02  0.45594000000E+02  0.51100000000E-03 0. -1.
         11   -1    0    0    0    0 -0.00000000000E+00 -0.00000000000E+00 -0.45593999997E+02  0.45594000000E+02  0.51100000000E-03 0.  1.
    9900012    2    1    2    0    0 -0.31439442039E+02 -0.24200411355E+02 -0.88919520017E+01  0.50528865283E+02  0.30000016516E+02 0.  0.
         12    1    1    2    0    0  0.31439442039E+02  0.24200411355E+02  0.88919520017E+01  0.40659134717E+02  0.00000000000E+00 0. -1.
         11    1    3    3    0    0 -0.26506998926E+01  0.79594146882E+00  0.76883642768E+01  0.81713327099E+01  0.51100000000E-03 0. -1.
        -11    1    3    3    0    0 -0.19798869088E+02 -0.15463400338E+02 -0.14736537500E+02  0.29125203946E+02  0.51100000000E-03 0.  1.
         12    1    3    3    0    0 -0.89898730583E+01 -0.95329524865E+01 -0.18437787787E+01  0.13232328627E+02  0.00000000000E+00 0. -1.
</event>
<event>
 7    1  0.2991278E-011  0.5052885E+02  0.7816164E-02  0.1300439E+00
        -11   -1    0    0    0    0  0.00000000000E+00  0.00000000000E+00  0.45593999997E+02  0.45594000000E+02  0.51100000000E-03 0.  1.
         11   -1    0    0    0    0 -0.00000000000E+00 -0.00000000000E+00 -0.45593999997E+02  0.45594000000E+02  0.51100000000E-03 0. -1.
    9900012    2    1    2    0    0  0.14988699444E+02 -0.37479280229E+02  0.48794104183E+01  0.50528853384E+02  0.29999980346E+02 0.  0.
         12    1    1    2    0    0 -0.14988699444E+02  0.37479280229E+02 -0.48794104183E+01  0.40659146616E+02  0.00000000000E+00 0. -1.
         11    1    3    3    0    0  0.15349073507E+02 -0.36979630160E+01  0.64374415449E+00  0.15801373193E+02  0.51100000000E-03 0. -1.
        -11    1    3    3    0    0 -0.11638913876E+01 -0.23390571444E+02 -0.15134632065E+00  0.23419999608E+02  0.51100000000E-03 0.  1.
         12    1    3    3    0    0  0.80351732504E+00 -0.10390745769E+02  0.43870125845E+01  0.11307480583E+02  0.00000000000E+00 0. -1.
</event>
<event>
 7    1  0.2991278E-011  0.5052887E+02  0.7816164E-02  0.1300439E+00
        -11   -1    0    0    0    0  0.00000000000E+00  0.00000000000E+00  0.45593999997E+02  0.45594000000E+02  0.51100000000E-03 0. -1.
         11   -1    0    0    0    0 -0.00000000000E+00 -0.00000000000E+00 -0.45593999997E+02  0.45594000000E+02  0.51100000000E-03 0.  1.
    9900012    2    1    2    0    0 -0.87623418831E+01 -0.36410744474E+02 -0.15831739142E+02  0.50528869258E+02  0.30000028597E+02 0.  0.
         12    1    1    2    0    0  0.87623418831E+01  0.36410744474E+02  0.15831739142E+02  0.40659130742E+02  0.00000000000E+00 0. -1.
         11    1    3    3    0    0  0.36870334489E+01 -0.82534297596E+01 -0.81477315158E+01  0.12169586992E+02  0.51100000000E-03 0. -1.
        -11    1    3    3    0    0 -0.10530462971E+02 -0.13638898425E+01 -0.91677191371E+00  0.10657922729E+02  0.51100000000E-03 0.  1.
        -12    1    3    3    0    0 -0.19189123610E+01 -0.26793424872E+02 -0.67672357126E+01  0.27701359537E+02  0.00000000000E+00 0.  1.
</event>
<event>
 7    1  0.2991278E-011  0.5052886E+02  0.7816164E-02  0.1300439E+00
        -11   -1    0    0    0    0  0.00000000000E+00  0.00000000000E+00  0.45593999997E+02  0.45594000000E+02  0.51100000000E-03 0. -1.
         11   -1    0    0    0    0 -0.00000000000E+00 -0.00000000000E+00 -0.45593999997E+02  0.45594000000E+02  0.51100000000E-03 0.  1.
    9900012    2    1    2    0    0  0.38992602584E+02  0.59351504571E+01 -0.98750589144E+01  0.50528857661E+02  0.29999993346E+02 0.  0.
         12    1    1    2    0    0 -0.38992602584E+02 -0.59351504571E+01  0.98750589144E+01  0.40659142339E+02  0.00000000000E+00 0. -1.
         11    1    3    3    0    0  0.10726209487E+02 -0.32126304717E+01  0.33214326620E+01  0.11679232839E+02  0.51100000000E-03 0. -1.
        -11    1    3    3    0    0  0.14646748943E+02  0.13728695183E+02 -0.13973215881E+02  0.24459253634E+02  0.51100000000E-03 0.  1.
        -12    1    3    3    0    0  0.13619644154E+02 -0.45809142542E+01  0.77672430489E+00  0.14390371188E+02  0.00000000000E+00 0.  1.
</event>
<event>
 7    1  0.2991278E-011  0.5052887E+02  0.7816164E-02  0.1300439E+00
        -11   -1    0    0    0    0  0.00000000000E+00  0.00000000000E+00  0.45593999997E+02  0.45594000000E+02  0.51100000000E-03 0. -1.
         11   -1    0    0    0    0 -0.00000000000E+00 -0.00000000000E+00 -0.45593999997E+02  0.45594000000E+02  0.51100000000E-03 0.  1.
    9900012    2    1    2    0    0  0.26212657259E+02 -0.25613809789E+02 -0.17606643908E+02  0.50528873568E+02  0.30000041698E+02 0.  0.
         12    1    1    2    0    0 -0.26212657259E+02  0.25613809789E+02  0.17606643908E+02  0.40659126432E+02  0.00000000000E+00 0. -1.
         11    1    3    3    0    0  0.31169371160E+01 -0.53373582377E+01  0.81891718473E+01  0.10259884295E+02  0.51100000000E-03 0. -1.
        -11    1    3    3    0    0  0.18313113013E+02 -0.16432980818E+02 -0.22302311443E+02  0.33208523948E+02  0.51100000000E-03 0.  1.
         12    1    3    3    0    0  0.47826071300E+01 -0.38434707333E+01 -0.34935043118E+01  0.70604653256E+01  0.00000000000E+00 0. -1.
</event>
<event>
 7    1  0.2991278E-011  0.5052886E+02  0.7816164E-02  0.1300439E+00
        -11   -1    0    0    0    0  0.00000000000E+00  0.00000000000E+00  0.45593999997E+02  0.45594000000E+02  0.51100000000E-03 0.  1.
         11   -1    0    0    0    0 -0.00000000000E+00 -0.00000000000E+00 -0.45593999997E+02  0.45594000000E+02  0.51100000000E-03 0. -1.
    9900012    2    1    2    0    0 -0.34555262777E+02  0.49805666810E+01  0.20839706367E+02  0.50528860910E+02  0.30000003222E+02 0.  0.
         12    1    1    2    0    0  0.34555262777E+02 -0.49805666810E+01 -0.20839706367E+02  0.40659139090E+02  0.00000000000E+00 0. -1.
         11    1    3    3    0    0 -0.68357381300E+01 -0.11363775734E+02  0.46709230216E+01  0.14059880399E+02  0.51100000000E-03 0. -1.
        -11    1    3    3    0    0 -0.11991708369E+02  0.94466833629E+01  0.53724559112E+01  0.16183453863E+02  0.51100000000E-03 0.  1.
         12    1    3    3    0    0 -0.15727816278E+02  0.68976590518E+01  0.10796327435E+02  0.20285526647E+02  0.00000000000E+00 0. -1.
</event>
<event>
 7    1  0.2991278E-011  0.5052886E+02  0.7816164E-02  0.1300439E+00
        -11   -1    0    0    0    0  0.00000000000E+00  0.00000000000E+00  0.45593999997E+02  0.45594000000E+02  0.51100000000E-03 0.  1.
         11   -1    0    0    0    0 -0.00000000000E+00 -0.00000000000E+00 -0.45593999997E+02  0.45594000000E+02  0.51100000000E-03 0. -1.
    9900012    2    1    2    0    0 -0.29338785181E+01 -0.25968224476E+02  0.31148185385E+02  0.50528858613E+02  0.29999996239E+02 0.  0.
         12    1    1    2    0    0  0.29338785181E+01  0.25968224476E+02 -0.31148185385E+02  0.40659141387E+02  0.00000000000E+00 0. -1.
         11    1    3    3    0    0 -0.10580923568E+02  0.71489664090E+00  0.10878045670E+02  0.15192066963E+02  0.51100000000E-03 0. -1.
        -11    1    3    3    0    0  0.66340028785E+00 -0.16842398602E+02  0.12498156629E+02  0.20983574767E+02  0.51100000000E-03 0.  1.
         12    1    3    3    0    0  0.69836447621E+01 -0.98407225147E+01  0.77719830859E+01  0.14353216882E+02  0.00000000000E+00 0. -1.
</event>
<event>
 7    1  0.2991278E-011  0.5052885E+02  0.7816164E-02  0.1300439E+00
        -11   -1    0    0    0    0  0.00000000000E+00  0.00000000000E+00  0.45593999997E+02  0.45594000000E+02  0.51100000000E-03 0.  1.
         11   -1    0    0    0    0 -0.00000000000E+00 -0.00000000000E+00 -0.45593999997E+02  0.45594000000E+02  0.51100000000E-03 0. -1.
    9900012    2    1    2    0    0  0.88976122801E+01  0.20093030921E+02  0.34209190861E+02  0.50528854224E+02  0.29999982899E+02 0.  0.
         12    1    1    2    0    0 -0.88976122801E+01 -0.20093030921E+02 -0.34209190861E+02  0.40659145776E+02  0.00000000000E+00 0. -1.
         11    1    3    3    0    0  0.12365215753E+02  0.20087230110E+02  0.31342089046E+02  0.39226546115E+02  0.51100000000E-03 0. -1.
        -11    1    3    3    0    0 -0.25203479475E+01  0.49300518031E+00  0.67783867213E+01  0.72485677681E+01  0.51100000000E-03 0.  1.
         12    1    3    3    0    0 -0.94725552571E+00 -0.48720436878E+00 -0.39112849065E+01  0.40537403404E+01  0.00000000000E+00 0. -1.
</event>
<event>
 7    1  0.2991278E-011  0.5052886E+02  0.7816164E-02  0.1300439E+00
        -11   -1    0    0    0    0  0.00000000000E+00  0.00000000000E+00  0.45593999997E+02  0.45594000000E+02  0.51100000000E-03 0.  1.
         11   -1    0    0    0    0 -0.00000000000E+00 -0.00000000000E+00 -0.45593999997E+02  0.45594000000E+02  0.51100000000E-03 0. -1.
    9900012    2    1    2    0    0  0.19606717335E+02 -0.31961640432E+02  0.15722463657E+02  0.50528859734E+02  0.29999999646E+02 0.  0.
         12    1    1    2    0    0 -0.19606717335E+02  0.31961640432E+02 -0.15722463657E+02  0.40659140266E+02  0.00000000000E+00 0. -1.
         11    1    3    3    0    0  0.20595525502E+02 -0.62368541116E+01  0.30877421488E+01  0.21739553164E+02  0.51100000000E-03 0. -1.
        -11    1    3    3    0    0  0.77925171618E+00 -0.12767775598E+02  0.62195539100E+01  0.14223437632E+02  0.51100000000E-03 0.  1.
         12    1    3    3    0    0 -0.17680598835E+01 -0.12957010722E+02  0.64151675978E+01  0.14565868938E+02  0.00000000000E+00 0. -1.
</event>
<event>
 7    1  0.2991278E-011  0.5052888E+02  0.7816164E-02  0.1300439E+00
        -11   -1    0    0    0    0  0.00000000000E+00  0.00000000000E+00  0.45593999997E+02  0.45594000000E+02  0.51100000000E-03 0.  1.
         11   -1    0    0    0    0 -0.00000000000E+00 -0.00000000000E+00 -0.45593999997E+02  0.45594000000E+02  0.51100000000E-03 0. -1.
    9900012    2    1    2    0    0  0.45590754006E+01  0.28945291706E+02  0.28187746686E+02  0.50528878715E+02  0.30000057341E+02 0.  0.
         12    1    1    2    0    0 -0.45590754006E+01 -0.28945291706E+02 -0.28187746686E+02  0.40659121285E+02  0.00000000000E+00 0. -1.
         11    1    3    3    0    0 -0.65235621417E+00 -0.34371970274E+01 -0.77666199169E+00  0.35837265724E+01  0.51100000000E-03 0. -1.
        -11    1    3    3    0    0  0.60471698629E+01  0.29752727686E+02  0.31094907154E+02  0.43459018848E+02  0.51100000000E-03 0.  1.
        -12    1    3    3    0    0 -0.83573824813E+00  0.26297610480E+01 -0.21304984759E+01  0.34861332942E+01  0.00000000000E+00 0.  1.
</event>
<event>
 7    1  0.2991278E-011  0.5052889E+02  0.7816164E-02  0.1300439E+00
        -11   -1    0    0    0    0  0.00000000000E+00  0.00000000000E+00  0.45593999997E+02  0.45594000000E+02  0.51100000000E-03 0. -1.
         11   -1    0    0    0    0 -0.00000000000E+00 -0.00000000000E+00 -0.45593999997E+02  0.45594000000E+02  0.51100000000E-03 0.  1.
    9900012    2    1    2    0    0 -0.32294217913E+02 -0.24116308501E+02 -0.53526208889E+01  0.50528887900E+02  0.30000085262E+02 0.  0.
         12    1    1    2    0    0  0.32294217913E+02  0.24116308501E+02  0.53526208889E+01  0.40659112100E+02  0.00000000000E+00 0. -1.
         11    1    3    3    0    0 -0.16719740706E+02 -0.70662752932E+01 -0.15302936962E+02  0.23741563886E+02  0.51100000000E-03 0. -1.
        -11    1    3    3    0    0 -0.38354333641E+01 -0.28517570088E+01 -0.16036227614E+01  0.50412967925E+01  0.51100000000E-03 0.  1.
         12    1    3    3    0    0 -0.11739043842E+02 -0.14198276199E+02  0.11553938834E+02  0.21746027222E+02  0.00000000000E+00 0. -1.
</event>
<event>
 7    1  0.2991278E-011  0.5052885E+02  0.7816164E-02  0.1300439E+00
        -11   -1    0    0    0    0  0.00000000000E+00  0.00000000000E+00  0.45593999997E+02  0.45594000000E+02  0.51100000000E-03 0. -1.
         11   -1    0    0    0    0 -0.00000000000E+00 -0.00000000000E+00 -0.45593999997E+02  0.45594000000E+02  0.51100000000E-03 0.  1.
    9900012    2    1    2    0    0 -0.36019067638E+02 -0.18803125027E+02 -0.14953376259E+01  0.50528846309E+02  0.29999958841E+02 0.  0.
         12    1    1    2    0    0  0.36019067638E+02  0.18803125027E+02  0.14953376259E+01  0.40659153691E+02  0.00000000000E+00 0. -1.
         11    1    3    3    0    0  0.17089729019E+01  0.36260037457E+01  0.17626244124E+01  0.43789652457E+01  0.51100000000E-03 0. -1.
        -11    1    3    3    0    0 -0.32121488193E+02 -0.14714712373E+02  0.17569792316E+01  0.35375128837E+02  0.51100000000E-03 0.  1.
        -12    1    3    3    0    0 -0.56065523468E+01 -0.77144163993E+01 -0.50149412698E+01  0.10774752226E+02  0.00000000000E+00 0.  1.
</event>
<event>
 7    1  0.2991278E-011  0.5052887E+02  0.7816164E-02  0.1300439E+00
        -11   -1    0    0    0    0  0.00000000000E+00  0.00000000000E+00  0.45593999997E+02  0.45594000000E+02  0.51100000000E-03 0.  1.
         11   -1    0    0    0    0 -0.00000000000E+00 -0.00000000000E+00 -0.45593999997E+02  0.45594000000E+02  0.51100000000E-03 0. -1.
    9900012    2    1    2    0    0 -0.37124834910E+02  0.12143598232E+01  0.16535929930E+02  0.50528867993E+02  0.30000024752E+02 0.  0.
         12    1    1    2    0    0  0.37124834910E+02 -0.12143598232E+01 -0.16535929930E+02  0.40659132007E+02  0.00000000000E+00 0. -1.
         11    1    3    3    0    0 -0.12261532272E+02  0.18004100336E+01  0.17939042547E+02  0.21803575343E+02  0.51100000000E-03 0. -1.
        -11    1    3    3    0    0 -0.16113395599E+02  0.52544937478E+01 -0.48943003294E+01  0.17641014660E+02  0.51100000000E-03 0.  1.
        -12    1    3    3    0    0 -0.87499070389E+01 -0.58405439583E+01  0.34911877125E+01  0.11084277990E+02  0.00000000000E+00 0.  1.
</event>
<event>
 7    1  0.2991278E-011  0.5052886E+02  0.7816164E-02  0.1300439E+00
        -11   -1    0    0    0    0  0.00000000000E+00  0.00000000000E+00  0.45593999997E+02  0.45594000000E+02  0.51100000000E-03 0.  1.
         11   -1    0    0    0    0 -0.00000000000E+00 -0.00000000000E+00 -0.45593999997E+02  0.45594000000E+02  0.51100000000E-03 0. -1.
    9900012    2    1    2    0    0  0.30496064438E+02  0.25727976090E+02 -0.78247491424E+01  0.50528863277E+02  0.30000010418E+02 0.  0.
         12    1    1    2    0    0 -0.30496064438E+02 -0.25727976090E+02  0.78247491424E+01  0.40659136723E+02  0.00000000000E+00 0. -1.
         11    1    3    3    0    0  0.66024400073E+00  0.12906255065E+02 -0.11269287817E+02  0.17146550385E+02  0.51100000000E-03 0. -1.
        -11    1    3    3    0    0  0.26325505793E+02  0.12598002654E+02  0.11990579800E+01  0.29209239402E+02  0.51100000000E-03 0.  1.
        -12    1    3    3    0    0  0.35103146444E+01  0.22371837069E+00  0.22454806943E+01  0.41730734909E+01  0.00000000000E+00 0.  1.
</event>
<event>
 7    1  0.2991278E-011  0.5052886E+02  0.7816164E-02  0.1300439E+00
        -11   -1    0    0    0    0  0.00000000000E+00  0.00000000000E+00  0.45593999997E+02  0.45594000000E+02  0.51100000000E-03 0.  1.
         11   -1    0    0    0    0 -0.00000000000E+00 -0.00000000000E+00 -0.45593999997E+02  0.45594000000E+02  0.51100000000E-03 0. -1.
    9900012    2    1    2    0    0  0.19004279416E+02  0.35490365415E+02  0.56953340048E+01  0.50528862001E+02  0.30000006538E+02 0.  0.
         12    1    1    2    0    0 -0.19004279416E+02 -0.35490365415E+02 -0.56953340048E+01  0.40659137999E+02  0.00000000000E+00 0. -1.
         11    1    3    3    0    0  0.17406088751E+02  0.14615231707E+02  0.13949188177E+01  0.22771094005E+02  0.51100000000E-03 0. -1.
        -11    1    3    3    0    0  0.69113240037E+00  0.13127958917E+02  0.11256189734E+02  0.17306726349E+02  0.51100000000E-03 0.  1.
         12    1    3    3    0    0  0.90705826509E+00  0.77471747917E+01 -0.69557745473E+01  0.10451041647E+02  0.00000000000E+00 0. -1.
</event>
<event>
 7    1  0.2991278E-011  0.5052887E+02  0.7816164E-02  0.1300439E+00
        -11   -1    0    0    0    0  0.00000000000E+00  0.00000000000E+00  0.45593999997E+02  0.45594000000E+02  0.51100000000E-03 0.  1.
         11   -1    0    0    0    0 -0.00000000000E+00 -0.00000000000E+00 -0.45593999997E+02  0.45594000000E+02  0.51100000000E-03 0. -1.
    9900012    2    1    2    0    0 -0.38594952783E+02  0.74868138720E+01  0.10370230907E+02  0.50528874931E+02  0.30000045842E+02 0.  0.
         12    1    1    2    0    0  0.38594952783E+02 -0.74868138720E+01 -0.10370230907E+02  0.40659125069E+02  0.00000000000E+00 0. -1.
         11    1    3    3    0    0 -0.18410775543E+02  0.13335347113E+02 -0.60981177605E+00  0.22741152332E+02  0.51100000000E-03 0. -1.
        -11    1    3    3    0    0  0.18341357847E+01 -0.24294218065E+01  0.25261848778E+01  0.39557242938E+01  0.51100000000E-03 0.  1.
        -12    1    3    3    0    0 -0.22018313024E+02 -0.34191114346E+01  0.84538578057E+01  0.23831998305E+02  0.00000000000E+00 0.  1.
</event>
<event>
 7    1  0.2991278E-011  0.5052886E+02  0.7816164E-02  0.1300439E+00
        -11   -1    0    0    0    0  0.00000000000E+00  0.00000000000E+00  0.45593999997E+02  0.45594000000E+02  0.51100000000E-03 0. -1.
         11   -1    0    0    0    0 -0.00000000000E+00 -0.00000000000E+00 -0.45593999997E+02  0.45594000000E+02  0.51100000000E-03 0.  1.
    9900012    2    1    2    0    0 -0.37834801251E+02 -0.88522641413E+00 -0.14863045905E+02  0.50528856562E+02  0.29999990006E+02 0.  0.
         12    1    1    2    0    0  0.37834801251E+02  0.88522641413E+00  0.14863045905E+02  0.40659143438E+02  0.00000000000E+00 0. -1.
         11    1    3    3    0    0  0.20463850847E+01 -0.44736925329E+01  0.15835569153E+01  0.51681011561E+01  0.51100000000E-03 0. -1.
        -11    1    3    3    0    0 -0.25908511755E+02  0.31360019385E+01 -0.35449632468E+01  0.26337278792E+02  0.51100000000E-03 0.  1.
         12    1    3    3    0    0 -0.13972674581E+02  0.45246418031E+00 -0.12901639574E+02  0.19023476614E+02  0.00000000000E+00 0. -1.
</event>
<event>
 7    1  0.2991278E-011  0.5052886E+02  0.7816164E-02  0.1300439E+00
        -11   -1    0    0    0    0  0.00000000000E+00  0.00000000000E+00  0.45593999997E+02  0.45594000000E+02  0.51100000000E-03 0. -1.
         11   -1    0    0    0    0 -0.00000000000E+00 -0.00000000000E+00 -0.45593999997E+02  0.45594000000E+02  0.51100000000E-03 0.  1.
    9900012    2    1    2    0    0  0.40325906277E+01  0.39123492063E+02  0.10308050844E+02  0.50528864119E+02  0.30000012978E+02 0.  0.
         12    1    1    2    0    0 -0.40325906277E+01 -0.39123492063E+02 -0.10308050844E+02  0.40659135881E+02  0.00000000000E+00 0. -1.
         11    1    3    3    0    0  0.92986222565E+01  0.40115544346E+01  0.12371241233E+01  0.10202324304E+02  0.51100000000E-03 0. -1.
        -11    1    3    3    0    0 -0.10416125555E+02  0.22995834000E+02  0.18537689904E+01  0.25312852717E+02  0.51100000000E-03 0.  1.
        -12    1    3    3    0    0  0.51500939266E+01  0.12116103628E+02  0.72171577305E+01  0.15013687098E+02  0.00000000000E+00 0.  1.
</event>
<event>
 7    1  0.2991278E-011  0.5052875E+02  0.7816164E-02  0.1300439E+00
        -11   -1    0    0    0    0  0.00000000000E+00  0.00000000000E+00  0.45593999997E+02  0.45594000000E+02  0.51100000000E-03 0.  1.
         11   -1    0    0    0    0 -0.00000000000E+00 -0.00000000000E+00 -0.45593999997E+02  0.45594000000E+02  0.51100000000E-03 0. -1.
    9900012    2    1    2    0    0  0.37496459556E+01 -0.25193438905E+02  0.31692355307E+02  0.50528750209E+02  0.29999666734E+02 0.  0.
         12    1    1    2    0    0 -0.37496459556E+01  0.25193438905E+02 -0.31692355307E+02  0.40659249791E+02  0.00000000000E+00 0. -1.
         11    1    3    3    0    0  0.98294410929E+01 -0.99824679900E+01  0.97034897026E+00  0.14043117772E+02  0.51100000000E-03 0. -1.
        -11    1    3    3    0    0 -0.90923903308E+01 -0.94866797374E+01  0.22020501586E+02  0.25643150055E+02  0.51100000000E-03 0.  1.
         12    1    3    3    0    0  0.30125951935E+01 -0.57242911774E+01  0.87015047508E+01  0.10842482382E+02  0.00000000000E+00 0. -1.
</event>
<event>
 7    1  0.2991278E-011  0.5052885E+02  0.7816164E-02  0.1300439E+00
        -11   -1    0    0    0    0  0.00000000000E+00  0.00000000000E+00  0.45593999997E+02  0.45594000000E+02  0.51100000000E-03 0. -1.
         11   -1    0    0    0    0 -0.00000000000E+00 -0.00000000000E+00 -0.45593999997E+02  0.45594000000E+02  0.51100000000E-03 0.  1.
    9900012    2    1    2    0    0  0.33145840425E+02 -0.12287091203E+02 -0.20088481156E+02  0.50528850687E+02  0.29999972148E+02 0.  0.
         12    1    1    2    0    0 -0.33145840425E+02  0.12287091203E+02  0.20088481156E+02  0.40659149313E+02  0.00000000000E+00 0. -1.
         11    1    3    3    0    0 -0.17760383633E+01  0.20348126708E+01  0.17561199283E+01  0.32216040007E+01  0.51100000000E-03 0. -1.
        -11    1    3    3    0    0  0.30454554181E+02 -0.13125311822E+02 -0.25151721670E+02  0.41621662438E+02  0.51100000000E-03 0.  1.
        -12    1    3    3    0    0  0.44673246067E+01 -0.11965920518E+01  0.33071205857E+01  0.56855842487E+01  0.00000000000E+00 0.  1.
</event>
<event>
 7    1  0.2991278E-011  0.5052886E+02  0.7816164E-02  0.1300439E+00
        -11   -1    0    0    0    0  0.00000000000E+00  0.00000000000E+00  0.45593999997E+02  0.45594000000E+02  0.51100000000E-03 0. -1.
         11   -1    0    0    0    0 -0.00000000000E+00 -0.00000000000E+00 -0.45593999997E+02  0.45594000000E+02  0.51100000000E-03 0.  1.
    9900012    2    1    2    0    0  0.20551444293E+02 -0.17712934421E+02 -0.30282933235E+02  0.50528856457E+02  0.29999989687E+02 0.  0.
         12    1    1    2    0    0 -0.20551444293E+02  0.17712934421E+02  0.30282933235E+02  0.40659143543E+02  0.00000000000E+00 0. -1.
         11    1    3    3    0    0  0.14865491750E+01 -0.73735164151E+01 -0.24649657183E+01  0.79154677074E+01  0.51100000000E-03 0. -1.
        -11    1    3    3    0    0  0.74934615131E+01  0.57181224704E+01 -0.18444559190E+02  0.20713537940E+02  0.51100000000E-03 0.  1.
        -12    1    3    3    0    0  0.11571433605E+02 -0.16057540476E+02 -0.93734083272E+01  0.21899850810E+02  0.00000000000E+00 0.  1.
</event>
<event>
 7    1  0.2991278E-011  0.5052887E+02  0.7816164E-02  0.1300439E+00
        -11   -1    0    0    0    0  0.00000000000E+00  0.00000000000E+00  0.45593999997E+02  0.45594000000E+02  0.51100000000E-03 0. -1.
         11   -1    0    0    0    0 -0.00000000000E+00 -0.00000000000E+00 -0.45593999997E+02  0.45594000000E+02  0.51100000000E-03 0.  1.
    9900012    2    1    2    0    0 -0.30528958872E+02  0.56203913825E+01 -0.26259456627E+02  0.50528865830E+02  0.30000018177E+02 0.  0.
         12    1    1    2    0    0  0.30528958872E+02 -0.56203913825E+01  0.26259456627E+02  0.40659134170E+02  0.00000000000E+00 0. -1.
         11    1    3    3    0    0  0.41214706867E+01  0.45006276439E+00 -0.33717598798E+01  0.53439537855E+01  0.51100000000E-03 0. -1.
        -11    1    3    3    0    0 -0.31377977856E+02 -0.32419810181E+00 -0.22801603202E+02  0.38789118418E+02  0.51100000000E-03 0.  1.
        -12    1    3    3    0    0 -0.32724517027E+01  0.54945267199E+01 -0.86093544805E-01  0.63957936271E+01  0.00000000000E+00 0.  1.
</event>
<event>
 7    1  0.2991278E-011  0.5052884E+02  0.7816164E-02  0.1300439E+00
        -11   -1    0    0    0    0  0.00000000000E+00  0.00000000000E+00  0.45593999997E+02  0.45594000000E+02  0.51100000000E-03 0.  1.
         11   -1    0    0    0    0 -0.00000000000E+00 -0.00000000000E+00 -0.45593999997E+02  0.45594000000E+02  0.51100000000E-03 0. -1.
    9900012    2    1    2    0    0  0.25461760545E+02  0.13611683034E+02  0.28628449229E+02  0.50528840265E+02  0.29999940470E+02 0.  0.
         12    1    1    2    0    0 -0.25461760545E+02 -0.13611683034E+02 -0.28628449229E+02  0.40659159735E+02  0.00000000000E+00 0. -1.
         11    1    3    3    0    0 -0.11628645988E+01  0.23094715070E+00  0.18155999476E+02  0.18194667018E+02  0.51100000000E-03 0. -1.
        -11    1    3    3    0    0  0.97931912214E+01  0.14890433943E+01  0.44831565076E+01  0.10873018765E+02  0.51100000000E-03 0.  1.
         12    1    3    3    0    0  0.16831433922E+02  0.11891692489E+02  0.59892932457E+01  0.21461154482E+02  0.00000000000E+00 0. -1.
</event>
<event>
 7    1  0.2991278E-011  0.5052886E+02  0.7816164E-02  0.1300439E+00
        -11   -1    0    0    0    0  0.00000000000E+00  0.00000000000E+00  0.45593999997E+02  0.45594000000E+02  0.51100000000E-03 0. -1.
         11   -1    0    0    0    0 -0.00000000000E+00 -0.00000000000E+00 -0.45593999997E+02  0.45594000000E+02  0.51100000000E-03 0.  1.
    9900012    2    1    2    0    0  0.38348430055E+02  0.38122223808E+01 -0.12962673131E+02  0.50528855619E+02  0.29999987139E+02 0.  0.
         12    1    1    2    0    0 -0.38348430055E+02 -0.38122223808E+01  0.12962673131E+02  0.40659144381E+02  0.00000000000E+00 0. -1.
         11    1    3    3    0    0  0.14000137456E+01  0.65618501444E+01 -0.91180546024E+01  0.11320637606E+02  0.51100000000E-03 0. -1.
        -11    1    3    3    0    0  0.50161515054E+01 -0.47529482719E+01  0.45650969709E+00  0.69253660239E+01  0.51100000000E-03 0.  1.
         12    1    3    3    0    0  0.31932264804E+02  0.20033205083E+01 -0.43011282254E+01  0.32282851989E+02  0.00000000000E+00 0. -1.
</event>
<event>
 7    1  0.2991278E-011  0.5052886E+02  0.7816164E-02  0.1300439E+00
        -11   -1    0    0    0    0  0.00000000000E+00  0.00000000000E+00  0.45593999997E+02  0.45594000000E+02  0.51100000000E-03 0. -1.
         11   -1    0    0    0    0 -0.00000000000E+00 -0.00000000000E+00 -0.45593999997E+02  0.45594000000E+02  0.51100000000E-03 0.  1.
    9900012    2    1    2    0    0 -0.19712196276E+02  0.27313486066E+02 -0.22772102968E+02  0.50528857404E+02  0.29999992565E+02 0.  0.
         12    1    1    2    0    0  0.19712196276E+02 -0.27313486066E+02  0.22772102968E+02  0.40659142596E+02  0.00000000000E+00 0. -1.
         11    1    3    3    0    0  0.50097749931E+01  0.84190666157E+01 -0.12992462937E+02  0.16272142501E+02  0.51100000000E-03 0. -1.
        -11    1    3    3    0    0 -0.72375934749E+01  0.10909654592E+02 -0.10149812017E+01  0.13131394051E+02  0.51100000000E-03 0.  1.
         12    1    3    3    0    0 -0.17484377794E+02  0.79847648581E+01 -0.87646588297E+01  0.21125320851E+02  0.00000000000E+00 0. -1.
</event>
<event>
 7    1  0.2991278E-011  0.5052884E+02  0.7816164E-02  0.1300439E+00
        -11   -1    0    0    0    0  0.00000000000E+00  0.00000000000E+00  0.45593999997E+02  0.45594000000E+02  0.51100000000E-03 0.  1.
         11   -1    0    0    0    0 -0.00000000000E+00 -0.00000000000E+00 -0.45593999997E+02  0.45594000000E+02  0.51100000000E-03 0. -1.
    9900012    2    1    2    0    0 -0.87549845647E+01  0.11391353540E+02  0.38036223953E+02  0.50528843309E+02  0.29999949722E+02 0.  0.
         12    1    1    2    0    0  0.87549845647E+01 -0.11391353540E+02 -0.38036223953E+02  0.40659156691E+02  0.00000000000E+00 0. -1.
         11    1    3    3    0    0  0.27029335244E+01 -0.22041592417E+01 -0.65497485768E+00  0.35486842527E+01  0.51100000000E-03 0. -1.
        -11    1    3    3    0    0 -0.13251201921E+02  0.14694062304E+01  0.26641869806E+02  0.29791655443E+02  0.51100000000E-03 0.  1.
        -12    1    3    3    0    0  0.17932838318E+01  0.12126106551E+02  0.12049329005E+02  0.17188503613E+02  0.00000000000E+00 0.  1.
</event>
<event>
 7    1  0.2991278E-011  0.5052886E+02  0.7816164E-02  0.1300439E+00
        -11   -1    0    0    0    0  0.00000000000E+00  0.00000000000E+00  0.45593999997E+02  0.45594000000E+02  0.51100000000E-03 0.  1.
         11   -1    0    0    0    0 -0.00000000000E+00 -0.00000000000E+00 -0.45593999997E+02  0.45594000000E+02  0.51100000000E-03 0. -1.
    9900012    2    1    2    0    0  0.34786468763E+02 -0.20450926116E+02  0.49826571930E+01  0.50528860059E+02  0.30000000637E+02 0.  0.
         12    1    1    2    0    0 -0.34786468763E+02  0.20450926116E+02 -0.49826571930E+01  0.40659139941E+02  0.00000000000E+00 0. -1.
         11    1    3    3    0    0  0.11112336892E+02 -0.89970807543E+01 -0.95464316398E+01  0.17192028694E+02  0.51100000000E-03 0. -1.
        -11    1    3    3    0    0  0.19519672767E+02 -0.12654563510E+02  0.16564147129E+02  0.28557425880E+02  0.51100000000E-03 0.  1.
        -12    1    3    3    0    0  0.41544591044E+01  0.12007181482E+01 -0.20350582962E+01  0.47794054850E+01  0.00000000000E+00 0.  1.
</event>
<event>
 7    1  0.2991278E-011  0.5052891E+02  0.7816164E-02  0.1300439E+00
        -11   -1    0    0    0    0  0.00000000000E+00  0.00000000000E+00  0.45593999997E+02  0.45594000000E+02  0.51100000000E-03 0.  1.
         11   -1    0    0    0    0 -0.00000000000E+00 -0.00000000000E+00 -0.45593999997E+02  0.45594000000E+02  0.51100000000E-03 0. -1.
    9900012    2    1    2    0    0 -0.30863225791E+02  0.26372620664E+02  0.22600860590E+01  0.50528907340E+02  0.30000144350E+02 0.  0.
         12    1    1    2    0    0  0.30863225791E+02 -0.26372620664E+02 -0.22600860590E+01  0.40659092660E+02  0.00000000000E+00 0. -1.
         11    1    3    3    0    0 -0.82714876209E+01  0.70217361315E+01 -0.75739707534E+01  0.13232056492E+02  0.51100000000E-03 0. -1.
        -11    1    3    3    0    0 -0.94659953630E+01  0.17311718980E+02  0.13016847487E+02  0.23637660650E+02  0.51100000000E-03 0.  1.
        -12    1    3    3    0    0 -0.13125742807E+02  0.20391655530E+01 -0.31827906745E+01  0.13659190198E+02  0.00000000000E+00 0.  1.
</event>
<event>
 7    1  0.2991278E-011  0.5052886E+02  0.7816164E-02  0.1300439E+00
        -11   -1    0    0    0    0  0.00000000000E+00  0.00000000000E+00  0.45593999997E+02  0.45594000000E+02  0.51100000000E-03 0.  1.
         11   -1    0    0    0    0 -0.00000000000E+00 -0.00000000000E+00 -0.45593999997E+02  0.45594000000E+02  0.51100000000E-03 0. -1.
    9900012    2    1    2    0    0  0.17898956260E+02 -0.19797041577E+02  0.30673609463E+02  0.50528858249E+02  0.29999995134E+02 0.  0.
         12    1    1    2    0    0 -0.17898956260E+02  0.19797041577E+02 -0.30673609463E+02  0.40659141751E+02  0.00000000000E+00 0. -1.
         11    1    3    3    0    0  0.18122985153E+02  0.56887462316E+00  0.14417781562E+02  0.23165462107E+02  0.51100000000E-03 0. -1.
        -11    1    3    3    0    0 -0.31042577233E+01 -0.43369034658E+01  0.63864105292E+01  0.83205400903E+01  0.51100000000E-03 0.  1.
         12    1    3    3    0    0  0.28802288303E+01 -0.16029012734E+02  0.98694173719E+01  0.19042856052E+02  0.00000000000E+00 0. -1.
</event>
<event>
 7    1  0.2991278E-011  0.5052886E+02  0.7816164E-02  0.1300439E+00
        -11   -1    0    0    0    0  0.00000000000E+00  0.00000000000E+00  0.45593999997E+02  0.45594000000E+02  0.51100000000E-03 0. -1.
         11   -1    0    0    0    0 -0.00000000000E+00 -0.00000000000E+00 -0.45593999997E+02  0.45594000000E+02  0.51100000000E-03 0.  1.
    9900012    2    1    2    0    0  0.33303242403E+01  0.40521243657E+02  0.32144325085E+00  0.50528861140E+02  0.30000003921E+02 0.  0.
         12    1    1    2    0    0 -0.33303242403E+01 -0.40521243657E+02 -0.32144325085E+00  0.40659138860E+02  0.00000000000E+00 0. -1.
         11    1    3    3    0    0  0.75550954141E+01  0.45202224407E+01 -0.89577933360E+00  0.88495366265E+01  0.51100000000E-03 0.  1.
        -11    1    3    3    0    0  0.33112241141E+00  0.32179906797E+02  0.74841148371E+01  0.33040399796E+02  0.51100000000E-03 0. -1.
        -12    1    3    3    0    0 -0.45558935852E+01  0.38211144192E+01 -0.62668922526E+01  0.86389247172E+01  0.00000000000E+00 0.  1.
</event>
<event>
 7    1  0.2991278E-011  0.5052885E+02  0.7816164E-02  0.1300439E+00
        -11   -1    0    0    0    0  0.00000000000E+00  0.00000000000E+00  0.45593999997E+02  0.45594000000E+02  0.51100000000E-03 0.  1.
         11   -1    0    0    0    0 -0.00000000000E+00 -0.00000000000E+00 -0.45593999997E+02  0.45594000000E+02  0.51100000000E-03 0. -1.
    9900012    2    1    2    0    0 -0.22484343843E+02 -0.60122646102E+01  0.33338764536E+02  0.50528852634E+02  0.29999978066E+02 0.  0.
         12    1    1    2    0    0  0.22484343843E+02  0.60122646102E+01 -0.33338764536E+02  0.40659147366E+02  0.00000000000E+00 0. -1.
         11    1    3    3    0    0 -0.41228526204E+00 -0.29704344681E+01 -0.20879085935E+01  0.36541514231E+01  0.51100000000E-03 0. -1.
        -11    1    3    3    0    0 -0.19459743606E+02 -0.56760192333E+01  0.37497624561E+02  0.42625938858E+02  0.51100000000E-03 0.  1.
        -12    1    3    3    0    0 -0.26123149744E+01  0.26341890912E+01 -0.20709514320E+01  0.42487623524E+01  0.00000000000E+00 0.  1.
</event>
<event>
 7    1  0.2991278E-011  0.5052885E+02  0.7816164E-02  0.1300439E+00
        -11   -1    0    0    0    0  0.00000000000E+00  0.00000000000E+00  0.45593999997E+02  0.45594000000E+02  0.51100000000E-03 0.  1.
         11   -1    0    0    0    0 -0.00000000000E+00 -0.00000000000E+00 -0.45593999997E+02  0.45594000000E+02  0.51100000000E-03 0. -1.
    9900012    2    1    2    0    0  0.27102108869E+02  0.23731977348E+02  0.18852989993E+02  0.50528852374E+02  0.29999977276E+02 0.  0.
         12    1    1    2    0    0 -0.27102108869E+02 -0.23731977348E+02 -0.18852989993E+02  0.40659147626E+02  0.00000000000E+00 0. -1.
         11    1    3    3    0    0 -0.16773026524E+01  0.11305633668E+01 -0.30276747915E+00  0.20452838731E+01  0.51100000000E-03 0. -1.
        -11    1    3    3    0    0  0.31782307419E+02  0.12938697148E+02  0.16167231177E+02  0.37932892230E+02  0.51100000000E-03 0.  1.
        -12    1    3    3    0    0 -0.30028958969E+01  0.96627168325E+01  0.29885262950E+01  0.10550676271E+02  0.00000000000E+00 0.  1.
</event>
<event>
 7    1  0.2991278E-011  0.5052885E+02  0.7816164E-02  0.1300439E+00
        -11   -1    0    0    0    0  0.00000000000E+00  0.00000000000E+00  0.45593999997E+02  0.45594000000E+02  0.51100000000E-03 0.  1.
         11   -1    0    0    0    0 -0.00000000000E+00 -0.00000000000E+00 -0.45593999997E+02  0.45594000000E+02  0.51100000000E-03 0. -1.
    9900012    2    1    2    0    0  0.34297389222E+02  0.45106589284E+01  0.21366092301E+02  0.50528845414E+02  0.29999956121E+02 0.  0.
         12    1    1    2    0    0 -0.34297389222E+02 -0.45106589284E+01 -0.21366092301E+02  0.40659154586E+02  0.00000000000E+00 0. -1.
         11    1    3    3    0    0  0.12619617152E+02 -0.23563549475E+01 -0.29322799616E+01  0.13168348862E+02  0.51100000000E-03 0. -1.
        -11    1    3    3    0    0  0.19788036277E+02  0.72262328205E+01  0.26873464266E+02  0.34146272160E+02  0.51100000000E-03 0.  1.
        -12    1    3    3    0    0  0.18897357932E+01 -0.35921894465E+00 -0.25750920038E+01  0.32142243927E+01  0.00000000000E+00 0.  1.
</event>
<event>
 7    1  0.2991278E-011  0.5052886E+02  0.7816164E-02  0.1300439E+00
        -11   -1    0    0    0    0  0.00000000000E+00  0.00000000000E+00  0.45593999997E+02  0.45594000000E+02  0.51100000000E-03 0.  1.
         11   -1    0    0    0    0 -0.00000000000E+00 -0.00000000000E+00 -0.45593999997E+02  0.45594000000E+02  0.51100000000E-03 0. -1.
    9900012    2    1    2    0    0 -0.39627369327E+02  0.71470274596E+01  0.56353729877E+01  0.50528857978E+02  0.29999994310E+02 0.  0.
         12    1    1    2    0    0  0.39627369327E+02 -0.71470274596E+01 -0.56353729877E+01  0.40659142022E+02  0.00000000000E+00 0. -1.
         11    1    3    3    0    0 -0.12497883352E+02 -0.98675622699E+00  0.14664526227E+02  0.19292980740E+02  0.51100000000E-03 0. -1.
        -11    1    3    3    0    0 -0.76365356182E+00  0.16669100698E+01  0.12375158773E+01  0.22120582612E+01  0.51100000000E-03 0.  1.
         12    1    3    3    0    0 -0.26365832413E+02  0.64668736167E+01 -0.10266669117E+02  0.29023818976E+02  0.00000000000E+00 0. -1.
</event>
<event>
 7    1  0.2991278E-011  0.5052886E+02  0.7816164E-02  0.1300439E+00
        -11   -1    0    0    0    0  0.00000000000E+00  0.00000000000E+00  0.45593999997E+02  0.45594000000E+02  0.51100000000E-03 0. -1.
         11   -1    0    0    0    0 -0.00000000000E+00 -0.00000000000E+00 -0.45593999997E+02  0.45594000000E+02  0.51100000000E-03 0.  1.
    9900012    2    1    2    0    0 -0.13756070823E+02  0.36691287637E+01 -0.38085081093E+02  0.50528863361E+02  0.30000010672E+02 0.  0.
         12    1    1    2    0    0  0.13756070823E+02 -0.36691287637E+01  0.38085081093E+02  0.40659136639E+02  0.00000000000E+00 0. -1.
         11    1    3    3    0    0  0.12847189569E+01 -0.96943141997E+01 -0.93778422062E+01  0.13548954030E+02  0.51100000000E-03 0. -1.
        -11    1    3    3    0    0 -0.96254013052E+01  0.50906046430E+01 -0.65257091600E+01  0.12694387981E+02  0.51100000000E-03 0.  1.
         12    1    3    3    0    0 -0.54153884744E+01  0.82728383204E+01 -0.22181529727E+02  0.24285521350E+02  0.00000000000E+00 0. -1.
</event>
<event>
 7    1  0.2991278E-011  0.5052885E+02  0.7816164E-02  0.1300439E+00
        -11   -1    0    0    0    0  0.00000000000E+00  0.00000000000E+00  0.45593999997E+02  0.45594000000E+02  0.51100000000E-03 0. -1.
         11   -1    0    0    0    0 -0.00000000000E+00 -0.00000000000E+00 -0.45593999997E+02  0.45594000000E+02  0.51100000000E-03 0.  1.
    9900012    2    1    2    0    0 -0.24658095334E+02  0.23663476832E+02 -0.22026900358E+02  0.50528854157E+02  0.29999982695E+02 0.  0.
         12    1    1    2    0    0  0.24658095334E+02 -0.23663476832E+02  0.22026900358E+02  0.40659145843E+02  0.00000000000E+00 0. -1.
         11    1    3    3    0    0  0.30871398614E+00  0.10068684072E+02 -0.12926782070E+02  0.16388270141E+02  0.51100000000E-03 0. -1.
        -11    1    3    3    0    0 -0.64911510438E+01 -0.31221408071E+01 -0.52857882607E+01  0.89343361752E+01  0.51100000000E-03 0.  1.
        -12    1    3    3    0    0 -0.18475658276E+02  0.16716933568E+02 -0.38143300278E+01  0.25206247841E+02  0.00000000000E+00 0.  1.
</event>
<event>
 7    1  0.2991278E-011  0.5052886E+02  0.7816164E-02  0.1300439E+00
        -11   -1    0    0    0    0  0.00000000000E+00  0.00000000000E+00  0.45593999997E+02  0.45594000000E+02  0.51100000000E-03 0. -1.
         11   -1    0    0    0    0 -0.00000000000E+00 -0.00000000000E+00 -0.45593999997E+02  0.45594000000E+02  0.51100000000E-03 0.  1.
    9900012    2    1    2    0    0 -0.32781081646E+02 -0.14549759396E+02 -0.19153867493E+02  0.50528862622E+02  0.30000008426E+02 0.  0.
         12    1    1    2    0    0  0.32781081646E+02  0.14549759396E+02  0.19153867493E+02  0.40659137378E+02  0.00000000000E+00 0. -1.
         11    1    3    3    0    0 -0.25955544341E+01 -0.23040900864E+01 -0.12399765130E+01  0.36855496145E+01  0.51100000000E-03 0. -1.
        -11    1    3    3    0    0 -0.18906593744E+02 -0.15074791594E+02  0.14848510227E+01  0.24226295866E+02  0.51100000000E-03 0.  1.
        -12    1    3    3    0    0 -0.11278933468E+02  0.28291222841E+01 -0.19398742003E+02  0.22617017141E+02  0.00000000000E+00 0.  1.
</event>
<event>
 7    1  0.2991278E-011  0.5052885E+02  0.7816164E-02  0.1300439E+00
        -11   -1    0    0    0    0  0.00000000000E+00  0.00000000000E+00  0.45593999997E+02  0.45594000000E+02  0.51100000000E-03 0. -1.
         11   -1    0    0    0    0 -0.00000000000E+00 -0.00000000000E+00 -0.45593999997E+02  0.45594000000E+02  0.51100000000E-03 0.  1.
    9900012    2    1    2    0    0  0.37414071441E+02  0.15737530529E+02 -0.23840028373E+01  0.50528854921E+02  0.29999985019E+02 0.  0.
         12    1    1    2    0    0 -0.37414071441E+02 -0.15737530529E+02  0.23840028373E+01  0.40659145079E+02  0.00000000000E+00 0. -1.
         11    1    3    3    0    0 -0.26165996571E+01 -0.39911194664E+00 -0.50315275604E+01  0.56852575987E+01  0.51100000000E-03 0. -1.
        -11    1    3    3    0    0  0.37204261298E+02  0.16345420213E+02 -0.45816000148E+00  0.40639140388E+02  0.51100000000E-03 0.  1.
         12    1    3    3    0    0  0.28264098008E+01 -0.20877773723E+00  0.31056847245E+01  0.42044569344E+01  0.00000000000E+00 0. -1.
</event>
<event>
 7    1  0.2991278E-011  0.5052885E+02  0.7816164E-02  0.1300439E+00
        -11   -1    0    0    0    0  0.00000000000E+00  0.00000000000E+00  0.45593999997E+02  0.45594000000E+02  0.51100000000E-03 0.  1.
         11   -1    0    0    0    0 -0.00000000000E+00 -0.00000000000E+00 -0.45593999997E+02  0.45594000000E+02  0.51100000000E-03 0. -1.
    9900012    2    1    2    0    0 -0.26656767708E+02 -0.12518241577E+02  0.28033494984E+02  0.50528850011E+02  0.29999970093E+02 0.  0.
         12    1    1    2    0    0  0.26656767708E+02  0.12518241577E+02 -0.28033494984E+02  0.40659149989E+02  0.00000000000E+00 0. -1.
         11    1    3    3    0    0  0.46094197895E+01 -0.66205298750E+01  0.10761217541E+02  0.13449236776E+02  0.51100000000E-03 0. -1.
        -11    1    3    3    0    0 -0.23170178019E+02 -0.47594108720E+01  0.86198636183E+01  0.25175607050E+02  0.51100000000E-03 0.  1.
        -12    1    3    3    0    0 -0.80960094783E+01 -0.11383008295E+01  0.86524138244E+01  0.11904006184E+02  0.00000000000E+00 0.  1.
</event>
<event>
 7    1  0.2991278E-011  0.5052886E+02  0.7816164E-02  0.1300439E+00
        -11   -1    0    0    0    0  0.00000000000E+00  0.00000000000E+00  0.45593999997E+02  0.45594000000E+02  0.51100000000E-03 0.  1.
         11   -1    0    0    0    0 -0.00000000000E+00 -0.00000000000E+00 -0.45593999997E+02  0.45594000000E+02  0.51100000000E-03 0. -1.
    9900012    2    1    2    0    0 -0.36872752734E+02  0.12657436926E+02  0.11547950894E+02  0.50528858672E+02  0.29999996419E+02 0.  0.
         12    1    1    2    0    0  0.36872752734E+02 -0.12657436926E+02 -0.11547950894E+02  0.40659141328E+02  0.00000000000E+00 0. -1.
         11    1    3    3    0    0 -0.62810207445E+00  0.70788068393E+01  0.10898812363E+02  0.13011077191E+02  0.51100000000E-03 0. -1.
        -11    1    3    3    0    0 -0.29924044356E+02  0.14650415238E+01  0.15513883458E+00  0.29960287809E+02  0.51100000000E-03 0.  1.
         12    1    3    3    0    0 -0.63206063034E+01  0.41135885624E+01  0.49399969737E+00  0.75574936721E+01  0.00000000000E+00 0. -1.
</event>
<event>
 7    1  0.2991278E-011  0.5052886E+02  0.7816164E-02  0.1300439E+00
        -11   -1    0    0    0    0  0.00000000000E+00  0.00000000000E+00  0.45593999997E+02  0.45594000000E+02  0.51100000000E-03 0.  1.
         11   -1    0    0    0    0 -0.00000000000E+00 -0.00000000000E+00 -0.45593999997E+02  0.45594000000E+02  0.51100000000E-03 0. -1.
    9900012    2    1    2    0    0  0.24053475108E+02 -0.32589686695E+02  0.35367338108E+01  0.50528857981E+02  0.29999994320E+02 0.  0.
         12    1    1    2    0    0 -0.24053475108E+02  0.32589686695E+02 -0.35367338108E+01  0.40659142019E+02  0.00000000000E+00 0. -1.
         11    1    3    3    0    0 -0.23832345838E+01 -0.49492864872E+01 -0.47974429719E+01  0.72931956743E+01  0.51100000000E-03 0. -1.
        -11    1    3    3    0    0  0.12456480873E+02 -0.23643184562E+02  0.10141223153E+02  0.28583360532E+02  0.51100000000E-03 0.  1.
        -12    1    3    3    0    0  0.13980228819E+02 -0.39972156455E+01 -0.18070463698E+01  0.14652301776E+02  0.00000000000E+00 0.  1.
</event>
<event>
 7    1  0.2991278E-011  0.5052887E+02  0.7816164E-02  0.1300439E+00
        -11   -1    0    0    0    0  0.00000000000E+00  0.00000000000E+00  0.45593999997E+02  0.45594000000E+02  0.51100000000E-03 0.  1.
         11   -1    0    0    0    0 -0.00000000000E+00 -0.00000000000E+00 -0.45593999997E+02  0.45594000000E+02  0.51100000000E-03 0. -1.
    9900012    2    1    2    0    0 -0.63087111305E+01 -0.21562138680E+02  0.33888633694E+02  0.50528866287E+02  0.30000019567E+02 0.  0.
         12    1    1    2    0    0  0.63087111305E+01  0.21562138680E+02 -0.33888633694E+02  0.40659133713E+02  0.00000000000E+00 0. -1.
         11    1    3    3    0    0 -0.18305027126E+01  0.39437294017E+01 -0.21791860110E+01  0.48633932297E+01  0.51100000000E-03 0. -1.
        -11    1    3    3    0    0 -0.37521230604E+01 -0.10086322030E+02  0.23179359714E+02  0.25555724145E+02  0.51100000000E-03 0.  1.
         12    1    3    3    0    0 -0.72608535750E+00 -0.15419546051E+02  0.12888459991E+02  0.20109748912E+02  0.00000000000E+00 0. -1.
</event>
<event>
 7    1  0.2991278E-011  0.5052886E+02  0.7816164E-02  0.1300439E+00
        -11   -1    0    0    0    0  0.00000000000E+00  0.00000000000E+00  0.45593999997E+02  0.45594000000E+02  0.51100000000E-03 0. -1.
         11   -1    0    0    0    0 -0.00000000000E+00 -0.00000000000E+00 -0.45593999997E+02  0.45594000000E+02  0.51100000000E-03 0.  1.
    9900012    2    1    2    0    0  0.19611905643E+02  0.33984581036E+02 -0.10657730708E+02  0.50528858162E+02  0.29999994870E+02 0.  0.
         12    1    1    2    0    0 -0.19611905643E+02 -0.33984581036E+02  0.10657730708E+02  0.40659141838E+02  0.00000000000E+00 0. -1.
         11    1    3    3    0    0 -0.52776671490E+01  0.15488057003E+02 -0.94081471967E+01  0.18874504343E+02  0.51100000000E-03 0. -1.
        -11    1    3    3    0    0  0.96282864938E+01  0.10867553854E+02 -0.14486297710E+01  0.14591304124E+02  0.51100000000E-03 0.  1.
         12    1    3    3    0    0  0.15261286298E+02  0.76289701793E+01  0.19904626010E+00  0.17063049695E+02  0.00000000000E+00 0. -1.
</event>
<event>
 7    1  0.2991278E-011  0.5052886E+02  0.7816164E-02  0.1300439E+00
        -11   -1    0    0    0    0  0.00000000000E+00  0.00000000000E+00  0.45593999997E+02  0.45594000000E+02  0.51100000000E-03 0. -1.
         11   -1    0    0    0    0 -0.00000000000E+00 -0.00000000000E+00 -0.45593999997E+02  0.45594000000E+02  0.51100000000E-03 0.  1.
    9900012    2    1    2    0    0  0.15696342140E+02 -0.15504020464E+02 -0.34152828367E+02  0.50528862127E+02  0.30000006921E+02 0.  0.
         12    1    1    2    0    0 -0.15696342140E+02  0.15504020464E+02  0.34152828367E+02  0.40659137873E+02  0.00000000000E+00 0. -1.
         11    1    3    3    0    0 -0.51909565350E+01 -0.11176908677E+02 -0.16964508137E+02  0.20968162864E+02  0.51100000000E-03 0.  1.
        -11    1    3    3    0    0  0.12643007304E+02  0.10049258891E+01 -0.14732935252E+02  0.19440033208E+02  0.51100000000E-03 0. -1.
         12    1    3    3    0    0  0.82442913710E+01 -0.53320376764E+01 -0.24553849780E+01  0.10120666054E+02  0.00000000000E+00 0. -1.
</event>
<event>
 7    1  0.2991278E-011  0.5052886E+02  0.7816164E-02  0.1300439E+00
        -11   -1    0    0    0    0  0.00000000000E+00  0.00000000000E+00  0.45593999997E+02  0.45594000000E+02  0.51100000000E-03 0.  1.
         11   -1    0    0    0    0 -0.00000000000E+00 -0.00000000000E+00 -0.45593999997E+02  0.45594000000E+02  0.51100000000E-03 0. -1.
    9900012    2    1    2    0    0 -0.26687547690E+02 -0.18858132004E+02  0.24193216139E+02  0.50528855254E+02  0.29999986029E+02 0.  0.
         12    1    1    2    0    0  0.26687547690E+02  0.18858132004E+02 -0.24193216139E+02  0.40659144746E+02  0.00000000000E+00 0. -1.
         11    1    3    3    0    0 -0.14265993576E+02 -0.12824164798E+02  0.20277491553E+02  0.27913338020E+02  0.51100000000E-03 0. -1.
        -11    1    3    3    0    0  0.25860098302E+01  0.24589982473E+01  0.40144055967E+01  0.53711797379E+01  0.51100000000E-03 0.  1.
         12    1    3    3    0    0 -0.15007563944E+02 -0.84929654528E+01 -0.98681010436E-01  0.17244337496E+02  0.00000000000E+00 0. -1.
</event>
<event>
 7    1  0.2991278E-011  0.5052885E+02  0.7816164E-02  0.1300439E+00
        -11   -1    0    0    0    0  0.00000000000E+00  0.00000000000E+00  0.45593999997E+02  0.45594000000E+02  0.51100000000E-03 0.  1.
         11   -1    0    0    0    0 -0.00000000000E+00 -0.00000000000E+00 -0.45593999997E+02  0.45594000000E+02  0.51100000000E-03 0. -1.
    9900012    2    1    2    0    0  0.56222722072E+01  0.36367027381E+02  0.17291486535E+02  0.50528854265E+02  0.29999983024E+02 0.  0.
         12    1    1    2    0    0 -0.56222722072E+01 -0.36367027381E+02 -0.17291486535E+02  0.40659145735E+02  0.00000000000E+00 0. -1.
         11    1    3    3    0    0 -0.81231126498E+00 -0.10715963228E+00  0.11554626189E+02  0.11583640162E+02  0.51100000000E-03 0. -1.
        -11    1    3    3    0    0  0.31433880924E+00  0.26439389184E+02  0.62870371031E+01  0.27178427937E+02  0.51100000000E-03 0.  1.
         12    1    3    3    0    0  0.61202446630E+01  0.10034797829E+02 -0.55017675707E+00  0.11766786166E+02  0.00000000000E+00 0. -1.
</event>
<event>
 7    1  0.3023171E-011  0.5052886E+02  0.7816164E-02  0.1300439E+00
        -11   -1    0    0    0    0  0.00000000000E+00  0.00000000000E+00  0.45593999997E+02  0.45594000000E+02  0.51100000000E-03 0. -1.
         11   -1    0    0    0    0 -0.00000000000E+00 -0.00000000000E+00 -0.45593999997E+02  0.45594000000E+02  0.51100000000E-03 0.  1.
    9900012    2    1    2    0    0 -0.13359973859E+02 -0.34104484298E+02 -0.17651091950E+02  0.50528858374E+02  0.29999995514E+02 0.  0.
         12    1    1    2    0    0  0.13359973859E+02  0.34104484298E+02  0.17651091950E+02  0.40659141626E+02  0.00000000000E+00 0. -1.
         11    1    3    3    0    0  0.56732279539E+01 -0.14943122357E+01 -0.20615682065E+01  0.62184039918E+01  0.51100000000E-03 0. -1.
        -11    1    3    3    0    0 -0.17122495944E+02 -0.18303062196E+02 -0.16234307696E+02  0.29861927261E+02  0.51100000000E-03 0.  1.
        -12    1    3    3    0    0 -0.19107058689E+01 -0.14307109866E+02  0.64478395259E+00  0.14448527122E+02  0.00000000000E+00 0.  1.
</event>
<event>
 7    1  0.2991278E-011  0.5052886E+02  0.7816164E-02  0.1300439E+00
        -11   -1    0    0    0    0  0.00000000000E+00  0.00000000000E+00  0.45593999997E+02  0.45594000000E+02  0.51100000000E-03 0.  1.
         11   -1    0    0    0    0 -0.00000000000E+00 -0.00000000000E+00 -0.45593999997E+02  0.45594000000E+02  0.51100000000E-03 0. -1.
    9900012    2    1    2    0    0 -0.18145956648E+02 -0.84903488140E+01  0.35380844340E+02  0.50528856971E+02  0.29999991248E+02 0.  0.
         12    1    1    2    0    0  0.18145956648E+02  0.84903488140E+01 -0.35380844340E+02  0.40659143029E+02  0.00000000000E+00 0. -1.
         11    1    3    3    0    0 -0.18971575668E+01  0.75797067935E+01 -0.26950915306E+00  0.78181709723E+01  0.51100000000E-03 0. -1.
        -11    1    3    3    0    0 -0.21659718917E+01 -0.51703451458E+01  0.10363853421E+02  0.11782756942E+02  0.51100000000E-03 0.  1.
         12    1    3    3    0    0 -0.14082827189E+02 -0.10899710462E+02  0.25286500073E+02  0.30927929056E+02  0.00000000000E+00 0. -1.
</event>
<event>
 7    1  0.2991278E-011  0.5052888E+02  0.7816164E-02  0.1300439E+00
        -11   -1    0    0    0    0  0.00000000000E+00  0.00000000000E+00  0.45593999997E+02  0.45594000000E+02  0.51100000000E-03 0. -1.
         11   -1    0    0    0    0 -0.00000000000E+00 -0.00000000000E+00 -0.45593999997E+02  0.45594000000E+02  0.51100000000E-03 0.  1.
    9900012    2    1    2    0    0  0.17992731844E+02 -0.32733709878E+02 -0.16060205895E+02  0.50528875871E+02  0.30000048697E+02 0.  0.
         12    1    1    2    0    0 -0.17992731844E+02  0.32733709878E+02  0.16060205895E+02  0.40659124129E+02  0.00000000000E+00 0. -1.
         11    1    3    3    0    0  0.67550941442E+01  0.22751378401E+01  0.13858511634E+01  0.72614139667E+01  0.51100000000E-03 0. -1.
        -11    1    3    3    0    0  0.12370127472E+02 -0.31592013515E+02 -0.10620614748E+02  0.35550989149E+02  0.51100000000E-03 0.  1.
        -12    1    3    3    0    0 -0.11324897717E+01 -0.34168342029E+01 -0.68254423103E+01  0.77164727553E+01  0.00000000000E+00 0.  1.
</event>
<event>
 7    1  0.2991278E-011  0.5052885E+02  0.7816164E-02  0.1300439E+00
        -11   -1    0    0    0    0  0.00000000000E+00  0.00000000000E+00  0.45593999997E+02  0.45594000000E+02  0.51100000000E-03 0. -1.
         11   -1    0    0    0    0 -0.00000000000E+00 -0.00000000000E+00 -0.45593999997E+02  0.45594000000E+02  0.51100000000E-03 0.  1.
    9900012    2    1    2    0    0 -0.19775750437E+02 -0.26562749211E+02 -0.23590382672E+02  0.50528854588E+02  0.29999984005E+02 0.  0.
         12    1    1    2    0    0  0.19775750437E+02  0.26562749211E+02  0.23590382672E+02  0.40659145412E+02  0.00000000000E+00 0. -1.
         11    1    3    3    0    0 -0.85790324663E+00 -0.13872181791E+01  0.30651839830E+01  0.34721355630E+01  0.51100000000E-03 0. -1.
        -11    1    3    3    0    0 -0.12769697033E+02 -0.16561096829E+02 -0.29441452899E+02  0.36112798833E+02  0.51100000000E-03 0.  1.
        -12    1    3    3    0    0 -0.61481501573E+01 -0.86144342030E+01  0.27858862436E+01  0.10943920191E+02  0.00000000000E+00 0.  1.
</event>
<event>
 7    1  0.2991278E-011  0.5052886E+02  0.7816164E-02  0.1300439E+00
        -11   -1    0    0    0    0  0.00000000000E+00  0.00000000000E+00  0.45593999997E+02  0.45594000000E+02  0.51100000000E-03 0.  1.
         11   -1    0    0    0    0 -0.00000000000E+00 -0.00000000000E+00 -0.45593999997E+02  0.45594000000E+02  0.51100000000E-03 0. -1.
    9900012    2    1    2    0    0  0.26808432179E+02  0.29912513416E+02 -0.63019911427E+01  0.50528860965E+02  0.30000003388E+02 0.  0.
         12    1    1    2    0    0 -0.26808432179E+02 -0.29912513416E+02  0.63019911427E+01  0.40659139035E+02  0.00000000000E+00 0. -1.
         11    1    3    3    0    0  0.14995560769E+02  0.15594316053E+02  0.57012344944E+01  0.22373055468E+02  0.51100000000E-03 0. -1.
        -11    1    3    3    0    0 -0.13168641410E+01  0.25992855476E+01 -0.10032246000E+02  0.10446835722E+02  0.51100000000E-03 0.  1.
        -12    1    3    3    0    0  0.13129735551E+02  0.11718911815E+02 -0.19709796370E+01  0.17708969775E+02  0.00000000000E+00 0.  1.
</event>
<event>
 7    1  0.2991278E-011  0.5052886E+02  0.7816164E-02  0.1300439E+00
        -11   -1    0    0    0    0  0.00000000000E+00  0.00000000000E+00  0.45593999997E+02  0.45594000000E+02  0.51100000000E-03 0.  1.
         11   -1    0    0    0    0 -0.00000000000E+00 -0.00000000000E+00 -0.45593999997E+02  0.45594000000E+02  0.51100000000E-03 0. -1.
    9900012    2    1    2    0    0  0.22291057878E+02 -0.25374601881E+02 -0.22636340630E+02  0.50528860818E+02  0.30000002941E+02 0.  0.
         12    1    1    2    0    0 -0.22291057878E+02  0.25374601881E+02  0.22636340630E+02  0.40659139182E+02  0.00000000000E+00 0. -1.
         11    1    3    3    0    0  0.12945499569E+01  0.19232473779E+01 -0.52214366906E+01  0.57129800842E+01  0.51100000000E-03 0. -1.
        -11    1    3    3    0    0  0.24684144733E+02 -0.27390528337E+02 -0.18082232801E+02  0.41067203303E+02  0.51100000000E-03 0.  1.
        -12    1    3    3    0    0 -0.36876368123E+01  0.92679077501E-01  0.66732886177E+00  0.37486774309E+01  0.00000000000E+00 0.  1.
</event>
<event>
 7    1  0.2991278E-011  0.5052890E+02  0.7816164E-02  0.1300439E+00
        -11   -1    0    0    0    0  0.00000000000E+00  0.00000000000E+00  0.45593999997E+02  0.45594000000E+02  0.51100000000E-03 0.  1.
         11   -1    0    0    0    0 -0.00000000000E+00 -0.00000000000E+00 -0.45593999997E+02  0.45594000000E+02  0.51100000000E-03 0. -1.
    9900012    2    1    2    0    0  0.61029710821E+01 -0.33249880628E+02  0.22591179879E+02  0.50528902296E+02  0.30000129018E+02 0.  0.
         12    1    1    2    0    0 -0.61029710821E+01  0.33249880628E+02 -0.22591179879E+02  0.40659097704E+02  0.00000000000E+00 0. -1.
         11    1    3    3    0    0 -0.45416175973E+01 -0.23006018050E+02  0.22487255325E+02  0.32489687737E+02  0.51100000000E-03 0. -1.
        -11    1    3    3    0    0  0.56978195023E+01  0.88876493140E+00  0.87460042888E+00  0.58326646016E+01  0.51100000000E-03 0.  1.
        -12    1    3    3    0    0  0.49467691772E+01 -0.11132627510E+02 -0.77067587470E+00  0.12206549957E+02  0.00000000000E+00 0.  1.
</event>
<event>
 7    1  0.2991278E-011  0.5052886E+02  0.7816164E-02  0.1300439E+00
        -11   -1    0    0    0    0  0.00000000000E+00  0.00000000000E+00  0.45593999997E+02  0.45594000000E+02  0.51100000000E-03 0.  1.
         11   -1    0    0    0    0 -0.00000000000E+00 -0.00000000000E+00 -0.45593999997E+02  0.45594000000E+02  0.51100000000E-03 0. -1.
    9900012    2    1    2    0    0  0.11498410121E+02  0.28446298353E+02  0.26678841795E+02  0.50528856811E+02  0.29999990763E+02 0.  0.
         12    1    1    2    0    0 -0.11498410121E+02 -0.28446298353E+02 -0.26678841795E+02  0.40659143189E+02  0.00000000000E+00 0. -1.
         11    1    3    3    0    0  0.90602865805E+01  0.16818502214E+02  0.21629697043E+02  0.28858180887E+02  0.51100000000E-03 0.  1.
        -11    1    3    3    0    0 -0.64405812311E+01  0.48538965537E+01  0.65669810770E+01  0.10400319181E+02  0.51100000000E-03 0. -1.
         12    1    3    3    0    0  0.88787047712E+01  0.67738995855E+01 -0.15178363248E+01  0.11270356743E+02  0.00000000000E+00 0. -1.
</event>
<event>
 7    1  0.2991278E-011  0.5052886E+02  0.7816164E-02  0.1300439E+00
        -11   -1    0    0    0    0  0.00000000000E+00  0.00000000000E+00  0.45593999997E+02  0.45594000000E+02  0.51100000000E-03 0.  1.
         11   -1    0    0    0    0 -0.00000000000E+00 -0.00000000000E+00 -0.45593999997E+02  0.45594000000E+02  0.51100000000E-03 0. -1.
    9900012    2    1    2    0    0  0.10894781226E+02  0.36277259550E+02  0.14779366196E+02  0.50528862237E+02  0.30000007257E+02 0.  0.
         12    1    1    2    0    0 -0.10894781226E+02 -0.36277259550E+02 -0.14779366196E+02  0.40659137763E+02  0.00000000000E+00 0. -1.
         11    1    3    3    0    0  0.72245882501E+00 -0.17689487942E+01 -0.16699392266E+01  0.25376808058E+01  0.51100000000E-03 0. -1.
        -11    1    3    3    0    0  0.12003567169E+02  0.36186071187E+02  0.20412455556E+02  0.43245643883E+02  0.51100000000E-03 0.  1.
        -12    1    3    3    0    0 -0.18312447682E+01  0.18601371575E+01 -0.39631501337E+01  0.47455375489E+01  0.00000000000E+00 0.  1.
</event>
<event>
 7    1  0.2991278E-011  0.5052886E+02  0.7816164E-02  0.1300439E+00
        -11   -1    0    0    0    0  0.00000000000E+00  0.00000000000E+00  0.45593999997E+02  0.45594000000E+02  0.51100000000E-03 0. -1.
         11   -1    0    0    0    0 -0.00000000000E+00 -0.00000000000E+00 -0.45593999997E+02  0.45594000000E+02  0.51100000000E-03 0.  1.
    9900012    2    1    2    0    0  0.16737986540E+02 -0.36327675682E+02  0.73010555529E+01  0.50528860485E+02  0.30000001931E+02 0.  0.
         12    1    1    2    0    0 -0.16737986540E+02  0.36327675682E+02 -0.73010555529E+01  0.40659139515E+02  0.00000000000E+00 0. -1.
         11    1    3    3    0    0 -0.22448677257E+01 -0.38483808937E+01  0.66834460837E+01  0.80323046770E+01  0.51100000000E-03 0. -1.
        -11    1    3    3    0    0  0.15814767772E+02 -0.97212535089E+01 -0.41684083695E+01  0.19025910703E+02  0.51100000000E-03 0.  1.
         12    1    3    3    0    0  0.31680864932E+01 -0.22758041280E+02  0.47860178387E+01  0.23470645106E+02  0.00000000000E+00 0. -1.
</event>
<event>
 7    1  0.2991278E-011  0.5052885E+02  0.7816164E-02  0.1300439E+00
        -11   -1    0    0    0    0  0.00000000000E+00  0.00000000000E+00  0.45593999997E+02  0.45594000000E+02  0.51100000000E-03 0.  1.
         11   -1    0    0    0    0 -0.00000000000E+00 -0.00000000000E+00 -0.45593999997E+02  0.45594000000E+02  0.51100000000E-03 0. -1.
    9900012    2    1    2    0    0 -0.11317373945E+02  0.72226383563E+01  0.38378596344E+02  0.50528854471E+02  0.29999983649E+02 0.  0.
         12    1    1    2    0    0  0.11317373945E+02 -0.72226383563E+01 -0.38378596344E+02  0.40659145529E+02  0.00000000000E+00 0. -1.
         11    1    3    3    0    0 -0.11186487091E+02  0.17170889799E+01  0.30870960978E+02  0.32880117396E+02  0.51100000000E-03 0. -1.
        -11    1    3    3    0    0 -0.29856263226E+01  0.44127284814E+01 -0.34003905468E+01  0.63205057804E+01  0.51100000000E-03 0.  1.
        -12    1    3    3    0    0  0.28547394681E+01  0.10928208950E+01  0.10908025913E+02  0.11328231294E+02  0.00000000000E+00 0.  1.
</event>
<event>
 7    1  0.2991278E-011  0.5052886E+02  0.7816164E-02  0.1300439E+00
        -11   -1    0    0    0    0  0.00000000000E+00  0.00000000000E+00  0.45593999997E+02  0.45594000000E+02  0.51100000000E-03 0.  1.
         11   -1    0    0    0    0 -0.00000000000E+00 -0.00000000000E+00 -0.45593999997E+02  0.45594000000E+02  0.51100000000E-03 0. -1.
    9900012    2    1    2    0    0  0.28466284190E+02  0.28371559708E+02  0.61555561838E+01  0.50528860710E+02  0.30000002615E+02 0.  0.
         12    1    1    2    0    0 -0.28466284190E+02 -0.28371559708E+02 -0.61555561838E+01  0.40659139290E+02  0.00000000000E+00 0. -1.
         11    1    3    3    0    0  0.14846684705E+02  0.86341898058E+01 -0.96156432329E+01  0.19683340046E+02  0.51100000000E-03 0. -1.
        -11    1    3    3    0    0 -0.90520067340E+00  0.72088123690E+01  0.34094398740E+01  0.80256242465E+01  0.51100000000E-03 0.  1.
         12    1    3    3    0    0  0.14524800158E+02  0.12528557533E+02  0.12361759543E+02  0.22819896417E+02  0.00000000000E+00 0. -1.
</event>
<event>
 7    1  0.2991278E-011  0.5052887E+02  0.7816164E-02  0.1300439E+00
        -11   -1    0    0    0    0  0.00000000000E+00  0.00000000000E+00  0.45593999997E+02  0.45594000000E+02  0.51100000000E-03 0.  1.
         11   -1    0    0    0    0 -0.00000000000E+00 -0.00000000000E+00 -0.45593999997E+02  0.45594000000E+02  0.51100000000E-03 0. -1.
    9900012    2    1    2    0    0 -0.36258943884E+02  0.15295501027E+02 -0.10222614508E+02  0.50528865595E+02  0.30000017461E+02 0.  0.
         12    1    1    2    0    0  0.36258943884E+02 -0.15295501027E+02  0.10222614508E+02  0.40659134405E+02  0.00000000000E+00 0. -1.
         11    1    3    3    0    0 -0.16690354946E+02 -0.18846258628E+01 -0.99395880901E+01  0.19517048305E+02  0.51100000000E-03 0. -1.
        -11    1    3    3    0    0 -0.14174174826E+02  0.16301418338E+02 -0.66674562364E+01  0.22607486476E+02  0.51100000000E-03 0.  1.
         12    1    3    3    0    0 -0.53944141120E+01  0.87870855143E+00  0.63844298183E+01  0.84043308142E+01  0.00000000000E+00 0. -1.
</event>
<event>
 7    1  0.2991278E-011  0.5052885E+02  0.7816164E-02  0.1300439E+00
        -11   -1    0    0    0    0  0.00000000000E+00  0.00000000000E+00  0.45593999997E+02  0.45594000000E+02  0.51100000000E-03 0. -1.
         11   -1    0    0    0    0 -0.00000000000E+00 -0.00000000000E+00 -0.45593999997E+02  0.45594000000E+02  0.51100000000E-03 0.  1.
    9900012    2    1    2    0    0 -0.27211657940E+02  0.10949399410E+02 -0.28156754069E+02  0.50528850046E+02  0.29999970199E+02 0.  0.
         12    1    1    2    0    0  0.27211657940E+02 -0.10949399410E+02  0.28156754069E+02  0.40659149954E+02  0.00000000000E+00 0. -1.
         11    1    3    3    0    0 -0.10358422990E+02  0.98855461328E+01 -0.51221789743E+00  0.14327711493E+02  0.51100000000E-03 0. -1.
        -11    1    3    3    0    0 -0.13177718919E+02 -0.55352653275E+01 -0.11386881565E+02  0.18274367573E+02  0.51100000000E-03 0.  1.
         12    1    3    3    0    0 -0.36755160309E+01  0.65991186043E+01 -0.16257654607E+02  0.17926770980E+02  0.00000000000E+00 0. -1.
</event>
<event>
 7    1  0.2991278E-011  0.5052884E+02  0.7816164E-02  0.1300439E+00
        -11   -1    0    0    0    0  0.00000000000E+00  0.00000000000E+00  0.45593999997E+02  0.45594000000E+02  0.51100000000E-03 0.  1.
         11   -1    0    0    0    0 -0.00000000000E+00 -0.00000000000E+00 -0.45593999997E+02  0.45594000000E+02  0.51100000000E-03 0. -1.
    9900012    2    1    2    0    0  0.30948938061E+02 -0.97960790827E+01  0.24481982099E+02  0.50528838916E+02  0.29999936370E+02 0.  0.
         12    1    1    2    0    0 -0.30948938061E+02  0.97960790827E+01 -0.24481982099E+02  0.40659161084E+02  0.00000000000E+00 0. -1.
         11    1    3    3    0    0  0.36269780276E+01  0.73554024450E+01 -0.32611666979E+00  0.82075128440E+01  0.51100000000E-03 0. -1.
        -11    1    3    3    0    0  0.28445838464E+02 -0.16635023111E+02  0.23237113913E+02  0.40321869786E+02  0.51100000000E-03 0.  1.
        -12    1    3    3    0    0 -0.11238784300E+01 -0.51645841664E+00  0.15709848559E+01  0.19994562859E+01  0.00000000000E+00 0.  1.
</event>
<event>
 7    1  0.2991278E-011  0.5052887E+02  0.7816164E-02  0.1300439E+00
        -11   -1    0    0    0    0  0.00000000000E+00  0.00000000000E+00  0.45593999997E+02  0.45594000000E+02  0.51100000000E-03 0.  1.
         11   -1    0    0    0    0 -0.00000000000E+00 -0.00000000000E+00 -0.45593999997E+02  0.45594000000E+02  0.51100000000E-03 0. -1.
    9900012    2    1    2    0    0 -0.21328115422E+02 -0.34608888825E+02  0.70810740958E+00  0.50528866841E+02  0.30000021249E+02 0.  0.
         12    1    1    2    0    0  0.21328115422E+02  0.34608888825E+02 -0.70810740958E+00  0.40659133159E+02  0.00000000000E+00 0. -1.
         11    1    3    3    0    0  0.54029890947E+01 -0.20902919817E+01 -0.22914538780E+01  0.62299576935E+01  0.51100000000E-03 0. -1.
        -11    1    3    3    0    0 -0.28000672107E+02 -0.32320148499E+02  0.22732418175E+01  0.42822859153E+02  0.51100000000E-03 0.  1.
        -12    1    3    3    0    0  0.12695675906E+01 -0.19844834486E+00  0.72631947010E+00  0.14760499942E+01  0.00000000000E+00 0.  1.
</event>
<event>
 7    1  0.2991278E-011  0.5052886E+02  0.7816164E-02  0.1300439E+00
        -11   -1    0    0    0    0  0.00000000000E+00  0.00000000000E+00  0.45593999997E+02  0.45594000000E+02  0.51100000000E-03 0.  1.
         11   -1    0    0    0    0 -0.00000000000E+00 -0.00000000000E+00 -0.45593999997E+02  0.45594000000E+02  0.51100000000E-03 0. -1.
    9900012    2    1    2    0    0 -0.12979532332E+02 -0.28386831737E+02  0.26055419222E+02  0.50528863924E+02  0.30000012383E+02 0.  0.
         12    1    1    2    0    0  0.12979532332E+02  0.28386831737E+02 -0.26055419222E+02  0.40659136076E+02  0.00000000000E+00 0. -1.
         11    1    3    3    0    0  0.79834930107E+01 -0.17725686623E+02  0.11135738525E+02  0.22404035343E+02  0.51100000000E-03 0. -1.
        -11    1    3    3    0    0 -0.67281798670E+01 -0.54134247186E+01  0.61439907703E+01  0.10598216565E+02  0.51100000000E-03 0.  1.
         12    1    3    3    0    0 -0.14234845476E+02 -0.52477203958E+01  0.87756899267E+01  0.17526612016E+02  0.00000000000E+00 0. -1.
</event>
<event>
 7    1  0.2991278E-011  0.5052885E+02  0.7816164E-02  0.1300439E+00
        -11   -1    0    0    0    0  0.00000000000E+00  0.00000000000E+00  0.45593999997E+02  0.45594000000E+02  0.51100000000E-03 0.  1.
         11   -1    0    0    0    0 -0.00000000000E+00 -0.00000000000E+00 -0.45593999997E+02  0.45594000000E+02  0.51100000000E-03 0. -1.
    9900012    2    1    2    0    0  0.36770899064E+02  0.11820098665E+02  0.12702459721E+02  0.50528853017E+02  0.29999979231E+02 0.  0.
         12    1    1    2    0    0 -0.36770899064E+02 -0.11820098665E+02 -0.12702459721E+02  0.40659146983E+02  0.00000000000E+00 0. -1.
         11    1    3    3    0    0  0.11289443726E+02 -0.19805240507E+00 -0.70148997370E+01  0.13292839538E+02  0.51100000000E-03 0. -1.
        -11    1    3    3    0    0  0.24188253439E+02  0.80194002695E+01  0.11399038848E+02  0.27916311935E+02  0.51100000000E-03 0.  1.
         12    1    3    3    0    0  0.12932018988E+01  0.39987508010E+01  0.83183206096E+01  0.93197015448E+01  0.00000000000E+00 0. -1.
</event>
<event>
 7    1  0.3996252E-011  0.5052893E+02  0.7816164E-02  0.1300439E+00
        -11   -1    0    0    0    0  0.00000000000E+00  0.00000000000E+00  0.45593999997E+02  0.45594000000E+02  0.51100000000E-03 0. -1.
         11   -1    0    0    0    0 -0.00000000000E+00 -0.00000000000E+00 -0.45593999997E+02  0.45594000000E+02  0.51100000000E-03 0.  1.
    9900012    2    1    2    0    0  0.18681459942E+02 -0.18216305966E+02 -0.31182195345E+02  0.50528928993E+02  0.30000210167E+02 0.  0.
         12    1    1    2    0    0 -0.18681459942E+02  0.18216305966E+02  0.31182195345E+02  0.40659071007E+02  0.00000000000E+00 0. -1.
         11    1    3    3    0    0  0.65025152806E-01  0.56535791223E+01 -0.93688253096E+01  0.10942672119E+02  0.51100000000E-03 0. -1.
        -11    1    3    3    0    0  0.12766397711E+02 -0.10205692905E+02 -0.17851320533E+02  0.24203444449E+02  0.51100000000E-03 0.  1.
         12    1    3    3    0    0  0.58500370783E+01 -0.13664192183E+02 -0.39620495028E+01  0.15382812425E+02  0.00000000000E+00 0. -1.
</event>
<event>
 7    1  0.2991278E-011  0.5052885E+02  0.7816164E-02  0.1300439E+00
        -11   -1    0    0    0    0  0.00000000000E+00  0.00000000000E+00  0.45593999997E+02  0.45594000000E+02  0.51100000000E-03 0.  1.
         11   -1    0    0    0    0 -0.00000000000E+00 -0.00000000000E+00 -0.45593999997E+02  0.45594000000E+02  0.51100000000E-03 0. -1.
    9900012    2    1    2    0    0 -0.35533321864E+01 -0.16056743534E+02  0.37184960557E+02  0.50528850056E+02  0.29999970230E+02 0.  0.
         12    1    1    2    0    0  0.35533321864E+01  0.16056743534E+02 -0.37184960557E+02  0.40659149944E+02  0.00000000000E+00 0. -1.
         11    1    3    3    0    0 -0.89062859282E+01 -0.72567102367E+01  0.99060453056E+01  0.15169426698E+02  0.51100000000E-03 0. -1.
        -11    1    3    3    0    0  0.56878054554E+01  0.39689389154E+01  0.18772699652E+02  0.20012942300E+02  0.51100000000E-03 0.  1.
        -12    1    3    3    0    0 -0.33485171371E+00 -0.12768972213E+02  0.85062155992E+01  0.15346481058E+02  0.00000000000E+00 0.  1.
</event>
<event>
 7    1  0.2991278E-011  0.5052886E+02  0.7816164E-02  0.1300439E+00
        -11   -1    0    0    0    0  0.00000000000E+00  0.00000000000E+00  0.45593999997E+02  0.45594000000E+02  0.51100000000E-03 0.  1.
         11   -1    0    0    0    0 -0.00000000000E+00 -0.00000000000E+00 -0.45593999997E+02  0.45594000000E+02  0.51100000000E-03 0. -1.
    9900012    2    1    2    0    0 -0.23234337535E+02  0.28060517776E+02  0.18053775592E+02  0.50528856974E+02  0.29999991257E+02 0.  0.
         12    1    1    2    0    0  0.23234337535E+02 -0.28060517776E+02 -0.18053775592E+02  0.40659143026E+02  0.00000000000E+00 0. -1.
         11    1    3    3    0    0 -0.94673341749E+01  0.22783810172E+02  0.44782386203E+01  0.25075626487E+02  0.51100000000E-03 0. -1.
        -11    1    3    3    0    0 -0.14952904398E+02  0.75725488515E+01  0.15008366269E+02  0.22498531161E+02  0.51100000000E-03 0.  1.
         12    1    3    3    0    0  0.11859010384E+01 -0.22958412475E+01 -0.14328292980E+01  0.29546993254E+01  0.00000000000E+00 0. -1.
</event>
<event>
 7    1  0.2991278E-011  0.5052886E+02  0.7816164E-02  0.1300439E+00
        -11   -1    0    0    0    0  0.00000000000E+00  0.00000000000E+00  0.45593999997E+02  0.45594000000E+02  0.51100000000E-03 0.  1.
         11   -1    0    0    0    0 -0.00000000000E+00 -0.00000000000E+00 -0.45593999997E+02  0.45594000000E+02  0.51100000000E-03 0. -1.
    9900012    2    1    2    0    0 -0.72618540433E+01 -0.13094648226E+02  0.37801604938E+02  0.50528859918E+02  0.30000000207E+02 0.  0.
         12    1    1    2    0    0  0.72618540433E+01  0.13094648226E+02 -0.37801604938E+02  0.40659140082E+02  0.00000000000E+00 0. -1.
         11    1    3    3    0    0  0.25658246014E+01 -0.15919335128E+02  0.29112668470E+02  0.33279966234E+02  0.51100000000E-03 0. -1.
        -11    1    3    3    0    0 -0.10029986958E+01  0.38497842322E+01 -0.10014774459E+01  0.41024142104E+01  0.51100000000E-03 0.  1.
        -12    1    3    3    0    0 -0.88246799489E+01 -0.10250973306E+01  0.96904139136E+01  0.13146479474E+02  0.00000000000E+00 0.  1.
</event>
<event>
 7    1  0.2991278E-011  0.5052885E+02  0.7816164E-02  0.1300439E+00
        -11   -1    0    0    0    0  0.00000000000E+00  0.00000000000E+00  0.45593999997E+02  0.45594000000E+02  0.51100000000E-03 0. -1.
         11   -1    0    0    0    0 -0.00000000000E+00 -0.00000000000E+00 -0.45593999997E+02  0.45594000000E+02  0.51100000000E-03 0.  1.
    9900012    2    1    2    0    0  0.13510565728E+02  0.35128107510E+02  0.15383331639E+02  0.50528853233E+02  0.29999979886E+02 0.  0.
         12    1    1    2    0    0 -0.13510565728E+02 -0.35128107510E+02 -0.15383331639E+02  0.40659146767E+02  0.00000000000E+00 0. -1.
         11    1    3    3    0    0  0.64814469198E+01  0.10482473271E+01 -0.99031636134E+00  0.66399324838E+01  0.51100000000E-03 0. -1.
        -11    1    3    3    0    0  0.93862943480E+00  0.31350968813E+02  0.65965957102E+01  0.32051198823E+02  0.51100000000E-03 0.  1.
        -12    1    3    3    0    0  0.60904893734E+01  0.27288913698E+01  0.97770522901E+01  0.11837721926E+02  0.00000000000E+00 0.  1.
</event>
<event>
 7    1  0.2991278E-011  0.5052887E+02  0.7816164E-02  0.1300439E+00
        -11   -1    0    0    0    0  0.00000000000E+00  0.00000000000E+00  0.45593999997E+02  0.45594000000E+02  0.51100000000E-03 0. -1.
         11   -1    0    0    0    0 -0.00000000000E+00 -0.00000000000E+00 -0.45593999997E+02  0.45594000000E+02  0.51100000000E-03 0.  1.
    9900012    2    1    2    0    0  0.26440513735E+02 -0.30378021099E+02 -0.55892708563E+01  0.50528869646E+02  0.30000029775E+02 0.  0.
         12    1    1    2    0    0 -0.26440513735E+02  0.30378021099E+02  0.55892708563E+01  0.40659130354E+02  0.00000000000E+00 0. -1.
         11    1    3    3    0    0 -0.24393079563E+01 -0.39695873104E+01  0.42251031443E+01  0.62896218934E+01  0.51100000000E-03 0. -1.
        -11    1    3    3    0    0  0.18408172212E+02 -0.26907646856E+02 -0.83475518415E+01  0.33653586518E+02  0.51100000000E-03 0.  1.
         12    1    3    3    0    0  0.10471649480E+02  0.49921306816E+00 -0.14668221591E+01  0.10585661234E+02  0.00000000000E+00 0. -1.
</event>
<event>
 7    1  0.2991278E-011  0.5052887E+02  0.7816164E-02  0.1300439E+00
        -11   -1    0    0    0    0  0.00000000000E+00  0.00000000000E+00  0.45593999997E+02  0.45594000000E+02  0.51100000000E-03 0. -1.
         11   -1    0    0    0    0 -0.00000000000E+00 -0.00000000000E+00 -0.45593999997E+02  0.45594000000E+02  0.51100000000E-03 0.  1.
    9900012    2    1    2    0    0  0.16720894847E+02  0.11795575855E+02 -0.35134613726E+02  0.50528867989E+02  0.30000024739E+02 0.  0.
         12    1    1    2    0    0 -0.16720894847E+02 -0.11795575855E+02  0.35134613726E+02  0.40659132011E+02  0.00000000000E+00 0. -1.
         11    1    3    3    0    0  0.10553229006E+02  0.52628386133E+01 -0.24529664947E+01  0.12045130037E+02  0.51100000000E-03 0. -1.
        -11    1    3    3    0    0  0.98376864259E+00 -0.21878278345E+01 -0.26490344719E+02  0.26598735966E+02  0.51100000000E-03 0.  1.
        -12    1    3    3    0    0  0.51838971988E+01  0.87205650763E+01 -0.61913025117E+01  0.11885001986E+02  0.00000000000E+00 0.  1.
</event>
<event>
 7    1  0.2991278E-011  0.5052886E+02  0.7816164E-02  0.1300439E+00
        -11   -1    0    0    0    0  0.00000000000E+00  0.00000000000E+00  0.45593999997E+02  0.45594000000E+02  0.51100000000E-03 0. -1.
         11   -1    0    0    0    0 -0.00000000000E+00 -0.00000000000E+00 -0.45593999997E+02  0.45594000000E+02  0.51100000000E-03 0.  1.
    9900012    2    1    2    0    0 -0.80603269375E+01 -0.29049346063E+02 -0.27282448129E+02  0.50528863844E+02  0.30000012140E+02 0.  0.
         12    1    1    2    0    0  0.80603269375E+01  0.29049346063E+02  0.27282448129E+02  0.40659136156E+02  0.00000000000E+00 0. -1.
         11    1    3    3    0    0 -0.12877100386E+02 -0.12365214078E+02 -0.24127731868E+02  0.30014424514E+02  0.51100000000E-03 0. -1.
        -11    1    3    3    0    0  0.26022242570E+01 -0.14097937176E+02 -0.65003657930E+01  0.15740970727E+02  0.51100000000E-03 0.  1.
         12    1    3    3    0    0  0.22145491915E+01 -0.25861948086E+01  0.33456495324E+01  0.47734686030E+01  0.00000000000E+00 0. -1.
</event>
<event>
 7    1  0.2991278E-011  0.5052887E+02  0.7816164E-02  0.1300439E+00
        -11   -1    0    0    0    0  0.00000000000E+00  0.00000000000E+00  0.45593999997E+02  0.45594000000E+02  0.51100000000E-03 0.  1.
         11   -1    0    0    0    0 -0.00000000000E+00 -0.00000000000E+00 -0.45593999997E+02  0.45594000000E+02  0.51100000000E-03 0. -1.
    9900012    2    1    2    0    0  0.10364283077E+02 -0.36771919125E+02  0.13913038258E+02  0.50528867774E+02  0.30000024085E+02 0.  0.
         12    1    1    2    0    0 -0.10364283077E+02  0.36771919125E+02 -0.13913038258E+02  0.40659132226E+02  0.00000000000E+00 0. -1.
         11    1    3    3    0    0 -0.13864609557E+01 -0.15181223295E+01 -0.39571141886E+01  0.44593410221E+01  0.51100000000E-03 0. -1.
        -11    1    3    3    0    0  0.14101630112E+02 -0.34342340399E+02  0.20514498973E+02  0.42415763394E+02  0.51100000000E-03 0.  1.
        -12    1    3    3    0    0 -0.23508860793E+01 -0.91145639596E+00 -0.26443465268E+01  0.36537633576E+01  0.00000000000E+00 0.  1.
</event>
<event>
 7    1  0.2991278E-011  0.5052886E+02  0.7816164E-02  0.1300439E+00
        -11   -1    0    0    0    0  0.00000000000E+00  0.00000000000E+00  0.45593999997E+02  0.45594000000E+02  0.51100000000E-03 0.  1.
         11   -1    0    0    0    0 -0.00000000000E+00 -0.00000000000E+00 -0.45593999997E+02  0.45594000000E+02  0.51100000000E-03 0. -1.
    9900012    2    1    2    0    0  0.27580132437E+02  0.17950124319E+01  0.29820793554E+02  0.50528861998E+02  0.30000006529E+02 0.  0.
         12    1    1    2    0    0 -0.27580132437E+02 -0.17950124319E+01 -0.29820793554E+02  0.40659138002E+02  0.00000000000E+00 0. -1.
         11    1    3    3    0    0  0.30009116119E+01  0.13217172791E+01 -0.25505932317E+01  0.41542668622E+01  0.51100000000E-03 0. -1.
        -11    1    3    3    0    0  0.19304430502E+02 -0.42651575787E+01  0.33785133022E+02  0.39144448134E+02  0.51100000000E-03 0.  1.
        -12    1    3    3    0    0  0.52747903234E+01  0.47384527315E+01 -0.14137462358E+01  0.72301470015E+01  0.00000000000E+00 0.  1.
</event>
<event>
 7    1  0.2991278E-011  0.5052886E+02  0.7816164E-02  0.1300439E+00
        -11   -1    0    0    0    0  0.00000000000E+00  0.00000000000E+00  0.45593999997E+02  0.45594000000E+02  0.51100000000E-03 0. -1.
         11   -1    0    0    0    0 -0.00000000000E+00 -0.00000000000E+00 -0.45593999997E+02  0.45594000000E+02  0.51100000000E-03 0.  1.
    9900012    2    1    2    0    0  0.19286129728E+02 -0.26099038711E+01 -0.35698733326E+02  0.50528856389E+02  0.29999989481E+02 0.  0.
         12    1    1    2    0    0 -0.19286129728E+02  0.26099038711E+01  0.35698733326E+02  0.40659143611E+02  0.00000000000E+00 0. -1.
         11    1    3    3    0    0 -0.12723884680E+01 -0.73349904359E+01 -0.73929904517E+00  0.74811510108E+01  0.51100000000E-03 0. -1.
        -11    1    3    3    0    0  0.15421373355E+02  0.33848496929E+01 -0.12988698171E+02  0.20444614059E+02  0.51100000000E-03 0.  1.
         12    1    3    3    0    0  0.51371448412E+01  0.13402368718E+01 -0.21970736109E+02  0.22603091319E+02  0.00000000000E+00 0. -1.
</event>
<event>
 7    1  0.2991278E-011  0.5052886E+02  0.7816164E-02  0.1300439E+00
        -11   -1    0    0    0    0  0.00000000000E+00  0.00000000000E+00  0.45593999997E+02  0.45594000000E+02  0.51100000000E-03 0. -1.
         11   -1    0    0    0    0 -0.00000000000E+00 -0.00000000000E+00 -0.45593999997E+02  0.45594000000E+02  0.51100000000E-03 0.  1.
    9900012    2    1    2    0    0  0.11486710733E+02  0.38934097169E+02 -0.23146138901E+01  0.50528857322E+02  0.29999992317E+02 0.  0.
         12    1    1    2    0    0 -0.11486710733E+02 -0.38934097169E+02  0.23146138901E+01  0.40659142678E+02  0.00000000000E+00 0. -1.
         11    1    3    3    0    0  0.91127100385E+01  0.67926720075E+01  0.79463352214E+01  0.13868169344E+02  0.51100000000E-03 0. -1.
        -11    1    3    3    0    0  0.53610178285E-01  0.28035306553E+02 -0.13320368153E+02  0.31038902937E+02  0.51100000000E-03 0.  1.
        -12    1    3    3    0    0  0.23203905161E+01  0.41061186083E+01  0.30594190415E+01  0.56217850407E+01  0.00000000000E+00 0.  1.
</event>
<event>
 7    1  0.2991278E-011  0.5052886E+02  0.7816164E-02  0.1300439E+00
        -11   -1    0    0    0    0  0.00000000000E+00  0.00000000000E+00  0.45593999997E+02  0.45594000000E+02  0.51100000000E-03 0. -1.
         11   -1    0    0    0    0 -0.00000000000E+00 -0.00000000000E+00 -0.45593999997E+02  0.45594000000E+02  0.51100000000E-03 0.  1.
    9900012    2    1    2    0    0 -0.33793542260E+02  0.16235425454E+02 -0.15734468036E+02  0.50528855610E+02  0.29999987111E+02 0.  0.
         12    1    1    2    0    0  0.33793542260E+02 -0.16235425454E+02  0.15734468036E+02  0.40659144390E+02  0.00000000000E+00 0. -1.
         11    1    3    3    0    0 -0.10819128163E+01  0.73054397762E+00  0.10359747633E+01  0.16665754758E+01  0.51100000000E-03 0. -1.
        -11    1    3    3    0    0 -0.16263688207E+02 -0.61570114747E+01 -0.99248564157E+00  0.17418420491E+02  0.51100000000E-03 0.  1.
        -12    1    3    3    0    0 -0.16447941237E+02  0.21661892951E+02 -0.15777957158E+02  0.31443859643E+02  0.00000000000E+00 0.  1.
</event>
<event>
 7    1  0.2991278E-011  0.5052882E+02  0.7816164E-02  0.1300439E+00
        -11   -1    0    0    0    0  0.00000000000E+00  0.00000000000E+00  0.45593999997E+02  0.45594000000E+02  0.51100000000E-03 0. -1.
         11   -1    0    0    0    0 -0.00000000000E+00 -0.00000000000E+00 -0.45593999997E+02  0.45594000000E+02  0.51100000000E-03 0.  1.
    9900012    2    1    2    0    0 -0.39331143375E+02 -0.88215969794E+01  0.53300797795E+01  0.50528816992E+02  0.29999869727E+02 0.  0.
         12    1    1    2    0    0  0.39331143375E+02  0.88215969794E+01 -0.53300797795E+01  0.40659183008E+02  0.00000000000E+00 0. -1.
         11    1    3    3    0    0 -0.77007638513E+01  0.68029500025E+01  0.49303621309E+01  0.11396945364E+02  0.51100000000E-03 0. -1.
        -11    1    3    3    0    0 -0.18496486268E+02 -0.16241233199E+02  0.51568904584E+01  0.25149377319E+02  0.51100000000E-03 0.  1.
        -12    1    3    3    0    0 -0.13133893255E+02  0.61668621691E+00 -0.47571728099E+01  0.13982494308E+02  0.00000000000E+00 0.  1.
</event>
<event>
 7    1  0.2991278E-011  0.5052887E+02  0.7816164E-02  0.1300439E+00
        -11   -1    0    0    0    0  0.00000000000E+00  0.00000000000E+00  0.45593999997E+02  0.45594000000E+02  0.51100000000E-03 0.  1.
         11   -1    0    0    0    0 -0.00000000000E+00 -0.00000000000E+00 -0.45593999997E+02  0.45594000000E+02  0.51100000000E-03 0. -1.
    9900012    2    1    2    0    0 -0.77053636260E+01  0.36566383709E+02  0.16021602894E+02  0.50528870577E+02  0.30000032605E+02 0.  0.
         12    1    1    2    0    0  0.77053636260E+01 -0.36566383709E+02 -0.16021602894E+02  0.40659129423E+02  0.00000000000E+00 0. -1.
         11    1    3    3    0    0 -0.73954671155E+01  0.74802589390E+01 -0.27411846443E+01  0.10870202444E+02  0.51100000000E-03 0. -1.
        -11    1    3    3    0    0  0.70628019070E+01  0.19848366316E+02  0.52608627225E+01  0.21714453552E+02  0.51100000000E-03 0.  1.
        -12    1    3    3    0    0 -0.73726984174E+01  0.92377584537E+01  0.13501924816E+02  0.17944214581E+02  0.00000000000E+00 0.  1.
</event>
<event>
 7    1  0.2991278E-011  0.5052884E+02  0.7816164E-02  0.1300439E+00
        -11   -1    0    0    0    0  0.00000000000E+00  0.00000000000E+00  0.45593999997E+02  0.45594000000E+02  0.51100000000E-03 0.  1.
         11   -1    0    0    0    0 -0.00000000000E+00 -0.00000000000E+00 -0.45593999997E+02  0.45594000000E+02  0.51100000000E-03 0. -1.
    9900012    2    1    2    0    0  0.21215043183E+02  0.19424135998E+02  0.28736596236E+02  0.50528842609E+02  0.29999947593E+02 0.  0.
         12    1    1    2    0    0 -0.21215043183E+02 -0.19424135998E+02 -0.28736596236E+02  0.40659157391E+02  0.00000000000E+00 0. -1.
         11    1    3    3    0    0  0.62005816723E+00  0.14638113800E+02  0.15573279724E+02  0.21381905654E+02  0.51100000000E-03 0. -1.
        -11    1    3    3    0    0  0.13919821968E+02  0.22703375783E+01  0.16125342044E+02  0.21422944071E+02  0.51100000000E-03 0.  1.
         12    1    3    3    0    0  0.66751630480E+01  0.25156846193E+01 -0.29620255325E+01  0.77239928843E+01  0.00000000000E+00 0. -1.
</event>
<event>
 7    1  0.2991278E-011  0.5052886E+02  0.7816164E-02  0.1300439E+00
        -11   -1    0    0    0    0  0.00000000000E+00  0.00000000000E+00  0.45593999997E+02  0.45594000000E+02  0.51100000000E-03 0.  1.
         11   -1    0    0    0    0 -0.00000000000E+00 -0.00000000000E+00 -0.45593999997E+02  0.45594000000E+02  0.51100000000E-03 0. -1.
    9900012    2    1    2    0    0 -0.28304948590E+01 -0.10804280860E+02  0.39095032050E+02  0.50528859367E+02  0.29999998530E+02 0.  0.
         12    1    1    2    0    0  0.28304948590E+01  0.10804280860E+02 -0.39095032050E+02  0.40659140633E+02  0.00000000000E+00 0. -1.
         11    1    3    3    0    0 -0.12119143299E+02 -0.71796453996E+01  0.18523028573E+02  0.23270658137E+02  0.51100000000E-03 0. -1.
        -11    1    3    3    0    0  0.58327672886E+01  0.23364130937E+01  0.19240346533E+02  0.20240329429E+02  0.51100000000E-03 0.  1.
        -12    1    3    3    0    0  0.34558811517E+01 -0.59610485537E+01  0.13316569440E+01  0.70178718007E+01  0.00000000000E+00 0.  1.
</event>
<event>
 7    1  0.2991278E-011  0.5052886E+02  0.7816164E-02  0.1300439E+00
        -11   -1    0    0    0    0  0.00000000000E+00  0.00000000000E+00  0.45593999997E+02  0.45594000000E+02  0.51100000000E-03 0.  1.
         11   -1    0    0    0    0 -0.00000000000E+00 -0.00000000000E+00 -0.45593999997E+02  0.45594000000E+02  0.51100000000E-03 0. -1.
    9900012    2    1    2    0    0 -0.16044202102E+02 -0.41103401945E+01  0.37132926703E+02  0.50528861259E+02  0.30000004284E+02 0.  0.
         12    1    1    2    0    0  0.16044202102E+02  0.41103401945E+01 -0.37132926703E+02  0.40659138741E+02  0.00000000000E+00 0. -1.
         11    1    3    3    0    0  0.40393785067E+01 -0.31853951390E+01  0.12976167594E+02  0.13958662063E+02  0.51100000000E-03 0. -1.
        -11    1    3    3    0    0 -0.15170887960E+02 -0.84295139367E+01  0.10669835676E+02  0.20372970827E+02  0.51100000000E-03 0.  1.
        -12    1    3    3    0    0 -0.49126926487E+01  0.75045688812E+01  0.13486923433E+02  0.16197228369E+02  0.00000000000E+00 0.  1.
</event>
<event>
 7    1  0.2991278E-011  0.5052892E+02  0.7816164E-02  0.1300439E+00
        -11   -1    0    0    0    0  0.00000000000E+00  0.00000000000E+00  0.45593999997E+02  0.45594000000E+02  0.51100000000E-03 0.  1.
         11   -1    0    0    0    0 -0.00000000000E+00 -0.00000000000E+00 -0.45593999997E+02  0.45594000000E+02  0.51100000000E-03 0. -1.
    9900012    2    1    2    0    0 -0.14937893897E+01 -0.13037574061E+02  0.38483131719E+02  0.50528915271E+02  0.30000168457E+02 0.  0.
         12    1    1    2    0    0  0.14937893897E+01  0.13037574061E+02 -0.38483131719E+02  0.40659084729E+02  0.00000000000E+00 0. -1.
         11    1    3    3    0    0  0.67617689614E+01 -0.13823337927E+01  0.35870718246E+01  0.77781392851E+01  0.51100000000E-03 0. -1.
        -11    1    3    3    0    0 -0.86194368686E+01 -0.88310867176E+01  0.37132929648E+02  0.39129748901E+02  0.51100000000E-03 0.  1.
        -12    1    3    3    0    0  0.36387851760E+00 -0.28241535504E+01 -0.22368697543E+01  0.36210270849E+01  0.00000000000E+00 0.  1.
</event>
<event>
 7    1  0.2991278E-011  0.5052886E+02  0.7816164E-02  0.1300439E+00
        -11   -1    0    0    0    0  0.00000000000E+00  0.00000000000E+00  0.45593999997E+02  0.45594000000E+02  0.51100000000E-03 0.  1.
         11   -1    0    0    0    0 -0.00000000000E+00 -0.00000000000E+00 -0.45593999997E+02  0.45594000000E+02  0.51100000000E-03 0. -1.
    9900012    2    1    2    0    0 -0.18727724955E+01  0.82684986214E+01  0.39765440507E+02  0.50528860745E+02  0.30000002719E+02 0.  0.
         12    1    1    2    0    0  0.18727724955E+01 -0.82684986214E+01 -0.39765440507E+02  0.40659139255E+02  0.00000000000E+00 0. -1.
         11    1    3    3    0    0  0.62124356993E+01  0.14433453497E+02  0.33561406153E+02  0.37057886076E+02  0.51100000000E-03 0. -1.
        -11    1    3    3    0    0 -0.66509841706E+01 -0.64945299947E+01  0.71447245876E+01  0.11724401903E+02  0.51100000000E-03 0.  1.
        -12    1    3    3    0    0 -0.14342240243E+01  0.32957511915E+00 -0.94069023366E+00  0.17465727659E+01  0.00000000000E+00 0.  1.
</event>
<event>
 7    1  0.2991278E-011  0.5052885E+02  0.7816164E-02  0.1300439E+00
        -11   -1    0    0    0    0  0.00000000000E+00  0.00000000000E+00  0.45593999997E+02  0.45594000000E+02  0.51100000000E-03 0. -1.
         11   -1    0    0    0    0 -0.00000000000E+00 -0.00000000000E+00 -0.45593999997E+02  0.45594000000E+02  0.51100000000E-03 0.  1.
    9900012    2    1    2    0    0  0.15680946194E+02 -0.14346316995E+02 -0.34662044443E+02  0.50528853307E+02  0.29999980112E+02 0.  0.
         12    1    1    2    0    0 -0.15680946194E+02  0.14346316995E+02  0.34662044443E+02  0.40659146693E+02  0.00000000000E+00 0. -1.
         11    1    3    3    0    0  0.10001960127E+02 -0.60903761339E+01 -0.10721553384E+00  0.11710823338E+02  0.51100000000E-03 0. -1.
        -11    1    3    3    0    0  0.80311384444E+01 -0.10765421940E+02 -0.21780339192E+02  0.25588604296E+02  0.51100000000E-03 0.  1.
        -12    1    3    3    0    0 -0.23521523773E+01  0.25094810793E+01 -0.12774489717E+02  0.13229425673E+02  0.00000000000E+00 0.  1.
</event>
<event>
 7    1  0.2991278E-011  0.5052887E+02  0.7816164E-02  0.1300439E+00
        -11   -1    0    0    0    0  0.00000000000E+00  0.00000000000E+00  0.45593999997E+02  0.45594000000E+02  0.51100000000E-03 0.  1.
         11   -1    0    0    0    0 -0.00000000000E+00 -0.00000000000E+00 -0.45593999997E+02  0.45594000000E+02  0.51100000000E-03 0. -1.
    9900012    2    1    2    0    0  0.10178966547E+02 -0.22682623200E+02  0.32172231385E+02  0.50528865387E+02  0.30000016831E+02 0.  0.
         12    1    1    2    0    0 -0.10178966547E+02  0.22682623200E+02 -0.32172231385E+02  0.40659134613E+02  0.00000000000E+00 0. -1.
         11    1    3    3    0    0  0.10452594519E+02 -0.59669922646E+01  0.53279356208E+01  0.13162394429E+02  0.51100000000E-03 0. -1.
        -11    1    3    3    0    0 -0.19308160144E+00 -0.15285164831E+02  0.30127804604E+02  0.33783992584E+02  0.51100000000E-03 0.  1.
        -12    1    3    3    0    0 -0.80546371304E-01 -0.14304661044E+01 -0.32835088401E+01  0.35824783735E+01  0.00000000000E+00 0.  1.
</event>
<event>
 7    1  0.2991278E-011  0.5052885E+02  0.7816164E-02  0.1300439E+00
        -11   -1    0    0    0    0  0.00000000000E+00  0.00000000000E+00  0.45593999997E+02  0.45594000000E+02  0.51100000000E-03 0.  1.
         11   -1    0    0    0    0 -0.00000000000E+00 -0.00000000000E+00 -0.45593999997E+02  0.45594000000E+02  0.51100000000E-03 0. -1.
    9900012    2    1    2    0    0 -0.36273986342E+02 -0.15740020107E+02 -0.94665689483E+01  0.50528852864E+02  0.29999978767E+02 0.  0.
         12    1    1    2    0    0  0.36273986342E+02  0.15740020107E+02  0.94665689483E+01  0.40659147136E+02  0.00000000000E+00 0. -1.
         11    1    3    3    0    0 -0.17716581806E+02 -0.38202886837E-01  0.62165252882E+01  0.18775620290E+02  0.51100000000E-03 0. -1.
        -11    1    3    3    0    0 -0.73239677889E+01 -0.76748223109E+01 -0.14401790961E+02  0.17887285563E+02  0.51100000000E-03 0.  1.
         12    1    3    3    0    0 -0.11233436747E+02 -0.80269949096E+01 -0.12813032756E+01  0.13865947011E+02  0.00000000000E+00 0. -1.
</event>
<event>
 7    1  0.2991278E-011  0.5052887E+02  0.7816164E-02  0.1300439E+00
        -11   -1    0    0    0    0  0.00000000000E+00  0.00000000000E+00  0.45593999997E+02  0.45594000000E+02  0.51100000000E-03 0. -1.
         11   -1    0    0    0    0 -0.00000000000E+00 -0.00000000000E+00 -0.45593999997E+02  0.45594000000E+02  0.51100000000E-03 0.  1.
    9900012    2    1    2    0    0  0.37939455946E+02  0.13909402978E+02 -0.45045428192E+01  0.50528871693E+02  0.30000035998E+02 0.  0.
         12    1    1    2    0    0 -0.37939455946E+02 -0.13909402978E+02  0.45045428192E+01  0.40659128307E+02  0.00000000000E+00 0. -1.
         11    1    3    3    0    0  0.36030532618E+01  0.90047956585E+01 -0.32654479312E+01  0.10233840340E+02  0.51100000000E-03 0. -1.
        -11    1    3    3    0    0  0.33922830425E+02  0.44899104520E+01 -0.66446496176E+01  0.34857841137E+02  0.51100000000E-03 0.  1.
        -12    1    3    3    0    0  0.41357225854E+00  0.41469686784E+00  0.54055547296E+01  0.54371902155E+01  0.00000000000E+00 0.  1.
</event>
<event>
 7    1  0.2991278E-011  0.5052886E+02  0.7816164E-02  0.1300439E+00
        -11   -1    0    0    0    0  0.00000000000E+00  0.00000000000E+00  0.45593999997E+02  0.45594000000E+02  0.51100000000E-03 0.  1.
         11   -1    0    0    0    0 -0.00000000000E+00 -0.00000000000E+00 -0.45593999997E+02  0.45594000000E+02  0.51100000000E-03 0. -1.
    9900012    2    1    2    0    0 -0.22751245626E+02  0.24168915209E+02  0.23482128157E+02  0.50528856099E+02  0.29999988600E+02 0.  0.
         12    1    1    2    0    0  0.22751245626E+02 -0.24168915209E+02 -0.23482128157E+02  0.40659143901E+02  0.00000000000E+00 0. -1.
         11    1    3    3    0    0 -0.69456153951E+01  0.11060507507E+02 -0.40547547151E+00  0.13066782701E+02  0.51100000000E-03 0.  1.
        -11    1    3    3    0    0 -0.94811487688E+00  0.39729959554E+01  0.18878980171E+02  0.19315783992E+02  0.51100000000E-03 0. -1.
         12    1    3    3    0    0 -0.14857515354E+02  0.91354117468E+01  0.50086234580E+01  0.18146289407E+02  0.00000000000E+00 0. -1.
</event>
<event>
 7    1  0.2991278E-011  0.5052885E+02  0.7816164E-02  0.1300439E+00
        -11   -1    0    0    0    0  0.00000000000E+00  0.00000000000E+00  0.45593999997E+02  0.45594000000E+02  0.51100000000E-03 0. -1.
         11   -1    0    0    0    0 -0.00000000000E+00 -0.00000000000E+00 -0.45593999997E+02  0.45594000000E+02  0.51100000000E-03 0.  1.
    9900012    2    1    2    0    0 -0.15920794291E+02 -0.17971431455E+02 -0.32813454799E+02  0.50528845370E+02  0.29999955987E+02 0.  0.
         12    1    1    2    0    0  0.15920794291E+02  0.17971431455E+02  0.32813454799E+02  0.40659154630E+02  0.00000000000E+00 0. -1.
         11    1    3    3    0    0 -0.22551936851E+01  0.46581530621E+01 -0.10240285352E+02  0.11473784592E+02  0.51100000000E-03 0. -1.
        -11    1    3    3    0    0 -0.16027086454E+02 -0.23008129196E+02 -0.16515429159E+02  0.32542294171E+02  0.51100000000E-03 0.  1.
        -12    1    3    3    0    0  0.23614858487E+01  0.37854467925E+00 -0.60577402875E+01  0.65127666072E+01  0.00000000000E+00 0.  1.
</event>
<event>
 7    1  0.2991278E-011  0.5052885E+02  0.7816164E-02  0.1300439E+00
        -11   -1    0    0    0    0  0.00000000000E+00  0.00000000000E+00  0.45593999997E+02  0.45594000000E+02  0.51100000000E-03 0.  1.
         11   -1    0    0    0    0 -0.00000000000E+00 -0.00000000000E+00 -0.45593999997E+02  0.45594000000E+02  0.51100000000E-03 0. -1.
    9900012    2    1    2    0    0 -0.15881713649E+02 -0.32856129201E+02  0.17927975161E+02  0.50528851609E+02  0.29999974952E+02 0.  0.
         12    1    1    2    0    0  0.15881713649E+02  0.32856129201E+02 -0.17927975161E+02  0.40659148391E+02  0.00000000000E+00 0. -1.
         11    1    3    3    0    0  0.16384639813E+01 -0.16856129492E+01  0.67012783943E+01  0.71016186614E+01  0.51100000000E-03 0. -1.
        -11    1    3    3    0    0 -0.22091403052E+02 -0.29950552602E+02  0.10132246165E+02  0.38571078577E+02  0.51100000000E-03 0.  1.
        -12    1    3    3    0    0  0.45712254214E+01 -0.12199636498E+01  0.10944506016E+01  0.48561543715E+01  0.00000000000E+00 0.  1.
</event>
<event>
 7    1  0.2991278E-011  0.5052886E+02  0.7816164E-02  0.1300439E+00
        -11   -1    0    0    0    0  0.00000000000E+00  0.00000000000E+00  0.45593999997E+02  0.45594000000E+02  0.51100000000E-03 0.  1.
         11   -1    0    0    0    0 -0.00000000000E+00 -0.00000000000E+00 -0.45593999997E+02  0.45594000000E+02  0.51100000000E-03 0. -1.
    9900012    2    1    2    0    0 -0.38121544136E+02 -0.13976784242E+02  0.21361497796E+01  0.50528858827E+02  0.29999996889E+02 0.  0.
         12    1    1    2    0    0  0.38121544136E+02  0.13976784242E+02 -0.21361497796E+01  0.40659141173E+02  0.00000000000E+00 0. -1.
         11    1    3    3    0    0 -0.27401319650E+02 -0.21531925333E+02  0.81559574220E+00  0.34858590388E+02  0.51100000000E-03 0. -1.
        -11    1    3    3    0    0 -0.11824890656E+02  0.60658665058E+01  0.24288151754E+01  0.13510067317E+02  0.51100000000E-03 0.  1.
         12    1    3    3    0    0  0.11046661700E+01  0.14892745855E+01 -0.11082611381E+01  0.21602011222E+01  0.00000000000E+00 0. -1.
</event>
<event>
 7    1  0.2991278E-011  0.5052886E+02  0.7816164E-02  0.1300439E+00
        -11   -1    0    0    0    0  0.00000000000E+00  0.00000000000E+00  0.45593999997E+02  0.45594000000E+02  0.51100000000E-03 0.  1.
         11   -1    0    0    0    0 -0.00000000000E+00 -0.00000000000E+00 -0.45593999997E+02  0.45594000000E+02  0.51100000000E-03 0. -1.
    9900012    2    1    2    0    0  0.13805858435E+02 -0.37626808499E+02  0.68400950310E+01  0.50528863942E+02  0.30000012437E+02 0.  0.
         12    1    1    2    0    0 -0.13805858435E+02  0.37626808499E+02 -0.68400950310E+01  0.40659136058E+02  0.00000000000E+00 0. -1.
         11    1    3    3    0    0  0.45055909887E+01 -0.19927601356E+01 -0.91882900851E+00  0.50115556590E+01  0.51100000000E-03 0.  1.
        -11    1    3    3    0    0 -0.68372719627E+01 -0.97607961341E+01 -0.43798812219E+01  0.12696644787E+02  0.51100000000E-03 0. -1.
        -12    1    3    3    0    0  0.16137539409E+02 -0.25873252230E+02  0.12138805261E+02  0.32820663496E+02  0.00000000000E+00 0.  1.
</event>
<event>
 7    1  0.2991278E-011  0.5052886E+02  0.7816164E-02  0.1300439E+00
        -11   -1    0    0    0    0  0.00000000000E+00  0.00000000000E+00  0.45593999997E+02  0.45594000000E+02  0.51100000000E-03 0. -1.
         11   -1    0    0    0    0 -0.00000000000E+00 -0.00000000000E+00 -0.45593999997E+02  0.45594000000E+02  0.51100000000E-03 0.  1.
    9900012    2    1    2    0    0  0.33527986174E+01  0.40345295206E+02  0.37658059044E+01  0.50528863290E+02  0.30000010458E+02 0.  0.
         12    1    1    2    0    0 -0.33527986174E+01 -0.40345295206E+02 -0.37658059044E+01  0.40659136710E+02  0.00000000000E+00 0. -1.
         11    1    3    3    0    0  0.10097215256E+02  0.38455906017E+01  0.54489920208E+01  0.12100984972E+02  0.51100000000E-03 0. -1.
        -11    1    3    3    0    0  0.22672975171E+01  0.34900822813E+01  0.10940786544E+00  0.41633259185E+01  0.51100000000E-03 0.  1.
         12    1    3    3    0    0 -0.90117141556E+01  0.33009622323E+02 -0.17925939818E+01  0.34264552400E+02  0.00000000000E+00 0. -1.
</event>
<event>
 7    1  0.2991278E-011  0.5052885E+02  0.7816164E-02  0.1300439E+00
        -11   -1    0    0    0    0  0.00000000000E+00  0.00000000000E+00  0.45593999997E+02  0.45594000000E+02  0.51100000000E-03 0. -1.
         11   -1    0    0    0    0 -0.00000000000E+00 -0.00000000000E+00 -0.45593999997E+02  0.45594000000E+02  0.51100000000E-03 0.  1.
    9900012    2    1    2    0    0 -0.70360013885E+01 -0.23235710689E+02 -0.32615383596E+02  0.50528845878E+02  0.29999957532E+02 0.  0.
         12    1    1    2    0    0  0.70360013885E+01  0.23235710689E+02  0.32615383596E+02  0.40659154122E+02  0.00000000000E+00 0. -1.
         11    1    3    3    0    0  0.95900362091E+01 -0.10983677033E+02 -0.63315171007E+01  0.15896479633E+02  0.51100000000E-03 0. -1.
        -11    1    3    3    0    0  0.21364223811E+00 -0.62772668228E+00 -0.52346000367E+01  0.52764307632E+01  0.51100000000E-03 0.  1.
         12    1    3    3    0    0 -0.16839679836E+02 -0.11624306974E+02 -0.21049266459E+02  0.29355935482E+02  0.00000000000E+00 0. -1.
</event>
<event>
 7    1  0.2991278E-011  0.5052886E+02  0.7816164E-02  0.1300439E+00
        -11   -1    0    0    0    0  0.00000000000E+00  0.00000000000E+00  0.45593999997E+02  0.45594000000E+02  0.51100000000E-03 0.  1.
         11   -1    0    0    0    0 -0.00000000000E+00 -0.00000000000E+00 -0.45593999997E+02  0.45594000000E+02  0.51100000000E-03 0. -1.
    9900012    2    1    2    0    0 -0.22617608166E+02 -0.23658230367E+02  0.24122549254E+02  0.50528862702E+02  0.30000008670E+02 0.  0.
         12    1    1    2    0    0  0.22617608166E+02  0.23658230367E+02 -0.24122549254E+02  0.40659137298E+02  0.00000000000E+00 0. -1.
         11    1    3    3    0    0 -0.47683040839E+01  0.22330963189E+01  0.13385954239E+02  0.14384269678E+02  0.51100000000E-03 0. -1.
        -11    1    3    3    0    0 -0.18899789946E+02 -0.16751814619E+02  0.87905172204E+01  0.26741326562E+02  0.51100000000E-03 0.  1.
         12    1    3    3    0    0  0.10504858643E+01 -0.91395120675E+01  0.19460777944E+01  0.94032664625E+01  0.00000000000E+00 0. -1.
</event>
<event>
 7    1  0.2991278E-011  0.5052886E+02  0.7816164E-02  0.1300439E+00
        -11   -1    0    0    0    0  0.00000000000E+00  0.00000000000E+00  0.45593999997E+02  0.45594000000E+02  0.51100000000E-03 0.  1.
         11   -1    0    0    0    0 -0.00000000000E+00 -0.00000000000E+00 -0.45593999997E+02  0.45594000000E+02  0.51100000000E-03 0. -1.
    9900012    2    1    2    0    0  0.18402460557E+02 -0.14279226468E+02  0.33325942574E+02  0.50528864354E+02  0.30000013690E+02 0.  0.
         12    1    1    2    0    0 -0.18402460557E+02  0.14279226468E+02 -0.33325942574E+02  0.40659135646E+02  0.00000000000E+00 0. -1.
         11    1    3    3    0    0  0.17890593492E+02  0.26128623375E+01  0.11974400734E+02  0.21686093662E+02  0.51100000000E-03 0. -1.
        -11    1    3    3    0    0 -0.22835075893E+01 -0.98300125049E+01  0.60668087979E+01  0.11774961656E+02  0.51100000000E-03 0.  1.
         12    1    3    3    0    0  0.27953746541E+01 -0.70620763006E+01  0.15284733041E+02  0.17067809036E+02  0.00000000000E+00 0. -1.
</event>
<event>
 7    1  0.2991278E-011  0.5052886E+02  0.7816164E-02  0.1300439E+00
        -11   -1    0    0    0    0  0.00000000000E+00  0.00000000000E+00  0.45593999997E+02  0.45594000000E+02  0.51100000000E-03 0.  1.
         11   -1    0    0    0    0 -0.00000000000E+00 -0.00000000000E+00 -0.45593999997E+02  0.45594000000E+02  0.51100000000E-03 0. -1.
    9900012    2    1    2    0    0 -0.93824668316E+01  0.32645973941E+02  0.22346715767E+02  0.50528855838E+02  0.29999987806E+02 0.  0.
         12    1    1    2    0    0  0.93824668316E+01 -0.32645973941E+02 -0.22346715767E+02  0.40659144162E+02  0.00000000000E+00 0. -1.
         11    1    3    3    0    0 -0.10532700113E+02  0.31784187190E+01  0.40970659513E+01  0.11739934706E+02  0.51100000000E-03 0. -1.
        -11    1    3    3    0    0  0.43522876860E+01  0.29812711708E+02  0.18812196079E+02  0.35519556713E+02  0.51100000000E-03 0.  1.
        -12    1    3    3    0    0 -0.32020544048E+01 -0.34515648567E+00 -0.56254626424E+00  0.32693644199E+01  0.00000000000E+00 0.  1.
</event>
<event>
 7    1  0.2991278E-011  0.5052885E+02  0.7816164E-02  0.1300439E+00
        -11   -1    0    0    0    0  0.00000000000E+00  0.00000000000E+00  0.45593999997E+02  0.45594000000E+02  0.51100000000E-03 0.  1.
         11   -1    0    0    0    0 -0.00000000000E+00 -0.00000000000E+00 -0.45593999997E+02  0.45594000000E+02  0.51100000000E-03 0. -1.
    9900012    2    1    2    0    0 -0.17875108658E+02 -0.17545556927E+02  0.32028119995E+02  0.50528849150E+02  0.29999967477E+02 0.  0.
         12    1    1    2    0    0  0.17875108658E+02  0.17545556927E+02 -0.32028119995E+02  0.40659150850E+02  0.00000000000E+00 0. -1.
         11    1    3    3    0    0 -0.33987654303E+01 -0.28776122771E+01  0.33834749373E+01  0.55928670448E+01  0.51100000000E-03 0. -1.
        -11    1    3    3    0    0 -0.15379003071E+02 -0.10863684270E+01  0.27202448698E+01  0.15655467551E+02  0.51100000000E-03 0.  1.
        -12    1    3    3    0    0  0.90265984364E+00 -0.13581576223E+02  0.25924400188E+02  0.29280514555E+02  0.00000000000E+00 0.  1.
</event>
<event>
 7    1  0.2991278E-011  0.5052884E+02  0.7816164E-02  0.1300439E+00
        -11   -1    0    0    0    0  0.00000000000E+00  0.00000000000E+00  0.45593999997E+02  0.45594000000E+02  0.51100000000E-03 0. -1.
         11   -1    0    0    0    0 -0.00000000000E+00 -0.00000000000E+00 -0.45593999997E+02  0.45594000000E+02  0.51100000000E-03 0.  1.
    9900012    2    1    2    0    0  0.30412327503E+02  0.32669399278E+01 -0.26787768968E+02  0.50528842029E+02  0.29999945832E+02 0.  0.
         12    1    1    2    0    0 -0.30412327503E+02 -0.32669399278E+01  0.26787768968E+02  0.40659157971E+02  0.00000000000E+00 0. -1.
         11    1    3    3    0    0 -0.35569035991E+01  0.26008502200E+01 -0.69996629610E+01  0.82711103795E+01  0.51100000000E-03 0. -1.
        -11    1    3    3    0    0  0.31407332932E+02  0.34686587750E+01 -0.12387134339E+02  0.33939552928E+02  0.51100000000E-03 0.  1.
        -12    1    3    3    0    0  0.25618981702E+01 -0.28025690671E+01 -0.74009716682E+01  0.83181787216E+01  0.00000000000E+00 0.  1.
</event>
<event>
 7    1  0.2991278E-011  0.5052886E+02  0.7816164E-02  0.1300439E+00
        -11   -1    0    0    0    0  0.00000000000E+00  0.00000000000E+00  0.45593999997E+02  0.45594000000E+02  0.51100000000E-03 0.  1.
         11   -1    0    0    0    0 -0.00000000000E+00 -0.00000000000E+00 -0.45593999997E+02  0.45594000000E+02  0.51100000000E-03 0. -1.
    9900012    2    1    2    0    0  0.47948539291E+01  0.33962723236E+01  0.40232333590E+02  0.50528856428E+02  0.29999989600E+02 0.  0.
         12    1    1    2    0    0 -0.47948539291E+01 -0.33962723236E+01 -0.40232333590E+02  0.40659143572E+02  0.00000000000E+00 0. -1.
         11    1    3    3    0    0  0.44463116300E+01 -0.97115169830E+01  0.18810245543E+02  0.21631194763E+02  0.51100000000E-03 0. -1.
        -11    1    3    3    0    0 -0.68156235129E+01  0.83582408994E+01  0.12477645808E+02  0.16492560747E+02  0.51100000000E-03 0.  1.
         12    1    3    3    0    0  0.71641658120E+01  0.47495484072E+01  0.89444422388E+01  0.12405100919E+02  0.00000000000E+00 0. -1.
</event>
<event>
 7    1  0.2991278E-011  0.5052886E+02  0.7816164E-02  0.1300439E+00
        -11   -1    0    0    0    0  0.00000000000E+00  0.00000000000E+00  0.45593999997E+02  0.45594000000E+02  0.51100000000E-03 0. -1.
         11   -1    0    0    0    0 -0.00000000000E+00 -0.00000000000E+00 -0.45593999997E+02  0.45594000000E+02  0.51100000000E-03 0.  1.
    9900012    2    1    2    0    0  0.42316909122E+01 -0.34455788671E+01 -0.40291266368E+02  0.50528863669E+02  0.30000011607E+02 0.  0.
         12    1    1    2    0    0 -0.42316909122E+01  0.34455788671E+01  0.40291266368E+02  0.40659136331E+02  0.00000000000E+00 0. -1.
         11    1    3    3    0    0  0.10217346591E+02  0.78724644241E+01 -0.12004688638E+02  0.17620511259E+02  0.51100000000E-03 0. -1.
        -11    1    3    3    0    0 -0.91004452448E-01 -0.68542788436E+01 -0.22494520238E+02  0.23515800247E+02  0.51100000000E-03 0.  1.
         12    1    3    3    0    0 -0.58946512268E+01 -0.44637644476E+01 -0.57920574919E+01  0.93925521622E+01  0.00000000000E+00 0. -1.
</event>
<event>
 7    1  0.2991278E-011  0.5052886E+02  0.7816164E-02  0.1300439E+00
        -11   -1    0    0    0    0  0.00000000000E+00  0.00000000000E+00  0.45593999997E+02  0.45594000000E+02  0.51100000000E-03 0.  1.
         11   -1    0    0    0    0 -0.00000000000E+00 -0.00000000000E+00 -0.45593999997E+02  0.45594000000E+02  0.51100000000E-03 0. -1.
    9900012    2    1    2    0    0  0.10479902220E+02  0.23057433524E+02  0.31807101555E+02  0.50528864488E+02  0.30000014098E+02 0.  0.
         12    1    1    2    0    0 -0.10479902220E+02 -0.23057433524E+02 -0.31807101555E+02  0.40659135512E+02  0.00000000000E+00 0. -1.
         11    1    3    3    0    0 -0.98231404416E+01  0.59320334775E+01  0.60779019667E+01  0.12985530482E+02  0.51100000000E-03 0. -1.
        -11    1    3    3    0    0  0.78605366539E+01  0.70028105196E+01  0.14685591046E+02  0.18069144316E+02  0.51100000000E-03 0.  1.
         12    1    3    3    0    0  0.12442506008E+02  0.10122589527E+02  0.11043608542E+02  0.19474189691E+02  0.00000000000E+00 0. -1.
</event>
<event>
 7    1  0.2991278E-011  0.5052886E+02  0.7816164E-02  0.1300439E+00
        -11   -1    0    0    0    0  0.00000000000E+00  0.00000000000E+00  0.45593999997E+02  0.45594000000E+02  0.51100000000E-03 0.  1.
         11   -1    0    0    0    0 -0.00000000000E+00 -0.00000000000E+00 -0.45593999997E+02  0.45594000000E+02  0.51100000000E-03 0. -1.
    9900012    2    1    2    0    0 -0.12250308782E+02  0.20828644710E+02  0.32699593085E+02  0.50528857195E+02  0.29999991929E+02 0.  0.
         12    1    1    2    0    0  0.12250308782E+02 -0.20828644710E+02 -0.32699593085E+02  0.40659142805E+02  0.00000000000E+00 0. -1.
         11    1    3    3    0    0  0.12841840746E+01 -0.56611610366E+00  0.11745708671E+02  0.11829255625E+02  0.51100000000E-03 0.  1.
        -11    1    3    3    0    0 -0.69491769214E+01  0.89522455782E+01 -0.22548722989E+01  0.11555008010E+02  0.51100000000E-03 0. -1.
         12    1    3    3    0    0 -0.65853159350E+01  0.12442515236E+02  0.23208756713E+02  0.27144593559E+02  0.00000000000E+00 0. -1.
</event>
<event>
 7    1  0.2991278E-011  0.5052885E+02  0.7816164E-02  0.1300439E+00
        -11   -1    0    0    0    0  0.00000000000E+00  0.00000000000E+00  0.45593999997E+02  0.45594000000E+02  0.51100000000E-03 0. -1.
         11   -1    0    0    0    0 -0.00000000000E+00 -0.00000000000E+00 -0.45593999997E+02  0.45594000000E+02  0.51100000000E-03 0.  1.
    9900012    2    1    2    0    0  0.52207455279E+00  0.52548314132E+01 -0.40314767992E+02  0.50528851789E+02  0.29999975498E+02 0.  0.
         12    1    1    2    0    0 -0.52207455279E+00 -0.52548314132E+01  0.40314767992E+02  0.40659148211E+02  0.00000000000E+00 0. -1.
         11    1    3    3    0    0 -0.47658610966E+00 -0.11028264783E+02 -0.15701081329E+02  0.19193064205E+02  0.51100000000E-03 0. -1.
        -11    1    3    3    0    0 -0.15315427292E+00  0.11812412805E+02 -0.23905466851E+02  0.26665106378E+02  0.51100000000E-03 0.  1.
         12    1    3    3    0    0  0.11518149354E+01  0.44706833904E+01 -0.70821981133E+00  0.46706812055E+01  0.00000000000E+00 0. -1.
</event>
<event>
 7    1  0.2991278E-011  0.5052886E+02  0.7816164E-02  0.1300439E+00
        -11   -1    0    0    0    0  0.00000000000E+00  0.00000000000E+00  0.45593999997E+02  0.45594000000E+02  0.51100000000E-03 0. -1.
         11   -1    0    0    0    0 -0.00000000000E+00 -0.00000000000E+00 -0.45593999997E+02  0.45594000000E+02  0.51100000000E-03 0.  1.
    9900012    2    1    2    0    0  0.53755130306E+01  0.36527711809E+02 -0.17029259739E+02  0.50528861328E+02  0.30000004492E+02 0.  0.
         12    1    1    2    0    0 -0.53755130306E+01 -0.36527711809E+02  0.17029259739E+02  0.40659138672E+02  0.00000000000E+00 0. -1.
         11    1    3    3    0    0  0.90790604870E+01  0.75634484676E+01 -0.22369136100E-01  0.11816750513E+02  0.51100000000E-03 0. -1.
        -11    1    3    3    0    0 -0.50221220834E+01  0.26233276487E+02 -0.61079982974E+01  0.27399163289E+02  0.51100000000E-03 0.  1.
         12    1    3    3    0    0  0.13185746270E+01  0.27309868540E+01 -0.10898892305E+02  0.11312947526E+02  0.00000000000E+00 0. -1.
</event>
<event>
 7    1  0.2991278E-011  0.5052886E+02  0.7816164E-02  0.1300439E+00
        -11   -1    0    0    0    0  0.00000000000E+00  0.00000000000E+00  0.45593999997E+02  0.45594000000E+02  0.51100000000E-03 0. -1.
         11   -1    0    0    0    0 -0.00000000000E+00 -0.00000000000E+00 -0.45593999997E+02  0.45594000000E+02  0.51100000000E-03 0.  1.
    9900012    2    1    2    0    0  0.89352799930E+01 -0.27460716872E+02 -0.28622291269E+02  0.50528858873E+02  0.29999997032E+02 0.  0.
         12    1    1    2    0    0 -0.89352799930E+01  0.27460716872E+02  0.28622291269E+02  0.40659141127E+02  0.00000000000E+00 0. -1.
         11    1    3    3    0    0 -0.24685844979E+01 -0.80422546054E+01 -0.42172755074E+01  0.94104825343E+01  0.51100000000E-03 0. -1.
        -11    1    3    3    0    0  0.26424109884E+01  0.55069337777E+01 -0.18563380052E+01  0.63839366001E+01  0.51100000000E-03 0.  1.
        -12    1    3    3    0    0  0.87614535026E+01 -0.24925396044E+02 -0.22548677756E+02  0.34734439739E+02  0.00000000000E+00 0.  1.
</event>
<event>
 7    1  0.2991278E-011  0.5052886E+02  0.7816164E-02  0.1300439E+00
        -11   -1    0    0    0    0  0.00000000000E+00  0.00000000000E+00  0.45593999997E+02  0.45594000000E+02  0.51100000000E-03 0.  1.
         11   -1    0    0    0    0 -0.00000000000E+00 -0.00000000000E+00 -0.45593999997E+02  0.45594000000E+02  0.51100000000E-03 0. -1.
    9900012    2    1    2    0    0  0.11051943716E+02  0.21982714896E+02  0.32369436973E+02  0.50528860018E+02  0.30000000511E+02 0.  0.
         12    1    1    2    0    0 -0.11051943716E+02 -0.21982714896E+02 -0.32369436973E+02  0.40659139982E+02  0.00000000000E+00 0. -1.
         11    1    3    3    0    0 -0.70372395924E+01  0.67342719314E+01  0.22912099687E+01  0.10006138262E+02  0.51100000000E-03 0. -1.
        -11    1    3    3    0    0  0.15562915711E+02  0.17649427380E+02  0.24704278431E+02  0.34117561538E+02  0.51100000000E-03 0.  1.
        -12    1    3    3    0    0  0.25262675980E+01 -0.24009844159E+01  0.53739485742E+01  0.64051602182E+01  0.00000000000E+00 0.  1.
</event>
<event>
 7    1  0.2991278E-011  0.5052886E+02  0.7816164E-02  0.1300439E+00
        -11   -1    0    0    0    0  0.00000000000E+00  0.00000000000E+00  0.45593999997E+02  0.45594000000E+02  0.51100000000E-03 0.  1.
         11   -1    0    0    0    0 -0.00000000000E+00 -0.00000000000E+00 -0.45593999997E+02  0.45594000000E+02  0.51100000000E-03 0. -1.
    9900012    2    1    2    0    0 -0.24091496684E+01 -0.25335577474E+02  0.31709156113E+02  0.50528855033E+02  0.29999985358E+02 0.  0.
         12    1    1    2    0    0  0.24091496684E+01  0.25335577474E+02 -0.31709156113E+02  0.40659144967E+02  0.00000000000E+00 0. -1.
         11    1    3    3    0    0 -0.75027506507E+01 -0.42043781487E+00  0.15501723267E+02  0.17227056039E+02  0.51100000000E-03 0. -1.
        -11    1    3    3    0    0 -0.29508858740E+01 -0.18675010386E+02  0.10797741286E+02  0.21772803161E+02  0.51100000000E-03 0.  1.
        -12    1    3    3    0    0  0.80444868563E+01 -0.62401292731E+01  0.54096915601E+01  0.11528995832E+02  0.00000000000E+00 0.  1.
</event>
<event>
 7    1  0.2991278E-011  0.5052885E+02  0.7816164E-02  0.1300439E+00
        -11   -1    0    0    0    0  0.00000000000E+00  0.00000000000E+00  0.45593999997E+02  0.45594000000E+02  0.51100000000E-03 0.  1.
         11   -1    0    0    0    0 -0.00000000000E+00 -0.00000000000E+00 -0.45593999997E+02  0.45594000000E+02  0.51100000000E-03 0. -1.
    9900012    2    1    2    0    0 -0.29882508946E+02 -0.23070331480E+02  0.15098401728E+02  0.50528852564E+02  0.29999977853E+02 0.  0.
         12    1    1    2    0    0  0.29882508946E+02  0.23070331480E+02 -0.15098401728E+02  0.40659147436E+02  0.00000000000E+00 0. -1.
         11    1    3    3    0    0 -0.22165868121E+02 -0.15855487057E+02  0.16379788158E+02  0.31796535026E+02  0.51100000000E-03 0.  1.
        -11    1    3    3    0    0  0.30832297548E+01 -0.67203885116E+01 -0.26072586679E+01  0.78401355531E+01  0.51100000000E-03 0. -1.
        -12    1    3    3    0    0 -0.10799870580E+02 -0.49445591180E+00  0.13258722385E+01  0.10892181984E+02  0.00000000000E+00 0.  1.
</event>
<event>
 7    1  0.2991278E-011  0.5052886E+02  0.7816164E-02  0.1300439E+00
        -11   -1    0    0    0    0  0.00000000000E+00  0.00000000000E+00  0.45593999997E+02  0.45594000000E+02  0.51100000000E-03 0. -1.
         11   -1    0    0    0    0 -0.00000000000E+00 -0.00000000000E+00 -0.45593999997E+02  0.45594000000E+02  0.51100000000E-03 0.  1.
    9900012    2    1    2    0    0  0.26012033218E+02 -0.25994111074E+02 -0.17344916464E+02  0.50528858226E+02  0.29999995063E+02 0.  0.
         12    1    1    2    0    0 -0.26012033218E+02  0.25994111074E+02  0.17344916464E+02  0.40659141774E+02  0.00000000000E+00 0. -1.
         11    1    3    3    0    0 -0.19967801581E+01 -0.27224028223E+01  0.27975603146E+01  0.43846267916E+01  0.51100000000E-03 0. -1.
        -11    1    3    3    0    0  0.22744858603E+02 -0.86211583389E+01 -0.18359415457E+02  0.30474925761E+02  0.51100000000E-03 0.  1.
        -12    1    3    3    0    0  0.52639547731E+01 -0.14650549912E+02 -0.17830613219E+01  0.15669305673E+02  0.00000000000E+00 0.  1.
</event>
<event>
 7    1  0.2991278E-011  0.5052890E+02  0.7816164E-02  0.1300439E+00
        -11   -1    0    0    0    0  0.00000000000E+00  0.00000000000E+00  0.45593999997E+02  0.45594000000E+02  0.51100000000E-03 0.  1.
         11   -1    0    0    0    0 -0.00000000000E+00 -0.00000000000E+00 -0.45593999997E+02  0.45594000000E+02  0.51100000000E-03 0. -1.
    9900012    2    1    2    0    0  0.30172363614E+02 -0.27110386031E+02  0.27960657975E+01  0.50528898426E+02  0.30000117256E+02 0.  0.
         12    1    1    2    0    0 -0.30172363614E+02  0.27110386031E+02 -0.27960657975E+01  0.40659101574E+02  0.00000000000E+00 0. -1.
         11    1    3    3    0    0  0.10139462956E+02  0.24377798937E+01 -0.59682389309E+01  0.12015463206E+02  0.51100000000E-03 0. -1.
        -11    1    3    3    0    0  0.66892232884E+01 -0.16573311528E+02  0.87551731343E+01  0.19901593405E+02  0.51100000000E-03 0.  1.
         12    1    3    3    0    0  0.13343677370E+02 -0.12974854397E+02  0.91315941304E-02  0.18611841815E+02  0.00000000000E+00 0. -1.
</event>
<event>
 7    1  0.2991278E-011  0.5052886E+02  0.7816164E-02  0.1300439E+00
        -11   -1    0    0    0    0  0.00000000000E+00  0.00000000000E+00  0.45593999997E+02  0.45594000000E+02  0.51100000000E-03 0.  1.
         11   -1    0    0    0    0 -0.00000000000E+00 -0.00000000000E+00 -0.45593999997E+02  0.45594000000E+02  0.51100000000E-03 0. -1.
    9900012    2    1    2    0    0  0.31847567648E+02 -0.59789370456E+01  0.24559113721E+02  0.50528864249E+02  0.30000013370E+02 0.  0.
         12    1    1    2    0    0 -0.31847567648E+02  0.59789370456E+01 -0.24559113721E+02  0.40659135751E+02  0.00000000000E+00 0. -1.
         11    1    3    3    0    0 -0.23060978952E+01 -0.47224504828E+01  0.96686486399E+01  0.11004653236E+02  0.51100000000E-03 0. -1.
        -11    1    3    3    0    0  0.26612310035E+02 -0.89632654353E+00  0.17114874421E+02  0.31653394343E+02  0.51100000000E-03 0.  1.
         12    1    3    3    0    0  0.75413555079E+01 -0.36016001935E+00 -0.22244093402E+01  0.78708166697E+01  0.00000000000E+00 0. -1.
</event>
<event>
 7    1  0.2991278E-011  0.5052886E+02  0.7816164E-02  0.1300439E+00
        -11   -1    0    0    0    0  0.00000000000E+00  0.00000000000E+00  0.45593999997E+02  0.45594000000E+02  0.51100000000E-03 0.  1.
         11   -1    0    0    0    0 -0.00000000000E+00 -0.00000000000E+00 -0.45593999997E+02  0.45594000000E+02  0.51100000000E-03 0. -1.
    9900012    2    1    2    0    0 -0.18546996550E+02  0.83092622690E+01  0.35215490695E+02  0.50528859510E+02  0.29999998968E+02 0.  0.
         12    1    1    2    0    0  0.18546996550E+02 -0.83092622690E+01 -0.35215490695E+02  0.40659140490E+02  0.00000000000E+00 0. -1.
         11    1    3    3    0    0 -0.26135528707E+01  0.11471689793E+01  0.39085219154E+00  0.28808715646E+01  0.51100000000E-03 0. -1.
        -11    1    3    3    0    0  0.61985028086E+01 -0.29485806061E+00  0.62777622813E+00  0.62371853907E+01  0.51100000000E-03 0.  1.
        -12    1    3    3    0    0 -0.22131946488E+02  0.74569513503E+01  0.34196862275E+02  0.41410802555E+02  0.00000000000E+00 0.  1.
</event>
<event>
 7    1  0.2991278E-011  0.5052886E+02  0.7816164E-02  0.1300439E+00
        -11   -1    0    0    0    0  0.00000000000E+00  0.00000000000E+00  0.45593999997E+02  0.45594000000E+02  0.51100000000E-03 0.  1.
         11   -1    0    0    0    0 -0.00000000000E+00 -0.00000000000E+00 -0.45593999997E+02  0.45594000000E+02  0.51100000000E-03 0. -1.
    9900012    2    1    2    0    0 -0.27246290162E+02 -0.29828615850E+02  0.45889894657E+01  0.50528862338E+02  0.30000007562E+02 0.  0.
         12    1    1    2    0    0  0.27246290162E+02  0.29828615850E+02 -0.45889894657E+01  0.40659137662E+02  0.00000000000E+00 0. -1.
         11    1    3    3    0    0  0.71644750117E+00 -0.52901749939E+00 -0.73406729081E+01  0.73945003578E+01  0.51100000000E-03 0. -1.
        -11    1    3    3    0    0 -0.25339254355E+02 -0.26675685897E+02  0.13381233094E+02  0.39150062946E+02  0.51100000000E-03 0.  1.
         12    1    3    3    0    0 -0.26234833084E+01 -0.26239124538E+01 -0.14515707199E+01  0.39842990337E+01  0.00000000000E+00 0. -1.
</event>
<event>
 7    1  0.2991278E-011  0.5052887E+02  0.7816164E-02  0.1300439E+00
        -11   -1    0    0    0    0  0.00000000000E+00  0.00000000000E+00  0.45593999997E+02  0.45594000000E+02  0.51100000000E-03 0.  1.
         11   -1    0    0    0    0 -0.00000000000E+00 -0.00000000000E+00 -0.45593999997E+02  0.45594000000E+02  0.51100000000E-03 0. -1.
    9900012    2    1    2    0    0  0.59109197300E+01 -0.25804139044E+02  0.30860532441E+02  0.50528867860E+02  0.30000024347E+02 0.  0.
         12    1    1    2    0    0 -0.59109197300E+01  0.25804139044E+02 -0.30860532441E+02  0.40659132140E+02  0.00000000000E+00 0. -1.
         11    1    3    3    0    0  0.50276092891E+01  0.47304084134E+01  0.31808726312E+01  0.76007611381E+01  0.51100000000E-03 0. -1.
        -11    1    3    3    0    0  0.48247420984E+01 -0.11785151998E+02  0.16151934656E+02  0.20568250711E+02  0.51100000000E-03 0.  1.
         12    1    3    3    0    0 -0.39414316575E+01 -0.18749395459E+02  0.11527725154E+02  0.22359856011E+02  0.00000000000E+00 0. -1.
</event>
<event>
 7    1  0.2991278E-011  0.5052886E+02  0.7816164E-02  0.1300439E+00
        -11   -1    0    0    0    0  0.00000000000E+00  0.00000000000E+00  0.45593999997E+02  0.45594000000E+02  0.51100000000E-03 0.  1.
         11   -1    0    0    0    0 -0.00000000000E+00 -0.00000000000E+00 -0.45593999997E+02  0.45594000000E+02  0.51100000000E-03 0. -1.
    9900012    2    1    2    0    0  0.25795343398E+02 -0.26567960406E+02  0.16790161374E+02  0.50528858591E+02  0.29999996172E+02 0.  0.
         12    1    1    2    0    0 -0.25795343398E+02  0.26567960406E+02 -0.16790161374E+02  0.40659141409E+02  0.00000000000E+00 0. -1.
         11    1    3    3    0    0  0.28425223532E+01 -0.20982781979E+02  0.14010013626E+02  0.25389713566E+02  0.51100000000E-03 0. -1.
        -11    1    3    3    0    0  0.48625955610E+01  0.14060633068E+01  0.27169352939E+01  0.57448748694E+01  0.51100000000E-03 0.  1.
         12    1    3    3    0    0  0.18090225484E+02 -0.69912417338E+01  0.63212454705E-01  0.19394270155E+02  0.00000000000E+00 0. -1.
</event>
<event>
 7    1  0.2991278E-011  0.5052886E+02  0.7816164E-02  0.1300439E+00
        -11   -1    0    0    0    0  0.00000000000E+00  0.00000000000E+00  0.45593999997E+02  0.45594000000E+02  0.51100000000E-03 0.  1.
         11   -1    0    0    0    0 -0.00000000000E+00 -0.00000000000E+00 -0.45593999997E+02  0.45594000000E+02  0.51100000000E-03 0. -1.
    9900012    2    1    2    0    0 -0.40491305908E+02 -0.19041903178E+00  0.36856229860E+01  0.50528856743E+02  0.29999990557E+02 0.  0.
         12    1    1    2    0    0  0.40491305908E+02  0.19041903178E+00 -0.36856229860E+01  0.40659143257E+02  0.00000000000E+00 0. -1.
         11    1    3    3    0    0 -0.33369259999E+02  0.92250075054E+01  0.20896129671E+01  0.34683926522E+02  0.51100000000E-03 0. -1.
        -11    1    3    3    0    0 -0.93893764299E+01 -0.68798971229E+01 -0.82580738839E+00  0.11669418677E+02  0.51100000000E-03 0.  1.
         12    1    3    3    0    0  0.22673305207E+01 -0.25355294143E+01  0.24218174073E+01  0.41755115441E+01  0.00000000000E+00 0. -1.
</event>
<event>
 7    1  0.2991278E-011  0.5052886E+02  0.7816164E-02  0.1300439E+00
        -11   -1    0    0    0    0  0.00000000000E+00  0.00000000000E+00  0.45593999997E+02  0.45594000000E+02  0.51100000000E-03 0.  1.
         11   -1    0    0    0    0 -0.00000000000E+00 -0.00000000000E+00 -0.45593999997E+02  0.45594000000E+02  0.51100000000E-03 0. -1.
    9900012    2    1    2    0    0  0.15641422920E+02 -0.25932058025E+02  0.27130055210E+02  0.50528860313E+02  0.30000001409E+02 0.  0.
         12    1    1    2    0    0 -0.15641422920E+02  0.25932058025E+02 -0.27130055210E+02  0.40659139687E+02  0.00000000000E+00 0. -1.
         11    1    3    3    0    0  0.32017902979E+01 -0.13137991966E+01 -0.55457104170E+01  0.65370049511E+01  0.51100000000E-03 0. -1.
        -11    1    3    3    0    0  0.81160749677E+00 -0.12877943447E+02  0.15267212300E+02  0.19989694991E+02  0.51100000000E-03 0.  1.
         12    1    3    3    0    0  0.11628025125E+02 -0.11740315381E+02  0.17408553327E+02  0.24002160372E+02  0.00000000000E+00 0. -1.
</event>
<event>
 7    1  0.2991278E-011  0.5052884E+02  0.7816164E-02  0.1300439E+00
        -11   -1    0    0    0    0  0.00000000000E+00  0.00000000000E+00  0.45593999997E+02  0.45594000000E+02  0.51100000000E-03 0. -1.
         11   -1    0    0    0    0 -0.00000000000E+00 -0.00000000000E+00 -0.45593999997E+02  0.45594000000E+02  0.51100000000E-03 0.  1.
    9900012    2    1    2    0    0  0.10632380505E+02 -0.25139722415E+02 -0.30134937758E+02  0.50528835818E+02  0.29999926954E+02 0.  0.
         12    1    1    2    0    0 -0.10632380505E+02  0.25139722415E+02  0.30134937758E+02  0.40659164182E+02  0.00000000000E+00 0. -1.
         11    1    3    3    0    0  0.97349683826E+01 -0.93070676129E+01 -0.62902358607E+01  0.14864662270E+02  0.51100000000E-03 0. -1.
        -11    1    3    3    0    0 -0.13050925166E+01 -0.62964971283E+01 -0.24995652603E+02  0.25809529091E+02  0.51100000000E-03 0.  1.
        -12    1    3    3    0    0  0.22025046394E+01 -0.95361576733E+01  0.11509507064E+01  0.98546444576E+01  0.00000000000E+00 0.  1.
</event>
<event>
 7    1  0.2991278E-011  0.5052885E+02  0.7816164E-02  0.1300439E+00
        -11   -1    0    0    0    0  0.00000000000E+00  0.00000000000E+00  0.45593999997E+02  0.45594000000E+02  0.51100000000E-03 0.  1.
         11   -1    0    0    0    0 -0.00000000000E+00 -0.00000000000E+00 -0.45593999997E+02  0.45594000000E+02  0.51100000000E-03 0. -1.
    9900012    2    1    2    0    0  0.40544905280E+02 -0.50974095045E+00  0.30028402943E+01  0.50528853061E+02  0.29999979363E+02 0.  0.
         12    1    1    2    0    0 -0.40544905280E+02  0.50974095045E+00 -0.30028402943E+01  0.40659146939E+02  0.00000000000E+00 0. -1.
         11    1    3    3    0    0  0.29475217828E+02 -0.72404211800E+01  0.45315343167E+01  0.30687896122E+02  0.51100000000E-03 0.  1.
        -11    1    3    3    0    0  0.11921235932E+01  0.11611181316E+01 -0.70392754377E+01  0.72333085739E+01  0.51100000000E-03 0. -1.
         12    1    3    3    0    0  0.98775638589E+01  0.55695620980E+01  0.55105814152E+01  0.12607648365E+02  0.00000000000E+00 0. -1.
</event>
<event>
 7    1  0.2991278E-011  0.5052886E+02  0.7816164E-02  0.1300439E+00
        -11   -1    0    0    0    0  0.00000000000E+00  0.00000000000E+00  0.45593999997E+02  0.45594000000E+02  0.51100000000E-03 0. -1.
         11   -1    0    0    0    0 -0.00000000000E+00 -0.00000000000E+00 -0.45593999997E+02  0.45594000000E+02  0.51100000000E-03 0.  1.
    9900012    2    1    2    0    0  0.63327389163E+01  0.40124966249E+02 -0.17461181386E+01  0.50528862931E+02  0.30000009364E+02 0.  0.
         12    1    1    2    0    0 -0.63327389163E+01 -0.40124966249E+02  0.17461181386E+01  0.40659137069E+02  0.00000000000E+00 0. -1.
         11    1    3    3    0    0 -0.47306560169E+01  0.10769091167E+02  0.72493496982E+01  0.13816855729E+02  0.51100000000E-03 0. -1.
        -11    1    3    3    0    0  0.10063144888E+02  0.30676350397E+02 -0.11003932963E+02  0.34108531185E+02  0.51100000000E-03 0.  1.
         12    1    3    3    0    0  0.10002500451E+01 -0.13204753149E+01  0.20084651257E+01  0.26034760170E+01  0.00000000000E+00 0. -1.
</event>
<event>
 7    1  0.2991278E-011  0.5052886E+02  0.7816164E-02  0.1300439E+00
        -11   -1    0    0    0    0  0.00000000000E+00  0.00000000000E+00  0.45593999997E+02  0.45594000000E+02  0.51100000000E-03 0.  1.
         11   -1    0    0    0    0 -0.00000000000E+00 -0.00000000000E+00 -0.45593999997E+02  0.45594000000E+02  0.51100000000E-03 0. -1.
    9900012    2    1    2    0    0  0.22963755870E+02 -0.76741608490E+01  0.32664027945E+02  0.50528861421E+02  0.30000004776E+02 0.  0.
         12    1    1    2    0    0 -0.22963755870E+02  0.76741608490E+01 -0.32664027945E+02  0.40659138579E+02  0.00000000000E+00 0. -1.
         11    1    3    3    0    0  0.84580211159E+01  0.76061937087E+01  0.88836669126E+01  0.14433012229E+02  0.51100000000E-03 0. -1.
        -11    1    3    3    0    0  0.10104205856E+02 -0.17559530275E+02  0.23645401387E+02  0.31137390490E+02  0.51100000000E-03 0.  1.
        -12    1    3    3    0    0  0.44015288987E+01  0.22791757177E+01  0.13495964458E+00  0.49584587024E+01  0.00000000000E+00 0.  1.
</event>
<event>
 7    1  0.2991278E-011  0.5052884E+02  0.7816164E-02  0.1300439E+00
        -11   -1    0    0    0    0  0.00000000000E+00  0.00000000000E+00  0.45593999997E+02  0.45594000000E+02  0.51100000000E-03 0.  1.
         11   -1    0    0    0    0 -0.00000000000E+00 -0.00000000000E+00 -0.45593999997E+02  0.45594000000E+02  0.51100000000E-03 0. -1.
    9900012    2    1    2    0    0 -0.24712839129E+02  0.26235577830E+02  0.18818546916E+02  0.50528835351E+02  0.29999925533E+02 0.  0.
         12    1    1    2    0    0  0.24712839129E+02 -0.26235577830E+02 -0.18818546916E+02  0.40659164649E+02  0.00000000000E+00 0. -1.
         11    1    3    3    0    0 -0.10091747665E+02  0.38551061626E+01 -0.69765291126E+00  0.10825522357E+02  0.51100000000E-03 0. -1.
        -11    1    3    3    0    0 -0.12579349793E+01 -0.12078551185E+01  0.11215753688E+02  0.11350526219E+02  0.51100000000E-03 0.  1.
        -12    1    3    3    0    0 -0.13363156485E+02  0.23588326786E+02  0.83004461398E+01  0.28352786775E+02  0.00000000000E+00 0.  1.
</event>
<event>
 7    1  0.2991278E-011  0.5052886E+02  0.7816164E-02  0.1300439E+00
        -11   -1    0    0    0    0  0.00000000000E+00  0.00000000000E+00  0.45593999997E+02  0.45594000000E+02  0.51100000000E-03 0. -1.
         11   -1    0    0    0    0 -0.00000000000E+00 -0.00000000000E+00 -0.45593999997E+02  0.45594000000E+02  0.51100000000E-03 0.  1.
    9900012    2    1    2    0    0 -0.57015221899E+00 -0.12754817587E+02 -0.38602525072E+02  0.50528863423E+02  0.30000010860E+02 0.  0.
         12    1    1    2    0    0  0.57015221899E+00  0.12754817587E+02  0.38602525072E+02  0.40659136577E+02  0.00000000000E+00 0. -1.
         11    1    3    3    0    0  0.71086581565E+00 -0.41620383429E+01  0.53097067161E+00  0.42555638276E+01  0.51100000000E-03 0. -1.
        -11    1    3    3    0    0  0.49493480709E+01 -0.72539057911E+01 -0.38918654183E+02  0.39897078079E+02  0.51100000000E-03 0.  1.
        -12    1    3    3    0    0 -0.62303661055E+01 -0.13388734531E+01 -0.21484156133E+00  0.63762215166E+01  0.00000000000E+00 0.  1.
</event>
<event>
 7    1  0.2991278E-011  0.5052884E+02  0.7816164E-02  0.1300439E+00
        -11   -1    0    0    0    0  0.00000000000E+00  0.00000000000E+00  0.45593999997E+02  0.45594000000E+02  0.51100000000E-03 0.  1.
         11   -1    0    0    0    0 -0.00000000000E+00 -0.00000000000E+00 -0.45593999997E+02  0.45594000000E+02  0.51100000000E-03 0. -1.
    9900012    2    1    2    0    0  0.24604777529E+02 -0.32248403032E+02  0.27951546800E+01  0.50528837871E+02  0.29999933192E+02 0.  0.
         12    1    1    2    0    0 -0.24604777529E+02  0.32248403032E+02 -0.27951546800E+01  0.40659162129E+02  0.00000000000E+00 0. -1.
         11    1    3    3    0    0  0.12666860255E+02 -0.33335510014E+02  0.67027842706E+01  0.36285436388E+02  0.51100000000E-03 0.  1.
        -11    1    3    3    0    0  0.58844283820E+01  0.30072489021E+01 -0.42940720473E+01  0.78809325813E+01  0.51100000000E-03 0. -1.
        -12    1    3    3    0    0  0.60534888914E+01 -0.19201419198E+01  0.38644245664E+00  0.63624689015E+01  0.00000000000E+00 0.  1.
</event>
<event>
 7    1  0.2991278E-011  0.5052886E+02  0.7816164E-02  0.1300439E+00
        -11   -1    0    0    0    0  0.00000000000E+00  0.00000000000E+00  0.45593999997E+02  0.45594000000E+02  0.51100000000E-03 0. -1.
         11   -1    0    0    0    0 -0.00000000000E+00 -0.00000000000E+00 -0.45593999997E+02  0.45594000000E+02  0.51100000000E-03 0.  1.
    9900012    2    1    2    0    0  0.34436447364E+02  0.19938472249E+02 -0.83519123081E+01  0.50528855618E+02  0.29999987137E+02 0.  0.
         12    1    1    2    0    0 -0.34436447364E+02 -0.19938472249E+02  0.83519123081E+01  0.40659144382E+02  0.00000000000E+00 0. -1.
         11    1    3    3    0    0  0.10677572237E+02 -0.40876063313E+01  0.31117956198E+01  0.11849149616E+02  0.51100000000E-03 0. -1.
        -11    1    3    3    0    0  0.23454909490E+02  0.18400345696E+02 -0.13451365681E+02  0.32705423708E+02  0.51100000000E-03 0.  1.
         12    1    3    3    0    0  0.30396563667E+00  0.56257328838E+01  0.19876577530E+01  0.59742822943E+01  0.00000000000E+00 0. -1.
</event>
<event>
 7    1  0.2991278E-011  0.5052886E+02  0.7816164E-02  0.1300439E+00
        -11   -1    0    0    0    0  0.00000000000E+00  0.00000000000E+00  0.45593999997E+02  0.45594000000E+02  0.51100000000E-03 0. -1.
         11   -1    0    0    0    0 -0.00000000000E+00 -0.00000000000E+00 -0.45593999997E+02  0.45594000000E+02  0.51100000000E-03 0.  1.
    9900012    2    1    2    0    0 -0.87307364234E+01 -0.10550780672E+02 -0.38283428687E+02  0.50528860273E+02  0.30000001287E+02 0.  0.
         12    1    1    2    0    0  0.87307364234E+01  0.10550780672E+02  0.38283428687E+02  0.40659139727E+02  0.00000000000E+00 0. -1.
         11    1    3    3    0    0  0.35384377181E+01 -0.33661812903E+01  0.19093203111E+01  0.52437793885E+01  0.51100000000E-03 0. -1.
        -11    1    3    3    0    0 -0.14997333083E+02 -0.58392823454E+01 -0.38665786880E+02  0.41881502996E+02  0.51100000000E-03 0.  1.
        -12    1    3    3    0    0  0.27281589411E+01 -0.13453170362E+01 -0.15269621179E+01  0.34035778888E+01  0.00000000000E+00 0.  1.
</event>
<event>
 7    1  0.2991278E-011  0.5052885E+02  0.7816164E-02  0.1300439E+00
        -11   -1    0    0    0    0  0.00000000000E+00  0.00000000000E+00  0.45593999997E+02  0.45594000000E+02  0.51100000000E-03 0.  1.
         11   -1    0    0    0    0 -0.00000000000E+00 -0.00000000000E+00 -0.45593999997E+02  0.45594000000E+02  0.51100000000E-03 0. -1.
    9900012    2    1    2    0    0  0.21086780120E+02 -0.34418365375E+02  0.48877909846E+01  0.50528847628E+02  0.29999962850E+02 0.  0.
         12    1    1    2    0    0 -0.21086780120E+02  0.34418365375E+02 -0.48877909846E+01  0.40659152372E+02  0.00000000000E+00 0. -1.
         11    1    3    3    0    0  0.26656475270E+02 -0.25234935813E+02  0.43436716931E+01  0.36962645243E+02  0.51100000000E-03 0. -1.
        -11    1    3    3    0    0 -0.29589388463E+01 -0.91103704750E+01  0.29421600982E+01  0.10020502761E+02  0.51100000000E-03 0.  1.
         12    1    3    3    0    0 -0.26107563040E+01 -0.73059086658E-01 -0.23980408067E+01  0.35456996234E+01  0.00000000000E+00 0. -1.
</event>
<event>
 7    1  0.2991278E-011  0.5052887E+02  0.7816164E-02  0.1300439E+00
        -11   -1    0    0    0    0  0.00000000000E+00  0.00000000000E+00  0.45593999997E+02  0.45594000000E+02  0.51100000000E-03 0.  1.
         11   -1    0    0    0    0 -0.00000000000E+00 -0.00000000000E+00 -0.45593999997E+02  0.45594000000E+02  0.51100000000E-03 0. -1.
    9900012    2    1    2    0    0 -0.31777131377E+02  0.21339738689E+02 -0.13711087609E+02  0.50528874957E+02  0.30000045919E+02 0.  0.
         12    1    1    2    0    0  0.31777131377E+02 -0.21339738689E+02  0.13711087609E+02  0.40659125043E+02  0.00000000000E+00 0. -1.
         11    1    3    3    0    0 -0.15381708812E+01 -0.13951729519E+01 -0.99012151869E+01  0.10116646661E+02  0.51100000000E-03 0. -1.
        -11    1    3    3    0    0 -0.17881493926E+02  0.18315670409E+02 -0.76890813795E+01  0.26727019667E+02  0.51100000000E-03 0.  1.
         12    1    3    3    0    0 -0.12357466570E+02  0.44192412315E+01  0.38792089570E+01  0.13685208629E+02  0.00000000000E+00 0. -1.
</event>
<event>
 7    1  0.2991278E-011  0.5052887E+02  0.7816164E-02  0.1300439E+00
        -11   -1    0    0    0    0  0.00000000000E+00  0.00000000000E+00  0.45593999997E+02  0.45594000000E+02  0.51100000000E-03 0. -1.
         11   -1    0    0    0    0 -0.00000000000E+00 -0.00000000000E+00 -0.45593999997E+02  0.45594000000E+02  0.51100000000E-03 0.  1.
    9900012    2    1    2    0    0  0.20940690468E+02 -0.51082516575E+01 -0.34475472444E+02  0.50528868768E+02  0.30000027108E+02 0.  0.
         12    1    1    2    0    0 -0.20940690468E+02  0.51082516575E+01  0.34475472444E+02  0.40659131232E+02  0.00000000000E+00 0. -1.
         11    1    3    3    0    0  0.10093002795E+01  0.24745338138E+01 -0.18452983299E+02  0.18645498051E+02  0.51100000000E-03 0.  1.
        -11    1    3    3    0    0 -0.73548346292E+00 -0.32453581290E+01  0.22014239976E+01  0.39899314765E+01  0.51100000000E-03 0. -1.
        -12    1    3    3    0    0  0.20666873652E+02 -0.43374273423E+01 -0.18223913142E+02  0.27893439241E+02  0.00000000000E+00 0.  1.
</event>
<event>
 7    1  0.2991278E-011  0.5052886E+02  0.7816164E-02  0.1300439E+00
        -11   -1    0    0    0    0  0.00000000000E+00  0.00000000000E+00  0.45593999997E+02  0.45594000000E+02  0.51100000000E-03 0. -1.
         11   -1    0    0    0    0 -0.00000000000E+00 -0.00000000000E+00 -0.45593999997E+02  0.45594000000E+02  0.51100000000E-03 0.  1.
    9900012    2    1    2    0    0  0.13589841725E+02  0.17761348481E+02 -0.33956090076E+02  0.50528863865E+02  0.30000012205E+02 0.  0.
         12    1    1    2    0    0 -0.13589841725E+02 -0.17761348481E+02  0.33956090076E+02  0.40659136135E+02  0.00000000000E+00 0. -1.
         11    1    3    3    0    0 -0.18502279440E+00 -0.14353565538E+01 -0.12511925873E+00  0.14526310478E+01  0.51100000000E-03 0. -1.
        -11    1    3    3    0    0  0.11628132629E+02  0.19666804554E+02 -0.38013717561E+02  0.44351317825E+02  0.51100000000E-03 0.  1.
        -12    1    3    3    0    0  0.21467318903E+01 -0.47009951876E+00  0.41827467434E+01  0.47249149924E+01  0.00000000000E+00 0.  1.
</event>
<event>
 7    1  0.2991278E-011  0.5052887E+02  0.7816164E-02  0.1300439E+00
        -11   -1    0    0    0    0  0.00000000000E+00  0.00000000000E+00  0.45593999997E+02  0.45594000000E+02  0.51100000000E-03 0.  1.
         11   -1    0    0    0    0 -0.00000000000E+00 -0.00000000000E+00 -0.45593999997E+02  0.45594000000E+02  0.51100000000E-03 0. -1.
    9900012    2    1    2    0    0 -0.68052925590E+01  0.13947211922E+02  0.37580956145E+02  0.50528868283E+02  0.30000025632E+02 0.  0.
         12    1    1    2    0    0  0.68052925590E+01 -0.13947211922E+02 -0.37580956145E+02  0.40659131717E+02  0.00000000000E+00 0. -1.
         11    1    3    3    0    0 -0.27180736227E+01 -0.22056651935E+01  0.16647830531E+02  0.17011853068E+02  0.51100000000E-03 0. -1.
        -11    1    3    3    0    0  0.34816822991E+00  0.19899929961E+02  0.13347284411E+02  0.23964107222E+02  0.51100000000E-03 0.  1.
        -12    1    3    3    0    0 -0.44353871663E+01 -0.37470528450E+01  0.75858412034E+01  0.95529079919E+01  0.00000000000E+00 0.  1.
</event>
<event>
 7    1  0.2991278E-011  0.5052887E+02  0.7816164E-02  0.1300439E+00
        -11   -1    0    0    0    0  0.00000000000E+00  0.00000000000E+00  0.45593999997E+02  0.45594000000E+02  0.51100000000E-03 0.  1.
         11   -1    0    0    0    0 -0.00000000000E+00 -0.00000000000E+00 -0.45593999997E+02  0.45594000000E+02  0.51100000000E-03 0. -1.
    9900012    2    1    2    0    0  0.40057165355E+02  0.68897653516E+01 -0.10581018678E+01  0.50528868892E+02  0.30000027485E+02 0.  0.
         12    1    1    2    0    0 -0.40057165355E+02 -0.68897653516E+01  0.10581018678E+01  0.40659131108E+02  0.00000000000E+00 0. -1.
         11    1    3    3    0    0 -0.32988477716E+01  0.79669377889E+00  0.42160426067E+01  0.54122207198E+01  0.51100000000E-03 0. -1.
        -11    1    3    3    0    0  0.33534098442E+02  0.79940719919E+01 -0.63536541747E+01  0.35054384418E+02  0.51100000000E-03 0.  1.
         12    1    3    3    0    0  0.98219146846E+01 -0.19010004191E+01  0.10795097002E+01  0.10062263754E+02  0.00000000000E+00 0. -1.
</event>
<event>
 7    1  0.2991278E-011  0.5052886E+02  0.7816164E-02  0.1300439E+00
        -11   -1    0    0    0    0  0.00000000000E+00  0.00000000000E+00  0.45593999997E+02  0.45594000000E+02  0.51100000000E-03 0. -1.
         11   -1    0    0    0    0 -0.00000000000E+00 -0.00000000000E+00 -0.45593999997E+02  0.45594000000E+02  0.51100000000E-03 0.  1.
    9900012    2    1    2    0    0  0.36651803496E+02 -0.17448576887E+02 -0.23147681826E+01  0.50528859741E+02  0.29999999669E+02 0.  0.
         12    1    1    2    0    0 -0.36651803496E+02  0.17448576887E+02  0.23147681826E+01  0.40659140259E+02  0.00000000000E+00 0. -1.
         11    1    3    3    0    0  0.35010570237E+02 -0.24338319758E+02 -0.40901652782E+01  0.42834837331E+02  0.51100000000E-03 0. -1.
        -11    1    3    3    0    0 -0.61365043916E+00  0.16972659999E+01  0.67642522689E+00  0.19273894481E+01  0.51100000000E-03 0.  1.
         12    1    3    3    0    0  0.22548836977E+01  0.51924768709E+01  0.10989718687E+01  0.57666329615E+01  0.00000000000E+00 0. -1.
</event>
<event>
 7    1  0.2991278E-011  0.5052886E+02  0.7816164E-02  0.1300439E+00
        -11   -1    0    0    0    0  0.00000000000E+00  0.00000000000E+00  0.45593999997E+02  0.45594000000E+02  0.51100000000E-03 0. -1.
         11   -1    0    0    0    0 -0.00000000000E+00 -0.00000000000E+00 -0.45593999997E+02  0.45594000000E+02  0.51100000000E-03 0.  1.
    9900012    2    1    2    0    0  0.57662974742E+01  0.39431531018E+02 -0.80665834199E+01  0.50528860891E+02  0.30000003165E+02 0.  0.
         12    1    1    2    0    0 -0.57662974742E+01 -0.39431531018E+02  0.80665834199E+01  0.40659139109E+02  0.00000000000E+00 0. -1.
         11    1    3    3    0    0  0.16500955989E+01 -0.17310124406E+00 -0.38638185939E+01  0.42049820349E+01  0.51100000000E-03 0. -1.
        -11    1    3    3    0    0  0.67623681509E+01  0.19845901854E+02  0.85674000127E+01  0.22649277840E+02  0.51100000000E-03 0.  1.
        -12    1    3    3    0    0 -0.26461662756E+01  0.19758730408E+02 -0.12770164839E+02  0.23674601017E+02  0.00000000000E+00 0.  1.
</event>
<event>
 7    1  0.2991278E-011  0.5052886E+02  0.7816164E-02  0.1300439E+00
        -11   -1    0    0    0    0  0.00000000000E+00  0.00000000000E+00  0.45593999997E+02  0.45594000000E+02  0.51100000000E-03 0. -1.
         11   -1    0    0    0    0 -0.00000000000E+00 -0.00000000000E+00 -0.45593999997E+02  0.45594000000E+02  0.51100000000E-03 0.  1.
    9900012    2    1    2    0    0  0.89210353241E+01 -0.21380166314E+02 -0.33413606152E+02  0.50528862541E+02  0.30000008179E+02 0.  0.
         12    1    1    2    0    0 -0.89210353241E+01  0.21380166314E+02  0.33413606152E+02  0.40659137459E+02  0.00000000000E+00 0. -1.
         11    1    3    3    0    0  0.10547182501E+01 -0.39569784035E+00  0.25655705829E+01  0.28019921565E+01  0.51100000000E-03 0. -1.
        -11    1    3    3    0    0 -0.24660079180E+01 -0.17632659718E+02 -0.31063245245E+02  0.35803869752E+02  0.51100000000E-03 0.  1.
        -12    1    3    3    0    0  0.10332324992E+02 -0.33518087550E+01 -0.49159314901E+01  0.11923000633E+02  0.00000000000E+00 0.  1.
</event>
<event>
 7    1  0.2991278E-011  0.5052886E+02  0.7816164E-02  0.1300439E+00
        -11   -1    0    0    0    0  0.00000000000E+00  0.00000000000E+00  0.45593999997E+02  0.45594000000E+02  0.51100000000E-03 0.  1.
         11   -1    0    0    0    0 -0.00000000000E+00 -0.00000000000E+00 -0.45593999997E+02  0.45594000000E+02  0.51100000000E-03 0. -1.
    9900012    2    1    2    0    0 -0.73688629460E+01  0.27226942329E+02  0.29284108635E+02  0.50528861442E+02  0.30000004839E+02 0.  0.
         12    1    1    2    0    0  0.73688629460E+01 -0.27226942329E+02 -0.29284108635E+02  0.40659138558E+02  0.00000000000E+00 0. -1.
         11    1    3    3    0    0 -0.10063427416E+02  0.18171405378E+02  0.96319848890E+01  0.22896455576E+02  0.51100000000E-03 0. -1.
        -11    1    3    3    0    0  0.85885932858E+01  0.10250564445E+02  0.12738123691E+02  0.18468833247E+02  0.51100000000E-03 0.  1.
         12    1    3    3    0    0 -0.58940288155E+01 -0.11950274936E+01  0.69140000548E+01  0.91635726191E+01  0.00000000000E+00 0. -1.
</event>
<event>
 7    1  0.2991278E-011  0.5052886E+02  0.7816164E-02  0.1300439E+00
        -11   -1    0    0    0    0  0.00000000000E+00  0.00000000000E+00  0.45593999997E+02  0.45594000000E+02  0.51100000000E-03 0. -1.
         11   -1    0    0    0    0 -0.00000000000E+00 -0.00000000000E+00 -0.45593999997E+02  0.45594000000E+02  0.51100000000E-03 0.  1.
    9900012    2    1    2    0    0  0.36019577193E+02 -0.98652855086E+01 -0.16075804675E+02  0.50528864553E+02  0.30000014296E+02 0.  0.
         12    1    1    2    0    0 -0.36019577193E+02  0.98652855086E+01  0.16075804675E+02  0.40659135447E+02  0.00000000000E+00 0. -1.
         11    1    3    3    0    0  0.13566143671E+02 -0.91366596686E+01 -0.67263812896E+01  0.17685106998E+02  0.51100000000E-03 0. -1.
        -11    1    3    3    0    0  0.18321919720E+02  0.79001148500E+01 -0.72877333067E+00  0.19965862558E+02  0.51100000000E-03 0.  1.
        -12    1    3    3    0    0  0.41315138018E+01 -0.86287406900E+01 -0.86206500549E+01  0.12877894997E+02  0.00000000000E+00 0.  1.
</event>
<event>
 7    1  0.2991278E-011  0.5052887E+02  0.7816164E-02  0.1300439E+00
        -11   -1    0    0    0    0  0.00000000000E+00  0.00000000000E+00  0.45593999997E+02  0.45594000000E+02  0.51100000000E-03 0.  1.
         11   -1    0    0    0    0 -0.00000000000E+00 -0.00000000000E+00 -0.45593999997E+02  0.45594000000E+02  0.51100000000E-03 0. -1.
    9900012    2    1    2    0    0 -0.39671698332E+02  0.40190460564E+01 -0.79478497599E+01  0.50528871928E+02  0.30000036712E+02 0.  0.
         12    1    1    2    0    0  0.39671698332E+02 -0.40190460564E+01  0.79478497599E+01  0.40659128072E+02  0.00000000000E+00 0. -1.
         11    1    3    3    0    0 -0.35708535478E+02  0.81959079310E+01 -0.12764707102E+02  0.38797038037E+02  0.51100000000E-03 0. -1.
        -11    1    3    3    0    0 -0.41751955665E+01 -0.41644483213E+01  0.72183791404E+01  0.93209380169E+01  0.51100000000E-03 0.  1.
        -12    1    3    3    0    0  0.21203271230E+00 -0.12413553275E-01 -0.24015217980E+01  0.24108958737E+01  0.00000000000E+00 0.  1.
</event>
<event>
 7    1  0.2991278E-011  0.5052884E+02  0.7816164E-02  0.1300439E+00
        -11   -1    0    0    0    0  0.00000000000E+00  0.00000000000E+00  0.45593999997E+02  0.45594000000E+02  0.51100000000E-03 0.  1.
         11   -1    0    0    0    0 -0.00000000000E+00 -0.00000000000E+00 -0.45593999997E+02  0.45594000000E+02  0.51100000000E-03 0. -1.
    9900012    2    1    2    0    0 -0.99106830670E+01 -0.31681689480E+02  0.23477999518E+02  0.50528836844E+02  0.29999930071E+02 0.  0.
         12    1    1    2    0    0  0.99106830670E+01  0.31681689480E+02 -0.23477999518E+02  0.40659163156E+02  0.00000000000E+00 0. -1.
         11    1    3    3    0    0 -0.12465856252E+02 -0.56148147372E+01  0.10134465138E+02  0.17018551657E+02  0.51100000000E-03 0.  1.
        -11    1    3    3    0    0  0.26252728767E+01 -0.20673302725E+02  0.17083377130E+02  0.26946600484E+02  0.51100000000E-03 0. -1.
         12    1    3    3    0    0 -0.70099691931E-01 -0.53935720187E+01 -0.37398427498E+01  0.65636847030E+01  0.00000000000E+00 0. -1.
</event>
<event>
 7    1  0.2991278E-011  0.5052886E+02  0.7816164E-02  0.1300439E+00
        -11   -1    0    0    0    0  0.00000000000E+00  0.00000000000E+00  0.45593999997E+02  0.45594000000E+02  0.51100000000E-03 0.  1.
         11   -1    0    0    0    0 -0.00000000000E+00 -0.00000000000E+00 -0.45593999997E+02  0.45594000000E+02  0.51100000000E-03 0. -1.
    9900012    2    1    2    0    0 -0.11307481577E+02  0.27008878333E+02  0.28210401267E+02  0.50528863413E+02  0.30000010829E+02 0.  0.
         12    1    1    2    0    0  0.11307481577E+02 -0.27008878333E+02 -0.28210401267E+02  0.40659136587E+02  0.00000000000E+00 0. -1.
         11    1    3    3    0    0 -0.12204756308E+02 -0.10684726489E+01  0.10998500150E+02  0.16464043129E+02  0.51100000000E-03 0. -1.
        -11    1    3    3    0    0 -0.83750895847E+00  0.46852762670E+01 -0.33543348057E+00  0.47713468575E+01  0.51100000000E-03 0.  1.
         12    1    3    3    0    0  0.17347836893E+01  0.23392074715E+02  0.17547334597E+02  0.29293473426E+02  0.00000000000E+00 0. -1.
</event>
<event>
 7    1  0.2991278E-011  0.5052886E+02  0.7816164E-02  0.1300439E+00
        -11   -1    0    0    0    0  0.00000000000E+00  0.00000000000E+00  0.45593999997E+02  0.45594000000E+02  0.51100000000E-03 0.  1.
         11   -1    0    0    0    0 -0.00000000000E+00 -0.00000000000E+00 -0.45593999997E+02  0.45594000000E+02  0.51100000000E-03 0. -1.
    9900012    2    1    2    0    0 -0.40216522239E+02  0.48178259677E+01 -0.35476215043E+01  0.50528859252E+02  0.29999998183E+02 0.  0.
         12    1    1    2    0    0  0.40216522239E+02 -0.48178259677E+01  0.35476215043E+01  0.40659140748E+02  0.00000000000E+00 0. -1.
         11    1    3    3    0    0 -0.10845026587E+02  0.32474287460E+00 -0.52043437958E+01  0.12033505483E+02  0.51100000000E-03 0. -1.
        -11    1    3    3    0    0 -0.15467283085E+02  0.14523824348E+02  0.22779565126E+01  0.21339339396E+02  0.51100000000E-03 0.  1.
        -12    1    3    3    0    0 -0.13904212567E+02 -0.10030741255E+02 -0.62123422111E+00  0.17156014374E+02  0.00000000000E+00 0.  1.
</event>
<event>
 7    1  0.2991278E-011  0.5052880E+02  0.7816164E-02  0.1300439E+00
        -11   -1    0    0    0    0  0.00000000000E+00  0.00000000000E+00  0.45593999997E+02  0.45594000000E+02  0.51100000000E-03 0.  1.
         11   -1    0    0    0    0 -0.00000000000E+00 -0.00000000000E+00 -0.45593999997E+02  0.45594000000E+02  0.51100000000E-03 0. -1.
    9900012    2    1    2    0    0  0.18355302868E+02  0.69593302573E+01  0.35606470626E+02  0.50528804590E+02  0.29999832031E+02 0.  0.
         12    1    1    2    0    0 -0.18355302868E+02 -0.69593302573E+01 -0.35606470626E+02  0.40659195410E+02  0.00000000000E+00 0. -1.
         11    1    3    3    0    0  0.86542247328E+01  0.70828315695E+01 -0.17235613798E+01  0.11315156776E+02  0.51100000000E-03 0. -1.
        -11    1    3    3    0    0  0.53536001873E+01 -0.35463844865E+01  0.18212798524E+02  0.19311755700E+02  0.51100000000E-03 0.  1.
         12    1    3    3    0    0  0.43474779476E+01  0.34228831743E+01  0.19117233481E+02  0.19901892114E+02  0.00000000000E+00 0. -1.
</event>
<event>
 7    1  0.2991278E-011  0.5052887E+02  0.7816164E-02  0.1300439E+00
        -11   -1    0    0    0    0  0.00000000000E+00  0.00000000000E+00  0.45593999997E+02  0.45594000000E+02  0.51100000000E-03 0.  1.
         11   -1    0    0    0    0 -0.00000000000E+00 -0.00000000000E+00 -0.45593999997E+02  0.45594000000E+02  0.51100000000E-03 0. -1.
    9900012    2    1    2    0    0 -0.35865345056E+01  0.35370701724E+02  0.19728532529E+02  0.50528871062E+02  0.30000034081E+02 0.  0.
         12    1    1    2    0    0  0.35865345056E+01 -0.35370701724E+02 -0.19728532529E+02  0.40659128938E+02  0.00000000000E+00 0. -1.
         11    1    3    3    0    0  0.10143940409E+02  0.25733376153E+01  0.29390235393E+01  0.10870117438E+02  0.51100000000E-03 0. -1.
        -11    1    3    3    0    0 -0.48231099386E+01  0.15110177803E+02  0.50921601066E+01  0.16658630121E+02  0.51100000000E-03 0.  1.
         12    1    3    3    0    0 -0.89073649758E+01  0.17687186306E+02  0.11697348883E+02  0.23000123503E+02  0.00000000000E+00 0. -1.
</event>
<event>
 7    1  0.2991278E-011  0.5052888E+02  0.7816164E-02  0.1300439E+00
        -11   -1    0    0    0    0  0.00000000000E+00  0.00000000000E+00  0.45593999997E+02  0.45594000000E+02  0.51100000000E-03 0. -1.
         11   -1    0    0    0    0 -0.00000000000E+00 -0.00000000000E+00 -0.45593999997E+02  0.45594000000E+02  0.51100000000E-03 0.  1.
    9900012    2    1    2    0    0 -0.12947572741E+02 -0.37361091183E+02 -0.94696064454E+01  0.50528877770E+02  0.30000054469E+02 0.  0.
         12    1    1    2    0    0  0.12947572741E+02  0.37361091183E+02  0.94696064454E+01  0.40659122230E+02  0.00000000000E+00 0. -1.
         11    1    3    3    0    0  0.45999634746E+01 -0.17295488279E+01 -0.19734509099E+01  0.52958013436E+01  0.51100000000E-03 0. -1.
        -11    1    3    3    0    0 -0.94681533672E+01 -0.35163953633E+02 -0.72823986100E+01  0.37137351724E+02  0.51100000000E-03 0.  1.
        -12    1    3    3    0    0 -0.80793828488E+01 -0.46758872255E+00 -0.21375692551E+00  0.80957247022E+01  0.00000000000E+00 0.  1.
</event>
<event>
 7    1  0.2991278E-011  0.5052886E+02  0.7816164E-02  0.1300439E+00
        -11   -1    0    0    0    0  0.00000000000E+00  0.00000000000E+00  0.45593999997E+02  0.45594000000E+02  0.51100000000E-03 0. -1.
         11   -1    0    0    0    0 -0.00000000000E+00 -0.00000000000E+00 -0.45593999997E+02  0.45594000000E+02  0.51100000000E-03 0.  1.
    9900012    2    1    2    0    0 -0.57695647694E+01 -0.65714837579E+01 -0.39707597909E+02  0.50528860707E+02  0.30000002604E+02 0.  0.
         12    1    1    2    0    0  0.57695647694E+01  0.65714837579E+01  0.39707597909E+02  0.40659139293E+02  0.00000000000E+00 0. -1.
         11    1    3    3    0    0  0.57534485767E+00  0.42540319976E+01 -0.28252797079E+01  0.51390675839E+01  0.51100000000E-03 0. -1.
        -11    1    3    3    0    0  0.22647920969E+01 -0.12925892661E+02 -0.33368924056E+02  0.35856562541E+02  0.51100000000E-03 0.  1.
        -12    1    3    3    0    0 -0.86097017240E+01  0.21003769050E+01 -0.35133941446E+01  0.95332305823E+01  0.00000000000E+00 0.  1.
</event>
<event>
 7    1  0.2991278E-011  0.5052886E+02  0.7816164E-02  0.1300439E+00
        -11   -1    0    0    0    0  0.00000000000E+00  0.00000000000E+00  0.45593999997E+02  0.45594000000E+02  0.51100000000E-03 0. -1.
         11   -1    0    0    0    0 -0.00000000000E+00 -0.00000000000E+00 -0.45593999997E+02  0.45594000000E+02  0.51100000000E-03 0.  1.
    9900012    2    1    2    0    0  0.18490931187E+02  0.19079025172E+02 -0.30777292783E+02  0.50528862175E+02  0.30000007067E+02 0.  0.
         12    1    1    2    0    0 -0.18490931187E+02 -0.19079025172E+02  0.30777292783E+02  0.40659137825E+02  0.00000000000E+00 0. -1.
         11    1    3    3    0    0 -0.14440270445E+01  0.17565553593E+02 -0.17032431096E+02  0.24509948928E+02  0.51100000000E-03 0. -1.
        -11    1    3    3    0    0  0.16618235407E+02  0.10719001598E+01 -0.62072463649E+01  0.17772018053E+02  0.51100000000E-03 0.  1.
         12    1    3    3    0    0  0.33167228245E+01  0.44157141941E+00 -0.75376153213E+01  0.82468951942E+01  0.00000000000E+00 0. -1.
</event>
<event>
 7    1  0.2991278E-011  0.5052886E+02  0.7816164E-02  0.1300439E+00
        -11   -1    0    0    0    0  0.00000000000E+00  0.00000000000E+00  0.45593999997E+02  0.45594000000E+02  0.51100000000E-03 0.  1.
         11   -1    0    0    0    0 -0.00000000000E+00 -0.00000000000E+00 -0.45593999997E+02  0.45594000000E+02  0.51100000000E-03 0. -1.
    9900012    2    1    2    0    0  0.32315816221E+01 -0.37633047454E+02  0.15049127091E+02  0.50528860725E+02  0.30000002659E+02 0.  0.
         12    1    1    2    0    0 -0.32315816221E+01  0.37633047454E+02 -0.15049127091E+02  0.40659139275E+02  0.00000000000E+00 0. -1.
         11    1    3    3    0    0  0.84801107877E+01 -0.37440613270E+01  0.11476576002E+01  0.93406312646E+01  0.51100000000E-03 0. -1.
        -11    1    3    3    0    0 -0.10392786401E+02 -0.26238554021E+02  0.55784523945E+01  0.28767878922E+02  0.51100000000E-03 0.  1.
         12    1    3    3    0    0  0.51442572358E+01 -0.76504321059E+01  0.83230170958E+01  0.12420350538E+02  0.00000000000E+00 0. -1.
</event>
<event>
 7    1  0.2991278E-011  0.5052886E+02  0.7816164E-02  0.1300439E+00
        -11   -1    0    0    0    0  0.00000000000E+00  0.00000000000E+00  0.45593999997E+02  0.45594000000E+02  0.51100000000E-03 0.  1.
         11   -1    0    0    0    0 -0.00000000000E+00 -0.00000000000E+00 -0.45593999997E+02  0.45594000000E+02  0.51100000000E-03 0. -1.
    9900012    2    1    2    0    0  0.31182808651E+02  0.24662705820E+02  0.85175678673E+01  0.50528861100E+02  0.30000003799E+02 0.  0.
         12    1    1    2    0    0 -0.31182808651E+02 -0.24662705820E+02 -0.85175678673E+01  0.40659138900E+02  0.00000000000E+00 0. -1.
         11    1    3    3    0    0  0.14157622088E+01  0.10085290413E+02 -0.18626543647E+01  0.10353112908E+02  0.51100000000E-03 0. -1.
        -11    1    3    3    0    0  0.26823949225E+02  0.41607899585E+01  0.11101984009E+02  0.29327299131E+02  0.51100000000E-03 0.  1.
        -12    1    3    3    0    0  0.29430972174E+01  0.10416625448E+02 -0.72176177734E+00  0.10848449061E+02  0.00000000000E+00 0.  1.
</event>
<event>
 7    1  0.2991278E-011  0.5052883E+02  0.7816164E-02  0.1300439E+00
        -11   -1    0    0    0    0  0.00000000000E+00  0.00000000000E+00  0.45593999997E+02  0.45594000000E+02  0.51100000000E-03 0.  1.
         11   -1    0    0    0    0 -0.00000000000E+00 -0.00000000000E+00 -0.45593999997E+02  0.45594000000E+02  0.51100000000E-03 0. -1.
    9900012    2    1    2    0    0 -0.15927073277E+01  0.19593069745E+02  0.35591329619E+02  0.50528833226E+02  0.29999919074E+02 0.  0.
         12    1    1    2    0    0  0.15927073277E+01 -0.19593069745E+02 -0.35591329619E+02  0.40659166774E+02  0.00000000000E+00 0. -1.
         11    1    3    3    0    0  0.63035743260E+01  0.18118364522E+02  0.24593919315E+02  0.31190880875E+02  0.51100000000E-03 0.  1.
        -11    1    3    3    0    0 -0.19089858017E+01 -0.13788933834E+00 -0.32657432241E+01  0.37852766515E+01  0.51100000000E-03 0. -1.
         12    1    3    3    0    0 -0.59872958520E+01  0.16125945613E+01  0.14263153529E+02  0.15552675700E+02  0.00000000000E+00 0. -1.
</event>
<event>
 7    1  0.2991278E-011  0.5052888E+02  0.7816164E-02  0.1300439E+00
        -11   -1    0    0    0    0  0.00000000000E+00  0.00000000000E+00  0.45593999997E+02  0.45594000000E+02  0.51100000000E-03 0.  1.
         11   -1    0    0    0    0 -0.00000000000E+00 -0.00000000000E+00 -0.45593999997E+02  0.45594000000E+02  0.51100000000E-03 0. -1.
    9900012    2    1    2    0    0  0.61663088831E+01 -0.26403983451E+02  0.30298021890E+02  0.50528882477E+02  0.30000068777E+02 0.  0.
         12    1    1    2    0    0 -0.61663088831E+01  0.26403983451E+02 -0.30298021890E+02  0.40659117523E+02  0.00000000000E+00 0. -1.
         11    1    3    3    0    0 -0.25855012336E+00 -0.16071537786E+02  0.28848659331E+02  0.33024329220E+02  0.51100000000E-03 0. -1.
        -11    1    3    3    0    0  0.10044280987E+02 -0.56802253641E+01  0.12520395899E+01  0.11606900711E+02  0.51100000000E-03 0.  1.
         12    1    3    3    0    0 -0.36194219801E+01 -0.46522203010E+01  0.19732296918E+00  0.58976525460E+01  0.00000000000E+00 0. -1.
</event>
<event>
 7    1  0.2991278E-011  0.5052885E+02  0.7816164E-02  0.1300439E+00
        -11   -1    0    0    0    0  0.00000000000E+00  0.00000000000E+00  0.45593999997E+02  0.45594000000E+02  0.51100000000E-03 0. -1.
         11   -1    0    0    0    0 -0.00000000000E+00 -0.00000000000E+00 -0.45593999997E+02  0.45594000000E+02  0.51100000000E-03 0.  1.
    9900012    2    1    2    0    0  0.88884955145E+01 -0.36201893541E+02  0.16235274714E+02  0.50528848588E+02  0.29999965769E+02 0.  0.
         12    1    1    2    0    0 -0.88884955145E+01  0.36201893541E+02 -0.16235274714E+02  0.40659151412E+02  0.00000000000E+00 0. -1.
         11    1    3    3    0    0  0.50519903159E+01 -0.28949502864E+01  0.13381206775E+02  0.14593150391E+02  0.51100000000E-03 0. -1.
        -11    1    3    3    0    0 -0.45097362976E+01 -0.85623522843E+01  0.14319639324E+01  0.97827459887E+01  0.51100000000E-03 0.  1.
         12    1    3    3    0    0  0.83462414962E+01 -0.24744590970E+02  0.14221040059E+01  0.26152952208E+02  0.00000000000E+00 0. -1.
</event>
<event>
 7    1  0.2991278E-011  0.5052885E+02  0.7816164E-02  0.1300439E+00
        -11   -1    0    0    0    0  0.00000000000E+00  0.00000000000E+00  0.45593999997E+02  0.45594000000E+02  0.51100000000E-03 0.  1.
         11   -1    0    0    0    0 -0.00000000000E+00 -0.00000000000E+00 -0.45593999997E+02  0.45594000000E+02  0.51100000000E-03 0. -1.
    9900012    2    1    2    0    0 -0.59741982745E+00 -0.27779672160E+02  0.29683313064E+02  0.50528853793E+02  0.29999981590E+02 0.  0.
         12    1    1    2    0    0  0.59741982745E+00  0.27779672160E+02 -0.29683313064E+02  0.40659146207E+02  0.00000000000E+00 0. -1.
         11    1    3    3    0    0 -0.49999695308E+01 -0.16350465976E+02  0.24744487024E+01  0.17276004445E+02  0.51100000000E-03 0. -1.
        -11    1    3    3    0    0  0.73180634641E+01 -0.12586519769E+02  0.26172034885E+02  0.29949122576E+02  0.51100000000E-03 0.  1.
         12    1    3    3    0    0 -0.29155137608E+01  0.11573135848E+01  0.10368294766E+01  0.33037267724E+01  0.00000000000E+00 0. -1.
</event>
<event>
 7    1  0.2991278E-011  0.5052886E+02  0.7816164E-02  0.1300439E+00
        -11   -1    0    0    0    0  0.00000000000E+00  0.00000000000E+00  0.45593999997E+02  0.45594000000E+02  0.51100000000E-03 0. -1.
         11   -1    0    0    0    0 -0.00000000000E+00 -0.00000000000E+00 -0.45593999997E+02  0.45594000000E+02  0.51100000000E-03 0.  1.
    9900012    2    1    2    0    0  0.10259129455E+02  0.12442069175E+02 -0.37324402013E+02  0.50528858246E+02  0.29999995126E+02 0.  0.
         12    1    1    2    0    0 -0.10259129455E+02 -0.12442069175E+02  0.37324402013E+02  0.40659141754E+02  0.00000000000E+00 0. -1.
         11    1    3    3    0    0  0.13138464737E-01  0.67893255660E+01  0.29076166222E+00  0.67955615563E+01  0.51100000000E-03 0. -1.
        -11    1    3    3    0    0  0.79683506577E+01  0.32225473092E+01 -0.39138191192E+02  0.40070905073E+02  0.51100000000E-03 0.  1.
        -12    1    3    3    0    0  0.22776403323E+01  0.24301962995E+01  0.15230275169E+01  0.36623916167E+01  0.00000000000E+00 0.  1.
</event>
<event>
 7    1  0.2991278E-011  0.5052886E+02  0.7816164E-02  0.1300439E+00
        -11   -1    0    0    0    0  0.00000000000E+00  0.00000000000E+00  0.45593999997E+02  0.45594000000E+02  0.51100000000E-03 0.  1.
         11   -1    0    0    0    0 -0.00000000000E+00 -0.00000000000E+00 -0.45593999997E+02  0.45594000000E+02  0.51100000000E-03 0. -1.
    9900012    2    1    2    0    0  0.12232167339E+02 -0.33674237216E+02  0.19224610085E+02  0.50528858312E+02  0.29999995325E+02 0.  0.
         12    1    1    2    0    0 -0.12232167339E+02  0.33674237216E+02 -0.19224610085E+02  0.40659141688E+02  0.00000000000E+00 0. -1.
         11    1    3    3    0    0 -0.92661993372E+01 -0.75997243889E+01  0.76449600191E+01  0.14214910302E+02  0.51100000000E-03 0. -1.
        -11    1    3    3    0    0  0.11759100600E+02 -0.93847968873E+01  0.41031870429E+01  0.15594454261E+02  0.51100000000E-03 0.  1.
         12    1    3    3    0    0  0.97392660762E+01 -0.16689715940E+02  0.74764630228E+01  0.20719493749E+02  0.00000000000E+00 0. -1.
</event>
<event>
 7    1  0.2991278E-011  0.5052885E+02  0.7816164E-02  0.1300439E+00
        -11   -1    0    0    0    0  0.00000000000E+00  0.00000000000E+00  0.45593999997E+02  0.45594000000E+02  0.51100000000E-03 0. -1.
         11   -1    0    0    0    0 -0.00000000000E+00 -0.00000000000E+00 -0.45593999997E+02  0.45594000000E+02  0.51100000000E-03 0.  1.
    9900012    2    1    2    0    0 -0.38626511748E+02  0.89130488473E+01 -0.90397169294E+01  0.50528851808E+02  0.29999975555E+02 0.  0.
         12    1    1    2    0    0  0.38626511748E+02 -0.89130488473E+01  0.90397169294E+01  0.40659148192E+02  0.00000000000E+00 0. -1.
         11    1    3    3    0    0  0.43940798344E+00  0.62959948979E+01  0.35247078049E+01  0.72288447556E+01  0.51100000000E-03 0. -1.
        -11    1    3    3    0    0 -0.33152807052E+02  0.68185714026E+01 -0.81696122931E+01  0.34818731979E+02  0.51100000000E-03 0.  1.
         12    1    3    3    0    0 -0.59131126794E+01 -0.42015174531E+01 -0.43948124412E+01  0.84812750729E+01  0.00000000000E+00 0. -1.
</event>
<event>
 7    1  0.2991278E-011  0.5052882E+02  0.7816164E-02  0.1300439E+00
        -11   -1    0    0    0    0  0.00000000000E+00  0.00000000000E+00  0.45593999997E+02  0.45594000000E+02  0.51100000000E-03 0.  1.
         11   -1    0    0    0    0 -0.00000000000E+00 -0.00000000000E+00 -0.45593999997E+02  0.45594000000E+02  0.51100000000E-03 0. -1.
    9900012    2    1    2    0    0 -0.12718503275E+02  0.20870514733E+02  0.32493537025E+02  0.50528823186E+02  0.29999888557E+02 0.  0.
         12    1    1    2    0    0  0.12718503275E+02 -0.20870514733E+02 -0.32493537025E+02  0.40659176814E+02  0.00000000000E+00 0. -1.
         11    1    3    3    0    0  0.14534834063E+01  0.54143108184E+00 -0.37270423094E+01  0.40369055309E+01  0.51100000000E-03 0. -1.
        -11    1    3    3    0    0 -0.98461856298E+01  0.18021392140E+02  0.17010329401E+02  0.26665881810E+02  0.51100000000E-03 0.  1.
        -12    1    3    3    0    0 -0.43258010512E+01  0.23076915111E+01  0.19210249933E+02  0.19826035845E+02  0.00000000000E+00 0.  1.
</event>
<event>
 7    1  0.2991278E-011  0.5052886E+02  0.7816164E-02  0.1300439E+00
        -11   -1    0    0    0    0  0.00000000000E+00  0.00000000000E+00  0.45593999997E+02  0.45594000000E+02  0.51100000000E-03 0.  1.
         11   -1    0    0    0    0 -0.00000000000E+00 -0.00000000000E+00 -0.45593999997E+02  0.45594000000E+02  0.51100000000E-03 0. -1.
    9900012    2    1    2    0    0 -0.35156662441E+02 -0.17571947914E+02  0.10411582099E+02  0.50528864381E+02  0.30000013774E+02 0.  0.
         12    1    1    2    0    0  0.35156662441E+02  0.17571947914E+02 -0.10411582099E+02  0.40659135619E+02  0.00000000000E+00 0. -1.
         11    1    3    3    0    0 -0.25754512222E+02 -0.20058511081E+02 -0.29481233426E+01  0.32776976647E+02  0.51100000000E-03 0. -1.
        -11    1    3    3    0    0 -0.50644835541E+01 -0.20021570644E+01  0.63737467274E+01  0.83834524025E+01  0.51100000000E-03 0.  1.
         12    1    3    3    0    0 -0.43376666646E+01  0.44887202323E+01  0.69859587140E+01  0.93684353320E+01  0.00000000000E+00 0. -1.
</event>
<event>
 7    1  0.2991278E-011  0.5052893E+02  0.7816164E-02  0.1300439E+00
        -11   -1    0    0    0    0  0.00000000000E+00  0.00000000000E+00  0.45593999997E+02  0.45594000000E+02  0.51100000000E-03 0.  1.
         11   -1    0    0    0    0 -0.00000000000E+00 -0.00000000000E+00 -0.45593999997E+02  0.45594000000E+02  0.51100000000E-03 0. -1.
    9900012    2    1    2    0    0 -0.32933650503E+02 -0.10075666156E+02  0.21610535453E+02  0.50528934264E+02  0.30000226188E+02 0.  0.
         12    1    1    2    0    0  0.32933650503E+02  0.10075666156E+02 -0.21610535453E+02  0.40659065736E+02  0.00000000000E+00 0. -1.
         11    1    3    3    0    0 -0.75906265514E+01  0.13704672492E+01  0.10434250800E+02  0.12975722791E+02  0.51100000000E-03 0. -1.
        -11    1    3    3    0    0 -0.17823261231E+02 -0.18023648674E+02  0.50875625714E+01  0.25853507414E+02  0.51100000000E-03 0.  1.
        -12    1    3    3    0    0 -0.75197627209E+01  0.65775152687E+01  0.60887220809E+01  0.11699704059E+02  0.00000000000E+00 0.  1.
</event>
<event>
 7    1  0.2991278E-011  0.5052888E+02  0.7816164E-02  0.1300439E+00
        -11   -1    0    0    0    0  0.00000000000E+00  0.00000000000E+00  0.45593999997E+02  0.45594000000E+02  0.51100000000E-03 0. -1.
         11   -1    0    0    0    0 -0.00000000000E+00 -0.00000000000E+00 -0.45593999997E+02  0.45594000000E+02  0.51100000000E-03 0.  1.
    9900012    2    1    2    0    0  0.23085010442E+02  0.15517391196E+02 -0.29655633609E+02  0.50528883662E+02  0.30000072378E+02 0.  0.
         12    1    1    2    0    0 -0.23085010442E+02 -0.15517391196E+02  0.29655633609E+02  0.40659116338E+02  0.00000000000E+00 0. -1.
         11    1    3    3    0    0  0.20066027219E+01  0.18572558479E+02 -0.12183101211E+02  0.22302339301E+02  0.51100000000E-03 0. -1.
        -11    1    3    3    0    0  0.18588840823E+02 -0.15579315625E+01 -0.17085114202E+02  0.25295716662E+02  0.51100000000E-03 0.  1.
         12    1    3    3    0    0  0.24895668974E+01 -0.14972357200E+01 -0.38741819635E+00  0.29308276982E+01  0.00000000000E+00 0. -1.
</event>
<event>
 7    1  0.2991278E-011  0.5052883E+02  0.7816164E-02  0.1300439E+00
        -11   -1    0    0    0    0  0.00000000000E+00  0.00000000000E+00  0.45593999997E+02  0.45594000000E+02  0.51100000000E-03 0.  1.
         11   -1    0    0    0    0 -0.00000000000E+00 -0.00000000000E+00 -0.45593999997E+02  0.45594000000E+02  0.51100000000E-03 0. -1.
    9900012    2    1    2    0    0  0.13137560948E+02  0.29453794359E+02  0.24759772021E+02  0.50528833502E+02  0.29999919912E+02 0.  0.
         12    1    1    2    0    0 -0.13137560948E+02 -0.29453794359E+02 -0.24759772021E+02  0.40659166498E+02  0.00000000000E+00 0. -1.
         11    1    3    3    0    0 -0.12287293429E+01 -0.14289698351E+00  0.14217807907E+01  0.18845838331E+01  0.51100000000E-03 0. -1.
        -11    1    3    3    0    0  0.12701768332E+02  0.12615962955E+02  0.25802689909E+02  0.31405035374E+02  0.51100000000E-03 0.  1.
        -12    1    3    3    0    0  0.16645219591E+01  0.16980728387E+02 -0.24646986793E+01  0.17239214295E+02  0.00000000000E+00 0.  1.
</event>
<event>
 7    1  0.2991278E-011  0.5052885E+02  0.7816164E-02  0.1300439E+00
        -11   -1    0    0    0    0  0.00000000000E+00  0.00000000000E+00  0.45593999997E+02  0.45594000000E+02  0.51100000000E-03 0.  1.
         11   -1    0    0    0    0 -0.00000000000E+00 -0.00000000000E+00 -0.45593999997E+02  0.45594000000E+02  0.51100000000E-03 0. -1.
    9900012    2    1    2    0    0 -0.38202122265E+02 -0.10127153532E+02 -0.95501499024E+01  0.50528846697E+02  0.29999960019E+02 0.  0.
         12    1    1    2    0    0  0.38202122265E+02  0.10127153532E+02  0.95501499024E+01  0.40659153303E+02  0.00000000000E+00 0. -1.
         11    1    3    3    0    0  0.12971818876E+01 -0.67211153254E+01 -0.74526408109E+01  0.10119186103E+02  0.51100000000E-03 0. -1.
        -11    1    3    3    0    0 -0.27968979096E+02 -0.43141194703E+00 -0.42968764962E+01  0.28300407344E+02  0.51100000000E-03 0.  1.
         12    1    3    3    0    0 -0.11530325056E+02 -0.29746262594E+01  0.21993674047E+01  0.12109253249E+02  0.00000000000E+00 0. -1.
</event>
<event>
 7    1  0.2991278E-011  0.5052886E+02  0.7816164E-02  0.1300439E+00
        -11   -1    0    0    0    0  0.00000000000E+00  0.00000000000E+00  0.45593999997E+02  0.45594000000E+02  0.51100000000E-03 0.  1.
         11   -1    0    0    0    0 -0.00000000000E+00 -0.00000000000E+00 -0.45593999997E+02  0.45594000000E+02  0.51100000000E-03 0. -1.
    9900012    2    1    2    0    0 -0.19596628431E+02  0.35613451629E+02  0.90544966950E+00  0.50528860537E+02  0.30000002087E+02 0.  0.
         12    1    1    2    0    0  0.19596628431E+02 -0.35613451629E+02 -0.90544966950E+00  0.40659139463E+02  0.00000000000E+00 0. -1.
         11    1    3    3    0    0 -0.14966290657E+02  0.75147934274E+01  0.81331859562E+01  0.18617483459E+02  0.51100000000E-03 0.  1.
        -11    1    3    3    0    0  0.26540342564E+01  0.19944540966E+02 -0.53250649796E+01  0.20813095144E+02  0.51100000000E-03 0. -1.
         12    1    3    3    0    0 -0.72843720307E+01  0.81541172353E+01 -0.19026713071E+01  0.11098281933E+02  0.00000000000E+00 0. -1.
</event>
<event>
 7    1  0.2991278E-011  0.5052886E+02  0.7816164E-02  0.1300439E+00
        -11   -1    0    0    0    0  0.00000000000E+00  0.00000000000E+00  0.45593999997E+02  0.45594000000E+02  0.51100000000E-03 0. -1.
         11   -1    0    0    0    0 -0.00000000000E+00 -0.00000000000E+00 -0.45593999997E+02  0.45594000000E+02  0.51100000000E-03 0.  1.
    9900012    2    1    2    0    0 -0.27476691150E+02 -0.25994625796E+02 -0.14915649460E+02  0.50528859261E+02  0.29999998210E+02 0.  0.
         12    1    1    2    0    0  0.27476691150E+02  0.25994625796E+02  0.14915649460E+02  0.40659140739E+02  0.00000000000E+00 0. -1.
         11    1    3    3    0    0 -0.26923601976E+02 -0.15798414241E+02 -0.11545231449E+02  0.33283067848E+02  0.51100000000E-03 0.  1.
        -11    1    3    3    0    0  0.10946738571E+01 -0.56175894151E+00  0.45197559288E+01  0.46842371715E+01  0.51100000000E-03 0. -1.
        -12    1    3    3    0    0 -0.16477630312E+01 -0.96344526138E+01 -0.78901739396E+01  0.12561554242E+02  0.00000000000E+00 0.  1.
</event>
<event>
 7    1  0.2991278E-011  0.5052886E+02  0.7816164E-02  0.1300439E+00
        -11   -1    0    0    0    0  0.00000000000E+00  0.00000000000E+00  0.45593999997E+02  0.45594000000E+02  0.51100000000E-03 0.  1.
         11   -1    0    0    0    0 -0.00000000000E+00 -0.00000000000E+00 -0.45593999997E+02  0.45594000000E+02  0.51100000000E-03 0. -1.
    9900012    2    1    2    0    0  0.38154905583E+01  0.32379018165E+02  0.24294176135E+02  0.50528858597E+02  0.29999996192E+02 0.  0.
         12    1    1    2    0    0 -0.38154905583E+01 -0.32379018165E+02 -0.24294176135E+02  0.40659141403E+02  0.00000000000E+00 0. -1.
         11    1    3    3    0    0 -0.55967968763E+01  0.91532454087E+01  0.20406320463E+02  0.23054803228E+02  0.51100000000E-03 0.  1.
        -11    1    3    3    0    0  0.10952361753E+02  0.21976940104E+02  0.18401355718E+01  0.24623692321E+02  0.51100000000E-03 0. -1.
         12    1    3    3    0    0 -0.15400743184E+01  0.12488326517E+01  0.20477201006E+01  0.28503630486E+01  0.00000000000E+00 0. -1.
</event>
<event>
 7    1  0.2991278E-011  0.5052886E+02  0.7816164E-02  0.1300439E+00
        -11   -1    0    0    0    0  0.00000000000E+00  0.00000000000E+00  0.45593999997E+02  0.45594000000E+02  0.51100000000E-03 0.  1.
         11   -1    0    0    0    0 -0.00000000000E+00 -0.00000000000E+00 -0.45593999997E+02  0.45594000000E+02  0.51100000000E-03 0. -1.
    9900012    2    1    2    0    0 -0.21744008604E+02  0.21813396767E+00  0.34355731084E+02  0.50528858950E+02  0.29999997266E+02 0.  0.
         12    1    1    2    0    0  0.21744008604E+02 -0.21813396767E+00 -0.34355731084E+02  0.40659141050E+02  0.00000000000E+00 0. -1.
         11    1    3    3    0    0 -0.30821515767E+01 -0.46153694764E+01  0.59833265528E+01  0.81609736334E+01  0.51100000000E-03 0.  1.
        -11    1    3    3    0    0 -0.75978778142E-01  0.48160927700E+01 -0.31634423155E+01  0.57626287308E+01  0.51100000000E-03 0. -1.
        -12    1    3    3    0    0 -0.18585878249E+02  0.17410674087E-01  0.31535846846E+02  0.36605256586E+02  0.00000000000E+00 0.  1.
</event>
<event>
 7    1  0.2991278E-011  0.5052886E+02  0.7816164E-02  0.1300439E+00
        -11   -1    0    0    0    0  0.00000000000E+00  0.00000000000E+00  0.45593999997E+02  0.45594000000E+02  0.51100000000E-03 0.  1.
         11   -1    0    0    0    0 -0.00000000000E+00 -0.00000000000E+00 -0.45593999997E+02  0.45594000000E+02  0.51100000000E-03 0. -1.
    9900012    2    1    2    0    0  0.11568034114E+02 -0.15814099208E+02  0.35626683489E+02  0.50528859287E+02  0.29999998290E+02 0.  0.
         12    1    1    2    0    0 -0.11568034114E+02  0.15814099208E+02 -0.35626683489E+02  0.40659140713E+02  0.00000000000E+00 0. -1.
         11    1    3    3    0    0  0.57018440212E+00  0.23263468300E+01 -0.16781139585E+01  0.29245626245E+01  0.51100000000E-03 0. -1.
        -11    1    3    3    0    0  0.19567253245E+01 -0.17837033116E+02  0.33050820245E+02  0.37607781688E+02  0.51100000000E-03 0.  1.
        -12    1    3    3    0    0  0.90411243877E+01 -0.30341292191E+00  0.42539772028E+01  0.99965149746E+01  0.00000000000E+00 0.  1.
</event>
<event>
 7    1  0.2991278E-011  0.5052885E+02  0.7816164E-02  0.1300439E+00
        -11   -1    0    0    0    0  0.00000000000E+00  0.00000000000E+00  0.45593999997E+02  0.45594000000E+02  0.51100000000E-03 0.  1.
         11   -1    0    0    0    0 -0.00000000000E+00 -0.00000000000E+00 -0.45593999997E+02  0.45594000000E+02  0.51100000000E-03 0. -1.
    9900012    2    1    2    0    0 -0.37264666469E+02 -0.10427834034E+02  0.12480844356E+02  0.50528848932E+02  0.29999966815E+02 0.  0.
         12    1    1    2    0    0  0.37264666469E+02  0.10427834034E+02 -0.12480844356E+02  0.40659151068E+02  0.00000000000E+00 0. -1.
         11    1    3    3    0    0 -0.13301136950E+02 -0.67934124000E+01 -0.73359572148E+00  0.14953556739E+02  0.51100000000E-03 0. -1.
        -11    1    3    3    0    0  0.26864419222E+01  0.17854991725E+01  0.69580716305E+01  0.76694027520E+01  0.51100000000E-03 0.  1.
        -12    1    3    3    0    0 -0.26649971441E+02 -0.54199208063E+01  0.62563684468E+01  0.27905889441E+02  0.00000000000E+00 0.  1.
</event>
<event>
 7    1  0.2991278E-011  0.5052883E+02  0.7816164E-02  0.1300439E+00
        -11   -1    0    0    0    0  0.00000000000E+00  0.00000000000E+00  0.45593999997E+02  0.45594000000E+02  0.51100000000E-03 0.  1.
         11   -1    0    0    0    0 -0.00000000000E+00 -0.00000000000E+00 -0.45593999997E+02  0.45594000000E+02  0.51100000000E-03 0. -1.
    9900012    2    1    2    0    0  0.35984058637E+02 -0.93945833487E+01  0.16433415267E+02  0.50528833633E+02  0.29999920312E+02 0.  0.
         12    1    1    2    0    0 -0.35984058637E+02  0.93945833487E+01 -0.16433415267E+02  0.40659166367E+02  0.00000000000E+00 0. -1.
         11    1    3    3    0    0 -0.11662134008E+01  0.25277981145E+01 -0.48639206852E+01  0.56042431868E+01  0.51100000000E-03 0. -1.
        -11    1    3    3    0    0  0.29515468594E+02 -0.12127387036E+02  0.16820745505E+02  0.36071787899E+02  0.51100000000E-03 0.  1.
        -12    1    3    3    0    0  0.76348034441E+01  0.20500557313E+00  0.44765904464E+01  0.88528025472E+01  0.00000000000E+00 0.  1.
</event>
<event>
 7    1  0.2991278E-011  0.5052885E+02  0.7816164E-02  0.1300439E+00
        -11   -1    0    0    0    0  0.00000000000E+00  0.00000000000E+00  0.45593999997E+02  0.45594000000E+02  0.51100000000E-03 0. -1.
         11   -1    0    0    0    0 -0.00000000000E+00 -0.00000000000E+00 -0.45593999997E+02  0.45594000000E+02  0.51100000000E-03 0.  1.
    9900012    2    1    2    0    0  0.10446862363E+02  0.38773341694E+02 -0.63763035752E+01  0.50528853346E+02  0.29999980231E+02 0.  0.
         12    1    1    2    0    0 -0.10446862363E+02 -0.38773341694E+02  0.63763035752E+01  0.40659146654E+02  0.00000000000E+00 0. -1.
         11    1    3    3    0    0  0.42961541074E+01 -0.10918845838E+01  0.31204529317E+01  0.54209204770E+01  0.51100000000E-03 0. -1.
        -11    1    3    3    0    0  0.44917944028E+01  0.37868354224E+02 -0.31653549595E+01  0.38264970154E+02  0.51100000000E-03 0.  1.
        -12    1    3    3    0    0  0.16589138526E+01  0.19968720537E+01 -0.63314015473E+01  0.68429627152E+01  0.00000000000E+00 0.  1.
</event>
<event>
 7    1  0.2991278E-011  0.5052886E+02  0.7816164E-02  0.1300439E+00
        -11   -1    0    0    0    0  0.00000000000E+00  0.00000000000E+00  0.45593999997E+02  0.45594000000E+02  0.51100000000E-03 0.  1.
         11   -1    0    0    0    0 -0.00000000000E+00 -0.00000000000E+00 -0.45593999997E+02  0.45594000000E+02  0.51100000000E-03 0. -1.
    9900012    2    1    2    0    0 -0.25436023918E+02 -0.31381576435E+02  0.46228912499E+01  0.50528858644E+02  0.29999996334E+02 0.  0.
         12    1    1    2    0    0  0.25436023918E+02  0.31381576435E+02 -0.46228912499E+01  0.40659141356E+02  0.00000000000E+00 0. -1.
         11    1    3    3    0    0 -0.33506400498E+01 -0.20984069746E+01  0.69966549674E+01  0.80363724135E+01  0.51100000000E-03 0. -1.
        -11    1    3    3    0    0 -0.16658883331E+02 -0.31906969237E+02 -0.40891616963E+01  0.36225603147E+02  0.51100000000E-03 0.  1.
        -12    1    3    3    0    0 -0.54265005374E+01  0.26237997771E+01  0.17153979788E+01  0.62668830832E+01  0.00000000000E+00 0.  1.
</event>
<event>
 7    1  0.2991278E-011  0.5052882E+02  0.7816164E-02  0.1300439E+00
        -11   -1    0    0    0    0  0.00000000000E+00  0.00000000000E+00  0.45593999997E+02  0.45594000000E+02  0.51100000000E-03 0.  1.
         11   -1    0    0    0    0 -0.00000000000E+00 -0.00000000000E+00 -0.45593999997E+02  0.45594000000E+02  0.51100000000E-03 0. -1.
    9900012    2    1    2    0    0  0.30496384873E+02  0.16621499938E+02  0.21139184217E+02  0.50528820718E+02  0.29999881054E+02 0.  0.
         12    1    1    2    0    0 -0.30496384873E+02 -0.16621499938E+02 -0.21139184217E+02  0.40659179282E+02  0.00000000000E+00 0. -1.
         11    1    3    3    0    0 -0.14349607288E+01  0.65494461049E+01  0.71391626309E+00  0.67427022228E+01  0.51100000000E-03 0. -1.
        -11    1    3    3    0    0  0.26328560424E+02 -0.42526429845E+00  0.17221084319E+02  0.31463307027E+02  0.51100000000E-03 0.  1.
        -12    1    3    3    0    0  0.56027851781E+01  0.10497318131E+02  0.32041836347E+01  0.12322811468E+02  0.00000000000E+00 0.  1.
</event>
<event>
 7    1  0.2991278E-011  0.5052886E+02  0.7816164E-02  0.1300439E+00
        -11   -1    0    0    0    0  0.00000000000E+00  0.00000000000E+00  0.45593999997E+02  0.45594000000E+02  0.51100000000E-03 0. -1.
         11   -1    0    0    0    0 -0.00000000000E+00 -0.00000000000E+00 -0.45593999997E+02  0.45594000000E+02  0.51100000000E-03 0.  1.
    9900012    2    1    2    0    0  0.40391448787E+02  0.45009618852E+01 -0.11989648598E+01  0.50528864375E+02  0.30000013755E+02 0.  0.
         12    1    1    2    0    0 -0.40391448787E+02 -0.45009618852E+01  0.11989648598E+01  0.40659135625E+02  0.00000000000E+00 0. -1.
         11    1    3    3    0    0  0.45969743743E+01  0.21162714757E+01  0.88174195933E+01  0.10166497278E+02  0.51100000000E-03 0. -1.
        -11    1    3    3    0    0  0.36696206635E+02  0.26448807453E+01 -0.73269493865E+01  0.37513879606E+02  0.51100000000E-03 0.  1.
        -12    1    3    3    0    0 -0.90173222161E+00 -0.26019033586E+00 -0.26894350665E+01  0.28484874912E+01  0.00000000000E+00 0.  1.
</event>
<event>
 7    1  0.2991278E-011  0.5052886E+02  0.7816164E-02  0.1300439E+00
        -11   -1    0    0    0    0  0.00000000000E+00  0.00000000000E+00  0.45593999997E+02  0.45594000000E+02  0.51100000000E-03 0. -1.
         11   -1    0    0    0    0 -0.00000000000E+00 -0.00000000000E+00 -0.45593999997E+02  0.45594000000E+02  0.51100000000E-03 0.  1.
    9900012    2    1    2    0    0 -0.64828366615E+01 -0.40116371266E+02 -0.13473611135E+01  0.50528858387E+02  0.29999995552E+02 0.  0.
         12    1    1    2    0    0  0.64828366615E+01  0.40116371266E+02  0.13473611135E+01  0.40659141613E+02  0.00000000000E+00 0. -1.
         11    1    3    3    0    0 -0.50795431703E+00  0.42282218127E+01 -0.18239278189E+01  0.46327734928E+01  0.51100000000E-03 0. -1.
        -11    1    3    3    0    0 -0.44216241224E+01 -0.33818441362E+02 -0.40248542124E+01  0.34342935048E+02  0.51100000000E-03 0.  1.
        -12    1    3    3    0    0 -0.15532582221E+01 -0.10526151717E+02  0.45014209178E+01  0.11553149846E+02  0.00000000000E+00 0.  1.
</event>
