<event>
 7    1  0.6672802E-013  0.5930196E+02  0.7816164E-02  0.1266605E+00
        -11   -1    0    0    0    0  0.00000000000E+00  0.00000000000E+00  0.45593999997E+02  0.45594000000E+02  0.51100000000E-03 0.  1.
         11   -1    0    0    0    0 -0.00000000000E+00 -0.00000000000E+00 -0.45593999997E+02  0.45594000000E+02  0.51100000000E-03 0. -1.
    9900012    2    1    2    0    0  0.27621269309E+02  0.11443940563E+02  0.11082476590E+02  0.59301959461E+02  0.50000028147E+02 0.  0.
         12    1    1    2    0    0 -0.27621269309E+02 -0.11443940563E+02 -0.11082476590E+02  0.31886040539E+02  0.00000000000E+00 0. -1.
         11    1    3    3    0    0 -0.55069914056E+01 -0.19159264736E+01 -0.91584595590E+01  0.10857030457E+02  0.51100000000E-03 0. -1.
        -11    1    3    3    0    0 -0.26735876845E+01  0.23340878525E+01 -0.27512799108E+01  0.44906100497E+01  0.51100000000E-03 0.  1.
        -12    1    3    3    0    0  0.35801848399E+02  0.11025779184E+02  0.22992216060E+02  0.43954318955E+02  0.00000000000E+00 0.  1.
</event>
<event>
 7    1  0.6672802E-013  0.5930206E+02  0.7816164E-02  0.1266604E+00
        -11   -1    0    0    0    0  0.00000000000E+00  0.00000000000E+00  0.45593999997E+02  0.45594000000E+02  0.51100000000E-03 0. -1.
         11   -1    0    0    0    0 -0.00000000000E+00 -0.00000000000E+00 -0.45593999997E+02  0.45594000000E+02  0.51100000000E-03 0.  1.
    9900012    2    1    2    0    0  0.14907176345E+02 -0.25587976158E+02 -0.11821369035E+02  0.59302059583E+02  0.50000210744E+02 0.  0.
         12    1    1    2    0    0 -0.14907176345E+02  0.25587976158E+02  0.11821369035E+02  0.31885940417E+02  0.00000000000E+00 0. -1.
         11    1    3    3    0    0  0.13580233207E+02  0.69039895803E+01 -0.80916153352E+01  0.17249986814E+02  0.51100000000E-03 0.  1.
        -11    1    3    3    0    0 -0.17471012340E+01  0.14312378897E+01  0.61782471293E+01  0.65781108587E+01  0.51100000000E-03 0. -1.
        -12    1    3    3    0    0  0.30740443724E+01 -0.33923203628E+02 -0.99080008294E+01  0.35473961910E+02  0.00000000000E+00 0.  1.
</event>
<event>
 7    1  0.6672802E-013  0.5930232E+02  0.7816164E-02  0.1266603E+00
        -11   -1    0    0    0    0  0.00000000000E+00  0.00000000000E+00  0.45593999997E+02  0.45594000000E+02  0.51100000000E-03 0.  1.
         11   -1    0    0    0    0 -0.00000000000E+00 -0.00000000000E+00 -0.45593999997E+02  0.45594000000E+02  0.51100000000E-03 0. -1.
    9900012    2    1    2    0    0  0.22362015569E+02  0.22633308628E+02 -0.20905447431E+01  0.59302317052E+02  0.50000680302E+02 0.  0.
         12    1    1    2    0    0 -0.22362015569E+02 -0.22633308628E+02  0.20905447431E+01  0.31885682948E+02  0.00000000000E+00 0. -1.
         11    1    3    3    0    0  0.24445329112E+02 -0.56728518698E+00 -0.16529469209E+02  0.29514729890E+02  0.51100000000E-03 0. -1.
        -11    1    3    3    0    0 -0.11291109933E+01  0.22959707606E+01 -0.19421049806E+01  0.32121870097E+01  0.51100000000E-03 0.  1.
        -12    1    3    3    0    0 -0.95420254998E+00  0.20904623054E+02  0.16381029446E+02  0.26575400153E+02  0.00000000000E+00 0.  1.
</event>
<event>
 7    1  0.6672802E-013  0.5930188E+02  0.7816164E-02  0.1266605E+00
        -11   -1    0    0    0    0  0.00000000000E+00  0.00000000000E+00  0.45593999997E+02  0.45594000000E+02  0.51100000000E-03 0.  1.
         11   -1    0    0    0    0 -0.00000000000E+00 -0.00000000000E+00 -0.45593999997E+02  0.45594000000E+02  0.51100000000E-03 0. -1.
    9900012    2    1    2    0    0  0.18434627414E+02 -0.36831083378E+01  0.25755071203E+02  0.59301882839E+02  0.49999888407E+02 0.  0.
         12    1    1    2    0    0 -0.18434627414E+02  0.36831083378E+01 -0.25755071203E+02  0.31886117161E+02  0.00000000000E+00 0. -1.
         11    1    3    3    0    0 -0.24272080579E+00  0.73568263902E+01  0.49069354899E+00  0.73771666882E+01  0.51100000000E-03 0. -1.
        -11    1    3    3    0    0 -0.52518247163E-01 -0.15761174999E+02 -0.45457646533E+01  0.16403699950E+02  0.51100000000E-03 0.  1.
        -12    1    3    3    0    0  0.18729866467E+02  0.47212402708E+01  0.29810142307E+02  0.35521016201E+02  0.00000000000E+00 0.  1.
</event>
<event>
 7    1  0.6672802E-013  0.5930194E+02  0.7816164E-02  0.1266605E+00
        -11   -1    0    0    0    0  0.00000000000E+00  0.00000000000E+00  0.45593999997E+02  0.45594000000E+02  0.51100000000E-03 0.  1.
         11   -1    0    0    0    0 -0.00000000000E+00 -0.00000000000E+00 -0.45593999997E+02  0.45594000000E+02  0.51100000000E-03 0. -1.
    9900012    2    1    2    0    0 -0.69181801681E+01  0.12778081183E+02  0.28382745656E+02  0.59301939934E+02  0.49999992534E+02 0.  0.
         12    1    1    2    0    0  0.69181801681E+01 -0.12778081183E+02 -0.28382745656E+02  0.31886060066E+02  0.00000000000E+00 0. -1.
         11    1    3    3    0    0 -0.44966383785E+01 -0.11869568993E+02  0.28570047108E+00  0.12695985579E+02  0.51100000000E-03 0. -1.
        -11    1    3    3    0    0 -0.31830419576E+01  0.20474722867E+02  0.27452434855E+01  0.20901731857E+02  0.51100000000E-03 0.  1.
        -12    1    3    3    0    0  0.76150016802E+00  0.41729273090E+01  0.25351801699E+02  0.25704222498E+02  0.00000000000E+00 0.  1.
</event>
<event>
 7    1  0.6672802E-013  0.5930194E+02  0.7816164E-02  0.1266605E+00
        -11   -1    0    0    0    0  0.00000000000E+00  0.00000000000E+00  0.45593999997E+02  0.45594000000E+02  0.51100000000E-03 0. -1.
         11   -1    0    0    0    0 -0.00000000000E+00 -0.00000000000E+00 -0.45593999997E+02  0.45594000000E+02  0.51100000000E-03 0.  1.
    9900012    2    1    2    0    0 -0.15703200139E+02 -0.15415670122E+02 -0.23075688072E+02  0.59301940979E+02  0.49999994440E+02 0.  0.
         12    1    1    2    0    0  0.15703200139E+02  0.15415670122E+02  0.23075688072E+02  0.31886059021E+02  0.00000000000E+00 0. -1.
         11    1    3    3    0    0  0.33094853963E+01  0.19815386390E+01 -0.17411061994E+02  0.17833234956E+02  0.51100000000E-03 0. -1.
        -11    1    3    3    0    0 -0.11938378948E+02 -0.92150395989E+00 -0.16599243398E+02  0.20467265160E+02  0.51100000000E-03 0.  1.
         12    1    3    3    0    0 -0.70743065867E+01 -0.16475704801E+02  0.10934617321E+02  0.21001440863E+02  0.00000000000E+00 0. -1.
</event>
<event>
 7    1  0.6672802E-013  0.5930195E+02  0.7816164E-02  0.1266605E+00
        -11   -1    0    0    0    0  0.00000000000E+00  0.00000000000E+00  0.45593999997E+02  0.45594000000E+02  0.51100000000E-03 0. -1.
         11   -1    0    0    0    0 -0.00000000000E+00 -0.00000000000E+00 -0.45593999997E+02  0.45594000000E+02  0.51100000000E-03 0.  1.
    9900012    2    1    2    0    0  0.27405617700E+02  0.14526405426E+02  0.73916116893E+01  0.59301948826E+02  0.50000008751E+02 0.  0.
         12    1    1    2    0    0 -0.27405617700E+02 -0.14526405426E+02 -0.73916116893E+01  0.31886051174E+02  0.00000000000E+00 0. -1.
         11    1    3    3    0    0 -0.39368609981E+01 -0.17433267102E+01 -0.64215293573E+01  0.77313712939E+01  0.51100000000E-03 0. -1.
        -11    1    3    3    0    0 -0.79121125752E+00  0.13068205884E+00 -0.89672988452E+01  0.90030851320E+01  0.51100000000E-03 0.  1.
         12    1    3    3    0    0  0.32133689955E+02  0.16139050078E+02  0.22780439892E+02  0.42567492400E+02  0.00000000000E+00 0. -1.
</event>
<event>
 7    1  0.6672802E-013  0.5930194E+02  0.7816164E-02  0.1266605E+00
        -11   -1    0    0    0    0  0.00000000000E+00  0.00000000000E+00  0.45593999997E+02  0.45594000000E+02  0.51100000000E-03 0. -1.
         11   -1    0    0    0    0 -0.00000000000E+00 -0.00000000000E+00 -0.45593999997E+02  0.45594000000E+02  0.51100000000E-03 0.  1.
    9900012    2    1    2    0    0 -0.11429307057E+02  0.96668466462E+01 -0.28153936235E+02  0.59301935498E+02  0.49999984444E+02 0.  0.
         12    1    1    2    0    0  0.11429307057E+02 -0.96668466462E+01  0.28153936235E+02  0.31886064502E+02  0.00000000000E+00 0. -1.
         11    1    3    3    0    0  0.23262540746E+01 -0.20494823691E+01 -0.96418028783E+00  0.32467645263E+01  0.51100000000E-03 0. -1.
        -11    1    3    3    0    0 -0.63078803419E+01 -0.17449753405E+02 -0.71094328818E+01  0.19870261309E+02  0.51100000000E-03 0.  1.
        -12    1    3    3    0    0 -0.74476807902E+01  0.29166082420E+02 -0.20080323066E+02  0.36184909663E+02  0.00000000000E+00 0.  1.
</event>
<event>
 7    1  0.6672802E-013  0.5930193E+02  0.7816164E-02  0.1266605E+00
        -11   -1    0    0    0    0  0.00000000000E+00  0.00000000000E+00  0.45593999997E+02  0.45594000000E+02  0.51100000000E-03 0.  1.
         11   -1    0    0    0    0 -0.00000000000E+00 -0.00000000000E+00 -0.45593999997E+02  0.45594000000E+02  0.51100000000E-03 0. -1.
    9900012    2    1    2    0    0  0.30866733566E+02 -0.78198907006E+01  0.16779051101E+01  0.59301932554E+02  0.49999979075E+02 0.  0.
         12    1    1    2    0    0 -0.30866733566E+02  0.78198907006E+01 -0.16779051101E+01  0.31886067446E+02  0.00000000000E+00 0. -1.
         11    1    3    3    0    0 -0.36554246903E+01  0.88753690843E+01  0.80430001323E+01  0.12522945238E+02  0.51100000000E-03 0. -1.
        -11    1    3    3    0    0  0.26929794318E+01  0.61136811217E+01  0.14810338976E+01  0.68427112131E+01  0.51100000000E-03 0.  1.
         12    1    3    3    0    0  0.31829178825E+02 -0.22808940907E+02 -0.78461289199E+01  0.39936276103E+02  0.00000000000E+00 0. -1.
</event>
<event>
 7    1  0.6672802E-013  0.5930194E+02  0.7816164E-02  0.1266605E+00
        -11   -1    0    0    0    0  0.00000000000E+00  0.00000000000E+00  0.45593999997E+02  0.45594000000E+02  0.51100000000E-03 0.  1.
         11   -1    0    0    0    0 -0.00000000000E+00 -0.00000000000E+00 -0.45593999997E+02  0.45594000000E+02  0.51100000000E-03 0. -1.
    9900012    2    1    2    0    0  0.26654852549E+02 -0.11638483176E+02  0.13068498156E+02  0.59301935660E+02  0.49999984739E+02 0.  0.
         12    1    1    2    0    0 -0.26654852549E+02  0.11638483176E+02 -0.13068498156E+02  0.31886064340E+02  0.00000000000E+00 0. -1.
         11    1    3    3    0    0  0.78075788730E+01 -0.16758674780E+02  0.14986368556E+02  0.23799216605E+02  0.51100000000E-03 0. -1.
        -11    1    3    3    0    0  0.21616122283E+02 -0.32102044895E+01  0.70413671296E+01  0.22959595090E+02  0.51100000000E-03 0.  1.
         12    1    3    3    0    0 -0.27688486063E+01  0.83303960935E+01 -0.89592375298E+01  0.12543123965E+02  0.00000000000E+00 0. -1.
</event>
<event>
 7    1  0.6672802E-013  0.5930191E+02  0.7816164E-02  0.1266605E+00
        -11   -1    0    0    0    0  0.00000000000E+00  0.00000000000E+00  0.45593999997E+02  0.45594000000E+02  0.51100000000E-03 0. -1.
         11   -1    0    0    0    0 -0.00000000000E+00 -0.00000000000E+00 -0.45593999997E+02  0.45594000000E+02  0.51100000000E-03 0.  1.
    9900012    2    1    2    0    0 -0.25070145589E+02  0.17205002016E+02 -0.96019933627E+01  0.59301912583E+02  0.49999942653E+02 0.  0.
         12    1    1    2    0    0  0.25070145589E+02 -0.17205002016E+02  0.96019933627E+01  0.31886087417E+02  0.00000000000E+00 0. -1.
         11    1    3    3    0    0 -0.22219495576E+01  0.95546320682E+00  0.54610049034E+01  0.59726497128E+01  0.51100000000E-03 0. -1.
        -11    1    3    3    0    0  0.14822505941E+01  0.58166414470E+01  0.13263210804E+02  0.14558267260E+02  0.51100000000E-03 0.  1.
        -12    1    3    3    0    0 -0.24330446625E+02  0.10432897362E+02 -0.28326209070E+02  0.38770995610E+02  0.00000000000E+00 0.  1.
</event>
<event>
 7    1  0.6672802E-013  0.5930193E+02  0.7816164E-02  0.1266605E+00
        -11   -1    0    0    0    0  0.00000000000E+00  0.00000000000E+00  0.45593999997E+02  0.45594000000E+02  0.51100000000E-03 0. -1.
         11   -1    0    0    0    0 -0.00000000000E+00 -0.00000000000E+00 -0.45593999997E+02  0.45594000000E+02  0.51100000000E-03 0.  1.
    9900012    2    1    2    0    0 -0.15264175334E+02  0.17124318039E+02 -0.22146883502E+02  0.59301925206E+02  0.49999965673E+02 0.  0.
         12    1    1    2    0    0  0.15264175334E+02 -0.17124318039E+02  0.22146883502E+02  0.31886074794E+02  0.00000000000E+00 0. -1.
         11    1    3    3    0    0 -0.10922331212E+02  0.64146117376E+01 -0.22629946611E+01  0.12867233889E+02  0.51100000000E-03 0. -1.
        -11    1    3    3    0    0 -0.20465718755E+02  0.11918542141E+02 -0.44812483157E+01  0.24103503431E+02  0.51100000000E-03 0.  1.
         12    1    3    3    0    0  0.16123874633E+02 -0.12088358402E+01 -0.15402640525E+02  0.22331187886E+02  0.00000000000E+00 0. -1.
</event>
<event>
 7    1  0.6672802E-013  0.5930189E+02  0.7816164E-02  0.1266605E+00
        -11   -1    0    0    0    0  0.00000000000E+00  0.00000000000E+00  0.45593999997E+02  0.45594000000E+02  0.51100000000E-03 0.  1.
         11   -1    0    0    0    0 -0.00000000000E+00 -0.00000000000E+00 -0.45593999997E+02  0.45594000000E+02  0.51100000000E-03 0. -1.
    9900012    2    1    2    0    0 -0.94919841340E+01  0.27295586817E+02  0.13475054744E+02  0.59301891381E+02  0.49999903986E+02 0.  0.
         12    1    1    2    0    0  0.94919841340E+01 -0.27295586817E+02 -0.13475054744E+02  0.31886108619E+02  0.00000000000E+00 0. -1.
         11    1    3    3    0    0 -0.99255825149E+01  0.17081162364E+02  0.40547774538E+01  0.20167412239E+02  0.51100000000E-03 0. -1.
        -11    1    3    3    0    0 -0.17357341682E+02  0.55994404181E+00  0.16197511704E+01  0.17441744228E+02  0.51100000000E-03 0.  1.
         12    1    3    3    0    0  0.17790940063E+02  0.96544804110E+01  0.78005261201E+01  0.21692734915E+02  0.00000000000E+00 0. -1.
</event>
<event>
 7    1  0.6672802E-013  0.5930191E+02  0.7816164E-02  0.1266605E+00
        -11   -1    0    0    0    0  0.00000000000E+00  0.00000000000E+00  0.45593999997E+02  0.45594000000E+02  0.51100000000E-03 0.  1.
         11   -1    0    0    0    0 -0.00000000000E+00 -0.00000000000E+00 -0.45593999997E+02  0.45594000000E+02  0.51100000000E-03 0. -1.
    9900012    2    1    2    0    0  0.13808914780E+02 -0.41879163141E+01  0.28434096993E+02  0.59301911462E+02  0.49999940607E+02 0.  0.
         12    1    1    2    0    0 -0.13808914780E+02  0.41879163141E+01 -0.28434096993E+02  0.31886088538E+02  0.00000000000E+00 0. -1.
         11    1    3    3    0    0  0.10382088389E+02 -0.56001222839E+01  0.44786113156E+01  0.12617729133E+02  0.51100000000E-03 0. -1.
        -11    1    3    3    0    0  0.14968518084E+02  0.15617324326E+02  0.11068409489E+02  0.24299527600E+02  0.51100000000E-03 0.  1.
         12    1    3    3    0    0 -0.11541691692E+02 -0.14205118356E+02  0.12887076188E+02  0.22384654728E+02  0.00000000000E+00 0. -1.
</event>
<event>
 7    1  0.6672802E-013  0.5930197E+02  0.7816164E-02  0.1266605E+00
        -11   -1    0    0    0    0  0.00000000000E+00  0.00000000000E+00  0.45593999997E+02  0.45594000000E+02  0.51100000000E-03 0.  1.
         11   -1    0    0    0    0 -0.00000000000E+00 -0.00000000000E+00 -0.45593999997E+02  0.45594000000E+02  0.51100000000E-03 0. -1.
    9900012    2    1    2    0    0 -0.26632730177E+02  0.16520411385E+02  0.58730533859E+01  0.59301967555E+02  0.50000042908E+02 0.  0.
         12    1    1    2    0    0  0.26632730177E+02 -0.16520411385E+02 -0.58730533859E+01  0.31886032445E+02  0.00000000000E+00 0. -1.
         11    1    3    3    0    0 -0.18612592567E+02 -0.58536348726E+01  0.42157615566E+01  0.19961620401E+02  0.51100000000E-03 0.  1.
        -11    1    3    3    0    0 -0.19941225493E+02  0.10853197892E+02  0.16316921571E+01  0.22761959454E+02  0.51100000000E-03 0. -1.
         12    1    3    3    0    0  0.11921087883E+02  0.11520848366E+02  0.25599672207E-01  0.16578387700E+02  0.00000000000E+00 0. -1.
</event>
<event>
 7    1  0.6672802E-013  0.5930192E+02  0.7816164E-02  0.1266605E+00
        -11   -1    0    0    0    0  0.00000000000E+00  0.00000000000E+00  0.45593999997E+02  0.45594000000E+02  0.51100000000E-03 0. -1.
         11   -1    0    0    0    0 -0.00000000000E+00 -0.00000000000E+00 -0.45593999997E+02  0.45594000000E+02  0.51100000000E-03 0.  1.
    9900012    2    1    2    0    0  0.20684078167E+01 -0.23054625738E+02 -0.21930074786E+02  0.59301917473E+02  0.49999951571E+02 0.  0.
         12    1    1    2    0    0 -0.20684078167E+01  0.23054625738E+02  0.21930074786E+02  0.31886082527E+02  0.00000000000E+00 0. -1.
         11    1    3    3    0    0  0.95234643235E+01  0.73700242222E+01  0.57662061953E+01  0.13351507926E+02  0.51100000000E-03 0. -1.
        -11    1    3    3    0    0 -0.41118831658E+01  0.48698491226E+00  0.24552253780E+00  0.41478933269E+01  0.51100000000E-03 0.  1.
        -12    1    3    3    0    0 -0.33431733410E+01 -0.30911634872E+02 -0.27941803519E+02  0.41802516220E+02  0.00000000000E+00 0.  1.
</event>
<event>
 7    1  0.6672802E-013  0.5930196E+02  0.7816164E-02  0.1266605E+00
        -11   -1    0    0    0    0  0.00000000000E+00  0.00000000000E+00  0.45593999997E+02  0.45594000000E+02  0.51100000000E-03 0.  1.
         11   -1    0    0    0    0 -0.00000000000E+00 -0.00000000000E+00 -0.45593999997E+02  0.45594000000E+02  0.51100000000E-03 0. -1.
    9900012    2    1    2    0    0 -0.10902186643E+02  0.17549782009E+02 -0.24287175069E+02  0.59301962382E+02  0.50000033473E+02 0.  0.
         12    1    1    2    0    0  0.10902186643E+02 -0.17549782009E+02  0.24287175069E+02  0.31886037618E+02  0.00000000000E+00 0. -1.
         11    1    3    3    0    0 -0.16876019533E+02  0.24261534425E+02 -0.24091948702E+02  0.38129307369E+02  0.51100000000E-03 0. -1.
        -11    1    3    3    0    0  0.38432221851E+01  0.41749443776E+01 -0.63258928648E+01  0.84980843793E+01  0.51100000000E-03 0.  1.
        -12    1    3    3    0    0  0.21306107050E+01 -0.10886696794E+02  0.61306664970E+01  0.12674570634E+02  0.00000000000E+00 0.  1.
</event>
<event>
 7    1  0.6672802E-013  0.5930193E+02  0.7816164E-02  0.1266605E+00
        -11   -1    0    0    0    0  0.00000000000E+00  0.00000000000E+00  0.45593999997E+02  0.45594000000E+02  0.51100000000E-03 0.  1.
         11   -1    0    0    0    0 -0.00000000000E+00 -0.00000000000E+00 -0.45593999997E+02  0.45594000000E+02  0.51100000000E-03 0. -1.
    9900012    2    1    2    0    0  0.16651210331E+02 -0.24819320196E+02  0.11111245381E+02  0.59301933538E+02  0.49999980870E+02 0.  0.
         12    1    1    2    0    0 -0.16651210331E+02  0.24819320196E+02 -0.11111245381E+02  0.31886066462E+02  0.00000000000E+00 0. -1.
         11    1    3    3    0    0  0.23765247561E+02 -0.89185902351E+01 -0.13181076916E+01  0.25417821535E+02  0.51100000000E-03 0. -1.
        -11    1    3    3    0    0  0.43082059172E+01  0.43924151092E+01  0.81430300665E+01  0.10206022126E+02  0.51100000000E-03 0.  1.
         12    1    3    3    0    0 -0.11422243147E+02 -0.20293145070E+02  0.42863230061E+01  0.23678089878E+02  0.00000000000E+00 0. -1.
</event>
<event>
 7    1  0.6672802E-013  0.5930191E+02  0.7816164E-02  0.1266605E+00
        -11   -1    0    0    0    0  0.00000000000E+00  0.00000000000E+00  0.45593999997E+02  0.45594000000E+02  0.51100000000E-03 0. -1.
         11   -1    0    0    0    0 -0.00000000000E+00 -0.00000000000E+00 -0.45593999997E+02  0.45594000000E+02  0.51100000000E-03 0.  1.
    9900012    2    1    2    0    0 -0.30959042116E+02 -0.60389969618E+01 -0.46680460255E+01  0.59301914841E+02  0.49999946770E+02 0.  0.
         12    1    1    2    0    0  0.30959042116E+02  0.60389969618E+01  0.46680460255E+01  0.31886085159E+02  0.00000000000E+00 0. -1.
         11    1    3    3    0    0  0.62539205299E+00  0.44448429389E+00  0.42307069452E+01  0.42997166215E+01  0.51100000000E-03 0. -1.
        -11    1    3    3    0    0 -0.26077878249E+01 -0.15539094651E+02  0.10537014516E+02  0.18955017676E+02  0.51100000000E-03 0.  1.
         12    1    3    3    0    0 -0.28976646345E+02  0.90556133954E+01 -0.19435767487E+02  0.36047180544E+02  0.00000000000E+00 0. -1.
</event>
<event>
 7    1  0.6672802E-013  0.5930195E+02  0.7816164E-02  0.1266605E+00
        -11   -1    0    0    0    0  0.00000000000E+00  0.00000000000E+00  0.45593999997E+02  0.45594000000E+02  0.51100000000E-03 0. -1.
         11   -1    0    0    0    0 -0.00000000000E+00 -0.00000000000E+00 -0.45593999997E+02  0.45594000000E+02  0.51100000000E-03 0.  1.
    9900012    2    1    2    0    0  0.85974519488E+01 -0.16165354843E+02 -0.26105276899E+02  0.59301947263E+02  0.50000005900E+02 0.  0.
         12    1    1    2    0    0 -0.85974519488E+01  0.16165354843E+02  0.26105276899E+02  0.31886052737E+02  0.00000000000E+00 0. -1.
         11    1    3    3    0    0  0.30290176606E+01 -0.22088464375E+01 -0.49796314154E+01  0.62330313545E+01  0.51100000000E-03 0.  1.
        -11    1    3    3    0    0  0.35308586242E+01 -0.82847967728E+01 -0.35952905010E+02  0.37063677625E+02  0.51100000000E-03 0. -1.
         12    1    3    3    0    0  0.20375756640E+01 -0.56717116323E+01  0.14827259527E+02  0.16005238283E+02  0.00000000000E+00 0. -1.
</event>
<event>
 7    1  0.6672802E-013  0.5930195E+02  0.7816164E-02  0.1266605E+00
        -11   -1    0    0    0    0  0.00000000000E+00  0.00000000000E+00  0.45593999997E+02  0.45594000000E+02  0.51100000000E-03 0.  1.
         11   -1    0    0    0    0 -0.00000000000E+00 -0.00000000000E+00 -0.45593999997E+02  0.45594000000E+02  0.51100000000E-03 0. -1.
    9900012    2    1    2    0    0  0.10714256265E+02  0.27283873776E+02 -0.12550511912E+02  0.59301946547E+02  0.50000004594E+02 0.  0.
         12    1    1    2    0    0 -0.10714256265E+02 -0.27283873776E+02  0.12550511912E+02  0.31886053453E+02  0.00000000000E+00 0. -1.
         11    1    3    3    0    0  0.56014855584E+01  0.18435787324E+02 -0.67647253099E+01  0.20420979494E+02  0.51100000000E-03 0. -1.
        -11    1    3    3    0    0 -0.93127262351E+00  0.23017953040E+02 -0.31238217677E+01  0.23247616943E+02  0.51100000000E-03 0.  1.
         12    1    3    3    0    0  0.60440433302E+01 -0.14169866587E+02 -0.26619648345E+01  0.15633350110E+02  0.00000000000E+00 0. -1.
</event>
<event>
 7    1  0.6672802E-013  0.5930194E+02  0.7816164E-02  0.1266605E+00
        -11   -1    0    0    0    0  0.00000000000E+00  0.00000000000E+00  0.45593999997E+02  0.45594000000E+02  0.51100000000E-03 0.  1.
         11   -1    0    0    0    0 -0.00000000000E+00 -0.00000000000E+00 -0.45593999997E+02  0.45594000000E+02  0.51100000000E-03 0. -1.
    9900012    2    1    2    0    0  0.13772150542E+02 -0.18741169565E+02  0.21813235350E+02  0.59301940293E+02  0.49999993189E+02 0.  0.
         12    1    1    2    0    0 -0.13772150542E+02  0.18741169565E+02 -0.21813235350E+02  0.31886059707E+02  0.00000000000E+00 0. -1.
         11    1    3    3    0    0  0.13225341981E+02 -0.20887341731E+02  0.29236718999E+01  0.24894549056E+02  0.51100000000E-03 0.  1.
        -11    1    3    3    0    0 -0.13205922020E+02 -0.38348596458E+01  0.85812391774E+01  0.16209262506E+02  0.51100000000E-03 0. -1.
         12    1    3    3    0    0  0.13752730582E+02  0.59810318114E+01  0.10308324273E+02  0.18198128730E+02  0.00000000000E+00 0. -1.
</event>
<event>
 7    1  0.6672802E-013  0.5930194E+02  0.7816164E-02  0.1266605E+00
        -11   -1    0    0    0    0  0.00000000000E+00  0.00000000000E+00  0.45593999997E+02  0.45594000000E+02  0.51100000000E-03 0. -1.
         11   -1    0    0    0    0 -0.00000000000E+00 -0.00000000000E+00 -0.45593999997E+02  0.45594000000E+02  0.51100000000E-03 0.  1.
    9900012    2    1    2    0    0 -0.16683476220E+02  0.12586624597E+02 -0.24082343951E+02  0.59301940543E+02  0.49999993645E+02 0.  0.
         12    1    1    2    0    0  0.16683476220E+02 -0.12586624597E+02  0.24082343951E+02  0.31886059457E+02  0.00000000000E+00 0. -1.
         11    1    3    3    0    0 -0.14260247347E+02 -0.73337934728E+01 -0.11800920469E+01  0.16078924050E+02  0.51100000000E-03 0. -1.
        -11    1    3    3    0    0 -0.13009477420E+02  0.11686651769E+02 -0.96927985363E+00  0.17514674875E+02  0.51100000000E-03 0.  1.
         12    1    3    3    0    0  0.10586248546E+02  0.82337663014E+01 -0.21932972050E+02  0.25708341618E+02  0.00000000000E+00 0. -1.
</event>
<event>
 7    1  0.6672802E-013  0.5930194E+02  0.7816164E-02  0.1266605E+00
        -11   -1    0    0    0    0  0.00000000000E+00  0.00000000000E+00  0.45593999997E+02  0.45594000000E+02  0.51100000000E-03 0.  1.
         11   -1    0    0    0    0 -0.00000000000E+00 -0.00000000000E+00 -0.45593999997E+02  0.45594000000E+02  0.51100000000E-03 0. -1.
    9900012    2    1    2    0    0 -0.21740942359E+02  0.22918389775E+02  0.43358918120E+01  0.59301935295E+02  0.49999984074E+02 0.  0.
         12    1    1    2    0    0  0.21740942359E+02 -0.22918389775E+02 -0.43358918120E+01  0.31886064705E+02  0.00000000000E+00 0. -1.
         11    1    3    3    0    0 -0.69587733913E+01  0.24572339990E+01  0.22786663496E+01  0.77236550047E+01  0.51100000000E-03 0. -1.
        -11    1    3    3    0    0 -0.28186865773E+02  0.13535179586E+02 -0.93803078745E+01  0.32644917899E+02  0.51100000000E-03 0.  1.
         12    1    3    3    0    0  0.13404696805E+02  0.69259761906E+01  0.11437533337E+02  0.18933362392E+02  0.00000000000E+00 0. -1.
</event>
<event>
 7    1  0.6672802E-013  0.5930196E+02  0.7816164E-02  0.1266605E+00
        -11   -1    0    0    0    0  0.00000000000E+00  0.00000000000E+00  0.45593999997E+02  0.45594000000E+02  0.51100000000E-03 0.  1.
         11   -1    0    0    0    0 -0.00000000000E+00 -0.00000000000E+00 -0.45593999997E+02  0.45594000000E+02  0.51100000000E-03 0. -1.
    9900012    2    1    2    0    0 -0.95455201770E+01 -0.30423445683E+02  0.12783325715E+00  0.59301963181E+02  0.50000034931E+02 0.  0.
         12    1    1    2    0    0  0.95455201770E+01  0.30423445683E+02 -0.12783325715E+00  0.31886036819E+02  0.00000000000E+00 0. -1.
         11    1    3    3    0    0 -0.44283873292E+01 -0.18946593271E+01 -0.51189157958E+01  0.70287728295E+01  0.51100000000E-03 0. -1.
        -11    1    3    3    0    0  0.14930823519E+01  0.10195858117E+02 -0.53134012488E+01  0.11593836757E+02  0.51100000000E-03 0.  1.
        -12    1    3    3    0    0 -0.66102151997E+01 -0.38724644473E+02  0.10560150302E+02  0.40679353595E+02  0.00000000000E+00 0.  1.
</event>
<event>
 7    1  0.6672802E-013  0.5930192E+02  0.7816164E-02  0.1266605E+00
        -11   -1    0    0    0    0  0.00000000000E+00  0.00000000000E+00  0.45593999997E+02  0.45594000000E+02  0.51100000000E-03 0.  1.
         11   -1    0    0    0    0 -0.00000000000E+00 -0.00000000000E+00 -0.45593999997E+02  0.45594000000E+02  0.51100000000E-03 0. -1.
    9900012    2    1    2    0    0  0.12869217604E+02 -0.21708866067E+02  0.19489240709E+02  0.59301919477E+02  0.49999955226E+02 0.  0.
         12    1    1    2    0    0 -0.12869217604E+02  0.21708866067E+02 -0.19489240709E+02  0.31886080523E+02  0.00000000000E+00 0. -1.
         11    1    3    3    0    0  0.14346686827E+01  0.28496367992E+01 -0.58340962741E+00  0.32433117597E+01  0.51100000000E-03 0. -1.
        -11    1    3    3    0    0 -0.21632235292E+01  0.11127540672E+02  0.12950988031E+02  0.17211327336E+02  0.51100000000E-03 0.  1.
        -12    1    3    3    0    0  0.13597772451E+02 -0.35686043538E+02  0.71216623060E+01  0.38847280381E+02  0.00000000000E+00 0.  1.
</event>
<event>
 7    1  0.6672802E-013  0.5930201E+02  0.7816164E-02  0.1266605E+00
        -11   -1    0    0    0    0  0.00000000000E+00  0.00000000000E+00  0.45593999997E+02  0.45594000000E+02  0.51100000000E-03 0.  1.
         11   -1    0    0    0    0 -0.00000000000E+00 -0.00000000000E+00 -0.45593999997E+02  0.45594000000E+02  0.51100000000E-03 0. -1.
    9900012    2    1    2    0    0  0.13058332822E+02 -0.69521779115E+01  0.28246479657E+02  0.59302008612E+02  0.50000117786E+02 0.  0.
         12    1    1    2    0    0 -0.13058332822E+02  0.69521779115E+01 -0.28246479657E+02  0.31885991388E+02  0.00000000000E+00 0. -1.
         11    1    3    3    0    0 -0.33179565834E+01 -0.17702958007E+02  0.83562904673E+01  0.19855254940E+02  0.51100000000E-03 0. -1.
        -11    1    3    3    0    0  0.48450618164E+01 -0.31501167393E+01  0.20576445302E+02  0.21372598368E+02  0.51100000000E-03 0.  1.
         12    1    3    3    0    0  0.11531227589E+02  0.13900896835E+02 -0.68625611233E+00  0.18074155305E+02  0.00000000000E+00 0. -1.
</event>
<event>
 7    1  0.6672802E-013  0.5930193E+02  0.7816164E-02  0.1266605E+00
        -11   -1    0    0    0    0  0.00000000000E+00  0.00000000000E+00  0.45593999997E+02  0.45594000000E+02  0.51100000000E-03 0. -1.
         11   -1    0    0    0    0 -0.00000000000E+00 -0.00000000000E+00 -0.45593999997E+02  0.45594000000E+02  0.51100000000E-03 0.  1.
    9900012    2    1    2    0    0  0.25274074037E+02 -0.27065449910E+01  0.19251415427E+02  0.59301934075E+02  0.49999981850E+02 0.  0.
         12    1    1    2    0    0 -0.25274074037E+02  0.27065449910E+01 -0.19251415427E+02  0.31886065925E+02  0.00000000000E+00 0. -1.
         11    1    3    3    0    0  0.15212039072E+02 -0.73201396808E+01  0.19902173951E+02  0.26097645601E+02  0.51100000000E-03 0. -1.
        -11    1    3    3    0    0  0.84836050964E+01 -0.12951701751E+02  0.83796022360E+00  0.15505492939E+02  0.51100000000E-03 0.  1.
         12    1    3    3    0    0  0.15784298682E+01  0.17565296441E+02 -0.14887187471E+01  0.17698795536E+02  0.00000000000E+00 0. -1.
</event>
<event>
 7    1  0.6672802E-013  0.5930196E+02  0.7816164E-02  0.1266605E+00
        -11   -1    0    0    0    0  0.00000000000E+00  0.00000000000E+00  0.45593999997E+02  0.45594000000E+02  0.51100000000E-03 0.  1.
         11   -1    0    0    0    0 -0.00000000000E+00 -0.00000000000E+00 -0.45593999997E+02  0.45594000000E+02  0.51100000000E-03 0. -1.
    9900012    2    1    2    0    0  0.12438648671E+01  0.16087713842E+02  0.27501956606E+02  0.59301963030E+02  0.50000034656E+02 0.  0.
         12    1    1    2    0    0 -0.12438648671E+01 -0.16087713842E+02 -0.27501956606E+02  0.31886036970E+02  0.00000000000E+00 0. -1.
         11    1    3    3    0    0  0.11881341320E+01 -0.94625213980E+00  0.41966280862E+01  0.44630419428E+01  0.51100000000E-03 0. -1.
        -11    1    3    3    0    0  0.69503935611E+01 -0.26727231220E+01  0.31531432336E+02  0.32398806227E+02  0.51100000000E-03 0.  1.
         12    1    3    3    0    0 -0.68946628259E+01  0.19706689104E+02 -0.82261038160E+01  0.22440114860E+02  0.00000000000E+00 0. -1.
</event>
<event>
 7    1  0.6672802E-013  0.5930187E+02  0.7816164E-02  0.1266605E+00
        -11   -1    0    0    0    0  0.00000000000E+00  0.00000000000E+00  0.45593999997E+02  0.45594000000E+02  0.51100000000E-03 0.  1.
         11   -1    0    0    0    0 -0.00000000000E+00 -0.00000000000E+00 -0.45593999997E+02  0.45594000000E+02  0.51100000000E-03 0. -1.
    9900012    2    1    2    0    0 -0.19768063631E+02  0.24158146667E+02  0.65063714809E+01  0.59301870414E+02  0.49999865746E+02 0.  0.
         12    1    1    2    0    0  0.19768063631E+02 -0.24158146667E+02 -0.65063714809E+01  0.31886129586E+02  0.00000000000E+00 0. -1.
         11    1    3    3    0    0  0.19440879299E+01 -0.46058319962E+01  0.22288427048E+01  0.54736556633E+01  0.51100000000E-03 0. -1.
        -11    1    3    3    0    0  0.10215392465E+02  0.15417441568E+01  0.57912995200E+01  0.11843579216E+02  0.51100000000E-03 0.  1.
        -12    1    3    3    0    0 -0.31927544026E+02  0.27222234507E+02 -0.15137707439E+01  0.41984635534E+02  0.00000000000E+00 0.  1.
</event>
<event>
 7    1  0.6672802E-013  0.5930195E+02  0.7816164E-02  0.1266605E+00
        -11   -1    0    0    0    0  0.00000000000E+00  0.00000000000E+00  0.45593999997E+02  0.45594000000E+02  0.51100000000E-03 0. -1.
         11   -1    0    0    0    0 -0.00000000000E+00 -0.00000000000E+00 -0.45593999997E+02  0.45594000000E+02  0.51100000000E-03 0.  1.
    9900012    2    1    2    0    0  0.12622024674E+02  0.29275128983E+02 -0.60940639980E+00  0.59301951953E+02  0.50000014454E+02 0.  0.
         12    1    1    2    0    0 -0.12622024674E+02 -0.29275128983E+02  0.60940639980E+00  0.31886048047E+02  0.00000000000E+00 0. -1.
         11    1    3    3    0    0  0.22670294063E+02  0.42305349674E+01  0.10723757797E+00  0.23061898429E+02  0.51100000000E-03 0. -1.
        -11    1    3    3    0    0 -0.12079076800E+01  0.16292720587E+02  0.10557298667E+02  0.19451692484E+02  0.51100000000E-03 0.  1.
        -12    1    3    3    0    0 -0.88403617086E+01  0.87518734293E+01 -0.11273942645E+02  0.16788361040E+02  0.00000000000E+00 0.  1.
</event>
<event>
 7    1  0.6672802E-013  0.5930192E+02  0.7816164E-02  0.1266605E+00
        -11   -1    0    0    0    0  0.00000000000E+00  0.00000000000E+00  0.45593999997E+02  0.45594000000E+02  0.51100000000E-03 0.  1.
         11   -1    0    0    0    0 -0.00000000000E+00 -0.00000000000E+00 -0.45593999997E+02  0.45594000000E+02  0.51100000000E-03 0. -1.
    9900012    2    1    2    0    0 -0.21070312843E+01 -0.29604825400E+02 -0.11654894971E+02  0.59301923970E+02  0.49999963420E+02 0.  0.
         12    1    1    2    0    0  0.21070312843E+01  0.29604825400E+02  0.11654894971E+02  0.31886076030E+02  0.00000000000E+00 0. -1.
         11    1    3    3    0    0  0.17150097720E+01 -0.26639041627E+01  0.14453027658E+01  0.34823188039E+01  0.51100000000E-03 0. -1.
        -11    1    3    3    0    0  0.94902228384E+01 -0.16240380658E+02  0.14233601951E+02  0.23588338606E+02  0.51100000000E-03 0.  1.
         12    1    3    3    0    0 -0.13312263895E+02 -0.10700540579E+02 -0.27333799688E+02  0.32231266560E+02  0.00000000000E+00 0. -1.
</event>
<event>
 7    1  0.6672802E-013  0.5930199E+02  0.7816164E-02  0.1266605E+00
        -11   -1    0    0    0    0  0.00000000000E+00  0.00000000000E+00  0.45593999997E+02  0.45594000000E+02  0.51100000000E-03 0.  1.
         11   -1    0    0    0    0 -0.00000000000E+00 -0.00000000000E+00 -0.45593999997E+02  0.45594000000E+02  0.51100000000E-03 0. -1.
    9900012    2    1    2    0    0 -0.29064583375E+02 -0.76252754566E+01  0.10668781435E+02  0.59301988493E+02  0.50000081093E+02 0.  0.
         12    1    1    2    0    0  0.29064583375E+02  0.76252754566E+01 -0.10668781435E+02  0.31886011507E+02  0.00000000000E+00 0. -1.
         11    1    3    3    0    0 -0.17454374783E+02 -0.56690162804E+00 -0.10648601829E+02  0.20454077776E+02  0.51100000000E-03 0. -1.
        -11    1    3    3    0    0  0.39467527669E+00 -0.13980486400E+02  0.69658786848E+00  0.14003392571E+02  0.51100000000E-03 0.  1.
        -12    1    3    3    0    0 -0.12004883869E+02  0.69221125719E+01  0.20620795395E+02  0.24844518146E+02  0.00000000000E+00 0.  1.
</event>
<event>
 7    1  0.6672802E-013  0.5930194E+02  0.7816164E-02  0.1266605E+00
        -11   -1    0    0    0    0  0.00000000000E+00  0.00000000000E+00  0.45593999997E+02  0.45594000000E+02  0.51100000000E-03 0.  1.
         11   -1    0    0    0    0 -0.00000000000E+00 -0.00000000000E+00 -0.45593999997E+02  0.45594000000E+02  0.51100000000E-03 0. -1.
    9900012    2    1    2    0    0 -0.20245817192E+02  0.10260668818E+02  0.22395237153E+02  0.59301935873E+02  0.49999985128E+02 0.  0.
         12    1    1    2    0    0  0.20245817192E+02 -0.10260668818E+02 -0.22395237153E+02  0.31886064127E+02  0.00000000000E+00 0. -1.
         11    1    3    3    0    0 -0.68089259155E+01 -0.88678302167E+01 -0.19064007436E+01  0.11341703969E+02  0.51100000000E-03 0. -1.
        -11    1    3    3    0    0 -0.52869528279E+01 -0.49683024073E+01  0.21111407713E+02  0.22323248753E+02  0.51100000000E-03 0.  1.
        -12    1    3    3    0    0 -0.81499384484E+01  0.24096801442E+02  0.31902301836E+01  0.25636983151E+02  0.00000000000E+00 0.  1.
</event>
<event>
 7    1  0.6672802E-013  0.5930195E+02  0.7816164E-02  0.1266605E+00
        -11   -1    0    0    0    0  0.00000000000E+00  0.00000000000E+00  0.45593999997E+02  0.45594000000E+02  0.51100000000E-03 0. -1.
         11   -1    0    0    0    0 -0.00000000000E+00 -0.00000000000E+00 -0.45593999997E+02  0.45594000000E+02  0.51100000000E-03 0.  1.
    9900012    2    1    2    0    0  0.11642837534E+02  0.18351228401E+02 -0.23332309080E+02  0.59301954515E+02  0.50000019126E+02 0.  0.
         12    1    1    2    0    0 -0.11642837534E+02 -0.18351228401E+02  0.23332309080E+02  0.31886045485E+02  0.00000000000E+00 0. -1.
         11    1    3    3    0    0 -0.16710475750E+00 -0.77517703641E+01 -0.18647384754E+02  0.20195118870E+02  0.51100000000E-03 0. -1.
        -11    1    3    3    0    0 -0.57499928433E+01  0.16581547933E+02 -0.72082931546E+01  0.18972865888E+02  0.51100000000E-03 0.  1.
         12    1    3    3    0    0  0.17559935135E+02  0.95214508324E+01  0.25233688281E+01  0.20133969756E+02  0.00000000000E+00 0. -1.
</event>
<event>
 7    1  0.6672802E-013  0.5930195E+02  0.7816164E-02  0.1266605E+00
        -11   -1    0    0    0    0  0.00000000000E+00  0.00000000000E+00  0.45593999997E+02  0.45594000000E+02  0.51100000000E-03 0.  1.
         11   -1    0    0    0    0 -0.00000000000E+00 -0.00000000000E+00 -0.45593999997E+02  0.45594000000E+02  0.51100000000E-03 0. -1.
    9900012    2    1    2    0    0  0.30618569707E+02 -0.29993281144E+01 -0.83801777092E+01  0.59301950409E+02  0.50000011639E+02 0.  0.
         12    1    1    2    0    0 -0.30618569707E+02  0.29993281144E+01  0.83801777092E+01  0.31886049591E+02  0.00000000000E+00 0. -1.
         11    1    3    3    0    0  0.14431034169E+02  0.11238658316E+02  0.21614728870E+01  0.18418310271E+02  0.51100000000E-03 0. -1.
        -11    1    3    3    0    0  0.20890101754E+02 -0.68353947116E-01  0.25266327181E+01  0.21042454626E+02  0.51100000000E-03 0.  1.
        -12    1    3    3    0    0 -0.47025662159E+01 -0.14169632484E+02 -0.13068283314E+02  0.19841185512E+02  0.00000000000E+00 0.  1.
</event>
<event>
 7    1  0.6672802E-013  0.5930223E+02  0.7816164E-02  0.1266604E+00
        -11   -1    0    0    0    0  0.00000000000E+00  0.00000000000E+00  0.45593999997E+02  0.45594000000E+02  0.51100000000E-03 0.  1.
         11   -1    0    0    0    0 -0.00000000000E+00 -0.00000000000E+00 -0.45593999997E+02  0.45594000000E+02  0.51100000000E-03 0. -1.
    9900012    2    1    2    0    0  0.27912367705E+02  0.35355624168E+01  0.15003395417E+02  0.59302229717E+02  0.50000521026E+02 0.  0.
         12    1    1    2    0    0 -0.27912367705E+02 -0.35355624168E+01 -0.15003395417E+02  0.31885770283E+02  0.00000000000E+00 0. -1.
         11    1    3    3    0    0  0.95541204908E+01  0.10055579696E+02 -0.53421854027E+01  0.14863877237E+02  0.51100000000E-03 0. -1.
        -11    1    3    3    0    0 -0.33628686167E+01  0.11000590879E+02  0.73789893684E+01  0.13666432211E+02  0.51100000000E-03 0.  1.
         12    1    3    3    0    0  0.21721115831E+02 -0.17520608158E+02  0.12966591451E+02  0.30771920269E+02  0.00000000000E+00 0. -1.
</event>
<event>
 7    1  0.6672802E-013  0.5930195E+02  0.7816164E-02  0.1266605E+00
        -11   -1    0    0    0    0  0.00000000000E+00  0.00000000000E+00  0.45593999997E+02  0.45594000000E+02  0.51100000000E-03 0. -1.
         11   -1    0    0    0    0 -0.00000000000E+00 -0.00000000000E+00 -0.45593999997E+02  0.45594000000E+02  0.51100000000E-03 0.  1.
    9900012    2    1    2    0    0  0.30198214106E+02  0.84738124100E+01 -0.57430664200E+01  0.59301945935E+02  0.50000003478E+02 0.  0.
         12    1    1    2    0    0 -0.30198214106E+02 -0.84738124100E+01  0.57430664200E+01  0.31886054065E+02  0.00000000000E+00 0. -1.
         11    1    3    3    0    0  0.92387482196E+01  0.12661094527E+01  0.80627493574E+01  0.12327425898E+02  0.51100000000E-03 0. -1.
        -11    1    3    3    0    0  0.92122714833E+01 -0.15942123329E+02 -0.22168497837E+01  0.18545394721E+02  0.51100000000E-03 0.  1.
        -12    1    3    3    0    0  0.11747194403E+02  0.23149826286E+02 -0.11588965994E+02  0.28429125316E+02  0.00000000000E+00 0.  1.
</event>
<event>
 7    1  0.6672802E-013  0.5930193E+02  0.7816164E-02  0.1266605E+00
        -11   -1    0    0    0    0  0.00000000000E+00  0.00000000000E+00  0.45593999997E+02  0.45594000000E+02  0.51100000000E-03 0.  1.
         11   -1    0    0    0    0 -0.00000000000E+00 -0.00000000000E+00 -0.45593999997E+02  0.45594000000E+02  0.51100000000E-03 0. -1.
    9900012    2    1    2    0    0 -0.26014266488E+02  0.18146307114E+02 -0.32696673441E+01  0.59301933335E+02  0.49999980500E+02 0.  0.
         12    1    1    2    0    0  0.26014266488E+02 -0.18146307114E+02  0.32696673441E+01  0.31886066665E+02  0.00000000000E+00 0. -1.
         11    1    3    3    0    0  0.34352736695E-01 -0.16012730179E+01 -0.15390472474E+02  0.15473587128E+02  0.51100000000E-03 0.  1.
        -11    1    3    3    0    0  0.14995785302E+01 -0.31702825072E+01 -0.33007848664E+01  0.48160780661E+01  0.51100000000E-03 0. -1.
        -12    1    3    3    0    0 -0.27548197755E+02  0.22917862639E+02  0.15421589996E+02  0.39012268141E+02  0.00000000000E+00 0.  1.
</event>
<event>
 7    1  0.6672802E-013  0.5930197E+02  0.7816164E-02  0.1266605E+00
        -11   -1    0    0    0    0  0.00000000000E+00  0.00000000000E+00  0.45593999997E+02  0.45594000000E+02  0.51100000000E-03 0.  1.
         11   -1    0    0    0    0 -0.00000000000E+00 -0.00000000000E+00 -0.45593999997E+02  0.45594000000E+02  0.51100000000E-03 0. -1.
    9900012    2    1    2    0    0  0.77172103980E+01 -0.19963011040E+02  0.23635603347E+02  0.59301970274E+02  0.50000047867E+02 0.  0.
         12    1    1    2    0    0 -0.77172103980E+01  0.19963011040E+02 -0.23635603347E+02  0.31886029726E+02  0.00000000000E+00 0. -1.
         11    1    3    3    0    0  0.70323717616E+00  0.42562130219E+01 -0.52860988561E+01  0.68229563381E+01  0.51100000000E-03 0. -1.
        -11    1    3    3    0    0 -0.93065273482E+00  0.50964372815E+01 -0.48230201391E+01  0.70782279562E+01  0.51100000000E-03 0.  1.
        -12    1    3    3    0    0  0.79446259566E+01 -0.29315661343E+02  0.33744722343E+02  0.45400785980E+02  0.00000000000E+00 0.  1.
</event>
<event>
 7    1  0.6672802E-013  0.5930193E+02  0.7816164E-02  0.1266605E+00
        -11   -1    0    0    0    0  0.00000000000E+00  0.00000000000E+00  0.45593999997E+02  0.45594000000E+02  0.51100000000E-03 0.  1.
         11   -1    0    0    0    0 -0.00000000000E+00 -0.00000000000E+00 -0.45593999997E+02  0.45594000000E+02  0.51100000000E-03 0. -1.
    9900012    2    1    2    0    0 -0.17991063932E+02  0.26316039212E+02 -0.71352873435E+00  0.59301930557E+02  0.49999975434E+02 0.  0.
         12    1    1    2    0    0  0.17991063932E+02 -0.26316039212E+02  0.71352873436E+00  0.31886069443E+02  0.00000000000E+00 0. -1.
         11    1    3    3    0    0 -0.87350393651E+01  0.13791223162E+02 -0.19480118586E+02  0.25416014034E+02  0.51100000000E-03 0. -1.
        -11    1    3    3    0    0 -0.12512596003E+02  0.99524062217E+01  0.14212501583E+01  0.16051024908E+02  0.51100000000E-03 0.  1.
        -12    1    3    3    0    0  0.32565714358E+01  0.25724098288E+01  0.17345339693E+02  0.17834891615E+02  0.00000000000E+00 0.  1.
</event>
<event>
 7    1  0.6672802E-013  0.5930194E+02  0.7816164E-02  0.1266605E+00
        -11   -1    0    0    0    0  0.00000000000E+00  0.00000000000E+00  0.45593999997E+02  0.45594000000E+02  0.51100000000E-03 0. -1.
         11   -1    0    0    0    0 -0.00000000000E+00 -0.00000000000E+00 -0.45593999997E+02  0.45594000000E+02  0.51100000000E-03 0.  1.
    9900012    2    1    2    0    0  0.28058540759E+02  0.14988293733E+02 -0.21886214243E+01  0.59301941569E+02  0.49999995515E+02 0.  0.
         12    1    1    2    0    0 -0.28058540759E+02 -0.14988293733E+02  0.21886214243E+01  0.31886058431E+02  0.00000000000E+00 0. -1.
         11    1    3    3    0    0  0.93748635435E+01  0.87570924564E+01 -0.38174966084E+01  0.13384618611E+02  0.51100000000E-03 0. -1.
        -11    1    3    3    0    0  0.13778269134E+02 -0.32547859861E+01 -0.18401786143E+02  0.23217667102E+02  0.51100000000E-03 0.  1.
         12    1    3    3    0    0  0.49054080812E+01  0.94859872622E+01  0.20030661327E+02  0.22699655856E+02  0.00000000000E+00 0. -1.
</event>
<event>
 7    1  0.6672802E-013  0.5930192E+02  0.7816164E-02  0.1266605E+00
        -11   -1    0    0    0    0  0.00000000000E+00  0.00000000000E+00  0.45593999997E+02  0.45594000000E+02  0.51100000000E-03 0. -1.
         11   -1    0    0    0    0 -0.00000000000E+00 -0.00000000000E+00 -0.45593999997E+02  0.45594000000E+02  0.51100000000E-03 0.  1.
    9900012    2    1    2    0    0 -0.53569064157E+01 -0.14389291691E+02 -0.27945906001E+02  0.59301924294E+02  0.49999964010E+02 0.  0.
         12    1    1    2    0    0  0.53569064157E+01  0.14389291691E+02  0.27945906001E+02  0.31886075706E+02  0.00000000000E+00 0. -1.
         11    1    3    3    0    0 -0.48382845737E+01  0.39228268094E+01 -0.91440343611E+00  0.62955302952E+01  0.51100000000E-03 0. -1.
        -11    1    3    3    0    0  0.10596386506E+02 -0.10060313061E+02 -0.34363811512E+02  0.37341195050E+02  0.51100000000E-03 0.  1.
         12    1    3    3    0    0 -0.11115008348E+02 -0.82518054396E+01  0.73323089468E+01  0.15665198948E+02  0.00000000000E+00 0. -1.
</event>
<event>
 7    1  0.6672802E-013  0.5930191E+02  0.7816164E-02  0.1266605E+00
        -11   -1    0    0    0    0  0.00000000000E+00  0.00000000000E+00  0.45593999997E+02  0.45594000000E+02  0.51100000000E-03 0.  1.
         11   -1    0    0    0    0 -0.00000000000E+00 -0.00000000000E+00 -0.45593999997E+02  0.45594000000E+02  0.51100000000E-03 0. -1.
    9900012    2    1    2    0    0 -0.68358349586E+01  0.18013649402E+02  0.25406743975E+02  0.59301908302E+02  0.49999934845E+02 0.  0.
         12    1    1    2    0    0  0.68358349586E+01 -0.18013649402E+02 -0.25406743975E+02  0.31886091698E+02  0.00000000000E+00 0. -1.
         11    1    3    3    0    0  0.55307276195E+01  0.36158269447E+01  0.14933117729E+02  0.16329762945E+02  0.51100000000E-03 0. -1.
        -11    1    3    3    0    0  0.98192632232E+01  0.94647720250E+01  0.14482909359E+02  0.19893579454E+02  0.51100000000E-03 0.  1.
         12    1    3    3    0    0 -0.22185825801E+02  0.49330504324E+01 -0.40092831121E+01  0.23078565903E+02  0.00000000000E+00 0. -1.
</event>
<event>
 7    1  0.6672802E-013  0.5930193E+02  0.7816164E-02  0.1266605E+00
        -11   -1    0    0    0    0  0.00000000000E+00  0.00000000000E+00  0.45593999997E+02  0.45594000000E+02  0.51100000000E-03 0.  1.
         11   -1    0    0    0    0 -0.00000000000E+00 -0.00000000000E+00 -0.45593999997E+02  0.45594000000E+02  0.51100000000E-03 0. -1.
    9900012    2    1    2    0    0  0.12116033761E+02  0.26229360131E+02 -0.13488661166E+02  0.59301928009E+02  0.49999970785E+02 0.  0.
         12    1    1    2    0    0 -0.12116033761E+02 -0.26229360131E+02  0.13488661166E+02  0.31886071991E+02  0.00000000000E+00 0. -1.
         11    1    3    3    0    0  0.77088888855E+01  0.39774599104E+01  0.48594542803E+01  0.99429096019E+01  0.51100000000E-03 0. -1.
        -11    1    3    3    0    0  0.18173530983E+02  0.25688858166E+02 -0.10678502065E+02  0.33229882168E+02  0.51100000000E-03 0.  1.
         12    1    3    3    0    0 -0.13766386108E+02 -0.34369579452E+01 -0.76696133809E+01  0.16129136239E+02  0.00000000000E+00 0. -1.
</event>
<event>
 7    1  0.6672802E-013  0.5930195E+02  0.7816164E-02  0.1266605E+00
        -11   -1    0    0    0    0  0.00000000000E+00  0.00000000000E+00  0.45593999997E+02  0.45594000000E+02  0.51100000000E-03 0.  1.
         11   -1    0    0    0    0 -0.00000000000E+00 -0.00000000000E+00 -0.45593999997E+02  0.45594000000E+02  0.51100000000E-03 0. -1.
    9900012    2    1    2    0    0  0.19025044085E+01 -0.24442296535E+02  0.20388110195E+02  0.59301946305E+02  0.50000004153E+02 0.  0.
         12    1    1    2    0    0 -0.19025044085E+01  0.24442296535E+02 -0.20388110195E+02  0.31886053695E+02  0.00000000000E+00 0. -1.
         11    1    3    3    0    0  0.43932135232E+01 -0.37368320505E+02  0.68899545339E+01  0.38251316005E+02  0.51100000000E-03 0. -1.
        -11    1    3    3    0    0 -0.50452474403E+01  0.32953052738E+01  0.65690305308E+01  0.89143547695E+01  0.51100000000E-03 0.  1.
        -12    1    3    3    0    0  0.25545383256E+01  0.96307186962E+01  0.69291251306E+01  0.12136275530E+02  0.00000000000E+00 0.  1.
</event>
<event>
 7    1  0.6672802E-013  0.5930196E+02  0.7816164E-02  0.1266605E+00
        -11   -1    0    0    0    0  0.00000000000E+00  0.00000000000E+00  0.45593999997E+02  0.45594000000E+02  0.51100000000E-03 0. -1.
         11   -1    0    0    0    0 -0.00000000000E+00 -0.00000000000E+00 -0.45593999997E+02  0.45594000000E+02  0.51100000000E-03 0.  1.
    9900012    2    1    2    0    0  0.70277398914E+01  0.37396762962E+01 -0.30876288933E+02  0.59301960342E+02  0.50000029753E+02 0.  0.
         12    1    1    2    0    0 -0.70277398914E+01 -0.37396762962E+01  0.30876288933E+02  0.31886039658E+02  0.00000000000E+00 0. -1.
         11    1    3    3    0    0  0.43673579748E-01  0.48786471668E+01  0.81437976059E+00  0.49463441262E+01  0.51100000000E-03 0. -1.
        -11    1    3    3    0    0 -0.50027600560E+01  0.10442686259E+02 -0.35429377385E+02  0.37273557472E+02  0.51100000000E-03 0.  1.
        -12    1    3    3    0    0  0.11986826368E+02 -0.11581657130E+02  0.37387086910E+01  0.17082058744E+02  0.00000000000E+00 0.  1.
</event>
<event>
 7    1  0.6672802E-013  0.5930194E+02  0.7816164E-02  0.1266605E+00
        -11   -1    0    0    0    0  0.00000000000E+00  0.00000000000E+00  0.45593999997E+02  0.45594000000E+02  0.51100000000E-03 0.  1.
         11   -1    0    0    0    0 -0.00000000000E+00 -0.00000000000E+00 -0.45593999997E+02  0.45594000000E+02  0.51100000000E-03 0. -1.
    9900012    2    1    2    0    0  0.29460705447E+02  0.82619564600E+01 -0.89737342816E+01  0.59301937262E+02  0.49999987660E+02 0.  0.
         12    1    1    2    0    0 -0.29460705447E+02 -0.82619564600E+01  0.89737342816E+01  0.31886062738E+02  0.00000000000E+00 0. -1.
         11    1    3    3    0    0  0.34970412072E+02  0.14823988295E+02 -0.97368610428E+01  0.39210799695E+02  0.51100000000E-03 0. -1.
        -11    1    3    3    0    0  0.58757458265E+01 -0.81608908668E+00  0.37167987078E+01  0.70003559417E+01  0.51100000000E-03 0.  1.
        -12    1    3    3    0    0 -0.11385452451E+02 -0.57459427483E+01 -0.29536719466E+01  0.13090781625E+02  0.00000000000E+00 0.  1.
</event>
<event>
 7    1  0.6672802E-013  0.5930198E+02  0.7816164E-02  0.1266605E+00
        -11   -1    0    0    0    0  0.00000000000E+00  0.00000000000E+00  0.45593999997E+02  0.45594000000E+02  0.51100000000E-03 0. -1.
         11   -1    0    0    0    0 -0.00000000000E+00 -0.00000000000E+00 -0.45593999997E+02  0.45594000000E+02  0.51100000000E-03 0.  1.
    9900012    2    1    2    0    0 -0.19348797151E+02 -0.12077744261E+02 -0.22281611999E+02  0.59301982831E+02  0.50000070768E+02 0.  0.
         12    1    1    2    0    0  0.19348797151E+02  0.12077744261E+02  0.22281611999E+02  0.31886017169E+02  0.00000000000E+00 0. -1.
         11    1    3    3    0    0  0.47555664935E+01  0.49414820762E+01  0.14243928694E+01  0.70044666529E+01  0.51100000000E-03 0. -1.
        -11    1    3    3    0    0  0.21019060582E+01  0.86585809873E+01 -0.93048454323E+01  0.12882902723E+02  0.51100000000E-03 0.  1.
        -12    1    3    3    0    0 -0.26206269703E+02 -0.25677807325E+02 -0.14401159436E+02  0.39414613455E+02  0.00000000000E+00 0.  1.
</event>
<event>
 7    1  0.6672802E-013  0.5930195E+02  0.7816164E-02  0.1266605E+00
        -11   -1    0    0    0    0  0.00000000000E+00  0.00000000000E+00  0.45593999997E+02  0.45594000000E+02  0.51100000000E-03 0. -1.
         11   -1    0    0    0    0 -0.00000000000E+00 -0.00000000000E+00 -0.45593999997E+02  0.45594000000E+02  0.51100000000E-03 0.  1.
    9900012    2    1    2    0    0 -0.18821071809E+02  0.16527478117E+02 -0.19731440914E+02  0.59301952307E+02  0.50000015099E+02 0.  0.
         12    1    1    2    0    0  0.18821071809E+02 -0.16527478117E+02  0.19731440914E+02  0.31886047693E+02  0.00000000000E+00 0. -1.
         11    1    3    3    0    0 -0.35782774468E+01  0.17910385792E+02  0.11594634604E+02  0.21633805504E+02  0.51100000000E-03 0. -1.
        -11    1    3    3    0    0  0.22359313057E+01 -0.25552750864E+01 -0.53843897779E+01  0.63655693470E+01  0.51100000000E-03 0.  1.
        -12    1    3    3    0    0 -0.17478725668E+02  0.11723674111E+01 -0.25941685740E+02  0.31302577456E+02  0.00000000000E+00 0.  1.
</event>
<event>
 7    1  0.6672802E-013  0.5930194E+02  0.7816164E-02  0.1266605E+00
        -11   -1    0    0    0    0  0.00000000000E+00  0.00000000000E+00  0.45593999997E+02  0.45594000000E+02  0.51100000000E-03 0.  1.
         11   -1    0    0    0    0 -0.00000000000E+00 -0.00000000000E+00 -0.45593999997E+02  0.45594000000E+02  0.51100000000E-03 0. -1.
    9900012    2    1    2    0    0  0.18163325065E+02  0.20348986299E+02  0.16514627244E+02  0.59301944524E+02  0.50000000905E+02 0.  0.
         12    1    1    2    0    0 -0.18163325065E+02 -0.20348986299E+02 -0.16514627244E+02  0.31886055476E+02  0.00000000000E+00 0. -1.
         11    1    3    3    0    0  0.11625199099E+02  0.31226568073E+01  0.54627300405E+01  0.13218837293E+02  0.51100000000E-03 0. -1.
        -11    1    3    3    0    0  0.22947413318E+02  0.16555659717E+02  0.76401954406E+01  0.29309490499E+02  0.51100000000E-03 0.  1.
         12    1    3    3    0    0 -0.16409287352E+02  0.67066977523E+00  0.34117017629E+01  0.16773616732E+02  0.00000000000E+00 0. -1.
</event>
<event>
 7    1  0.6672802E-013  0.5930222E+02  0.7816164E-02  0.1266604E+00
        -11   -1    0    0    0    0  0.00000000000E+00  0.00000000000E+00  0.45593999997E+02  0.45594000000E+02  0.51100000000E-03 0. -1.
         11   -1    0    0    0    0 -0.00000000000E+00 -0.00000000000E+00 -0.45593999997E+02  0.45594000000E+02  0.51100000000E-03 0.  1.
    9900012    2    1    2    0    0  0.16493432293E+02  0.24458411812E+02 -0.12101890110E+02  0.59302220076E+02  0.50000503443E+02 0.  0.
         12    1    1    2    0    0 -0.16493432293E+02 -0.24458411812E+02  0.12101890110E+02  0.31885779924E+02  0.00000000000E+00 0. -1.
         11    1    3    3    0    0  0.42361075405E+01 -0.44509638489E+01  0.42058525257E+00  0.61589429690E+01  0.51100000000E-03 0. -1.
        -11    1    3    3    0    0  0.11026329271E+02 -0.81094245363E+01  0.97341063187E+00  0.13721888792E+02  0.51100000000E-03 0.  1.
        -12    1    3    3    0    0  0.12309954815E+01  0.37018800197E+02 -0.13495885995E+02  0.39421388315E+02  0.00000000000E+00 0.  1.
</event>
<event>
 7    1  0.6672802E-013  0.5930232E+02  0.7816164E-02  0.1266603E+00
        -11   -1    0    0    0    0  0.00000000000E+00  0.00000000000E+00  0.45593999997E+02  0.45594000000E+02  0.51100000000E-03 0. -1.
         11   -1    0    0    0    0 -0.00000000000E+00 -0.00000000000E+00 -0.45593999997E+02  0.45594000000E+02  0.51100000000E-03 0.  1.
    9900012    2    1    2    0    0 -0.31592344364E+02  0.19273923921E+01  0.38607299149E+01  0.59302324543E+02  0.50000693964E+02 0.  0.
         12    1    1    2    0    0  0.31592344364E+02 -0.19273923921E+01 -0.38607299149E+01  0.31885675457E+02  0.00000000000E+00 0. -1.
         11    1    3    3    0    0 -0.17346255183E+01  0.15541298695E+02  0.53501530546E+01  0.16527704885E+02  0.51100000000E-03 0. -1.
        -11    1    3    3    0    0  0.44108505158E+01  0.22717130376E+01  0.19795962026E+00  0.49654275415E+01  0.51100000000E-03 0.  1.
        -12    1    3    3    0    0 -0.34268569362E+02 -0.15885619340E+02 -0.16873827599E+01  0.37809192116E+02  0.00000000000E+00 0.  1.
</event>
<event>
 7    1  0.6672802E-013  0.5930192E+02  0.7816164E-02  0.1266605E+00
        -11   -1    0    0    0    0  0.00000000000E+00  0.00000000000E+00  0.45593999997E+02  0.45594000000E+02  0.51100000000E-03 0.  1.
         11   -1    0    0    0    0 -0.00000000000E+00 -0.00000000000E+00 -0.45593999997E+02  0.45594000000E+02  0.51100000000E-03 0. -1.
    9900012    2    1    2    0    0 -0.30890685127E+02 -0.27473419499E+01  0.74121177713E+01  0.59301924586E+02  0.49999964544E+02 0.  0.
         12    1    1    2    0    0  0.30890685127E+02  0.27473419499E+01 -0.74121177713E+01  0.31886075414E+02  0.00000000000E+00 0. -1.
         11    1    3    3    0    0 -0.13834588411E+02 -0.73130586283E+00 -0.10483344641E+02  0.17373288690E+02  0.51100000000E-03 0. -1.
        -11    1    3    3    0    0 -0.26893155839E+02  0.61564449608E+00  0.88794297594E+01  0.28327815345E+02  0.51100000000E-03 0.  1.
         12    1    3    3    0    0  0.98370591228E+01 -0.26316805832E+01  0.90160326530E+01  0.13600820552E+02  0.00000000000E+00 0. -1.
</event>
<event>
 7    1  0.6672802E-013  0.5930193E+02  0.7816164E-02  0.1266605E+00
        -11   -1    0    0    0    0  0.00000000000E+00  0.00000000000E+00  0.45593999997E+02  0.45594000000E+02  0.51100000000E-03 0.  1.
         11   -1    0    0    0    0 -0.00000000000E+00 -0.00000000000E+00 -0.45593999997E+02  0.45594000000E+02  0.51100000000E-03 0. -1.
    9900012    2    1    2    0    0 -0.16320186596E+02  0.16560272361E+02  0.21820405471E+02  0.59301933982E+02  0.49999981679E+02 0.  0.
         12    1    1    2    0    0  0.16320186596E+02 -0.16560272361E+02 -0.21820405471E+02  0.31886066018E+02  0.00000000000E+00 0. -1.
         11    1    3    3    0    0  0.51685004791E+01  0.86083714101E+01 -0.11251910949E+02  0.15080548923E+02  0.51100000000E-03 0. -1.
        -11    1    3    3    0    0 -0.93836496809E+01 -0.56204446453E+01  0.98013536364E+01  0.14687028723E+02  0.51100000000E-03 0.  1.
        -12    1    3    3    0    0 -0.12105037394E+02  0.13572345597E+02  0.23270962784E+02  0.29534356336E+02  0.00000000000E+00 0.  1.
</event>
<event>
 7    1  0.6672802E-013  0.5930193E+02  0.7816164E-02  0.1266605E+00
        -11   -1    0    0    0    0  0.00000000000E+00  0.00000000000E+00  0.45593999997E+02  0.45594000000E+02  0.51100000000E-03 0. -1.
         11   -1    0    0    0    0 -0.00000000000E+00 -0.00000000000E+00 -0.45593999997E+02  0.45594000000E+02  0.51100000000E-03 0.  1.
    9900012    2    1    2    0    0  0.29794329125E+02  0.64298348689E+01  0.93635908643E+01  0.59301926891E+02  0.49999968747E+02 0.  0.
         12    1    1    2    0    0 -0.29794329125E+02 -0.64298348689E+01 -0.93635908643E+01  0.31886073109E+02  0.00000000000E+00 0. -1.
         11    1    3    3    0    0  0.42579886364E+01 -0.12761580325E+02  0.11463894830E+02  0.17675103523E+02  0.51100000000E-03 0. -1.
        -11    1    3    3    0    0  0.32258684932E+01 -0.61219455891E+01 -0.36999484227E+01  0.78469142931E+01  0.51100000000E-03 0.  1.
         12    1    3    3    0    0  0.22310471995E+02  0.25313360783E+02  0.15996444573E+01  0.33779909075E+02  0.00000000000E+00 0. -1.
</event>
<event>
 7    1  0.6672802E-013  0.5930201E+02  0.7816164E-02  0.1266605E+00
        -11   -1    0    0    0    0  0.00000000000E+00  0.00000000000E+00  0.45593999997E+02  0.45594000000E+02  0.51100000000E-03 0.  1.
         11   -1    0    0    0    0 -0.00000000000E+00 -0.00000000000E+00 -0.45593999997E+02  0.45594000000E+02  0.51100000000E-03 0. -1.
    9900012    2    1    2    0    0 -0.41089710680E+01  0.30869235310E+02  0.68500341710E+01  0.59302010914E+02  0.50000121983E+02 0.  0.
         12    1    1    2    0    0  0.41089710680E+01 -0.30869235310E+02 -0.68500341710E+01  0.31885989086E+02  0.00000000000E+00 0. -1.
         11    1    3    3    0    0 -0.14678602808E+01  0.38763789801E+01  0.17050437713E+02  0.17547032634E+02  0.51100000000E-03 0. -1.
        -11    1    3    3    0    0 -0.89690963050E+00 -0.40251270625E+01 -0.98583398551E+01  0.10686110598E+02  0.51100000000E-03 0.  1.
        -12    1    3    3    0    0 -0.17442011567E+01  0.31017983393E+02 -0.34206368692E+00  0.31068867681E+02  0.00000000000E+00 0.  1.
</event>
<event>
 7    1  0.6672802E-013  0.5930194E+02  0.7816164E-02  0.1266605E+00
        -11   -1    0    0    0    0  0.00000000000E+00  0.00000000000E+00  0.45593999997E+02  0.45594000000E+02  0.51100000000E-03 0.  1.
         11   -1    0    0    0    0 -0.00000000000E+00 -0.00000000000E+00 -0.45593999997E+02  0.45594000000E+02  0.51100000000E-03 0. -1.
    9900012    2    1    2    0    0  0.20693991174E+02 -0.22744045795E+02 -0.84373000558E+01  0.59301938436E+02  0.49999989802E+02 0.  0.
         12    1    1    2    0    0 -0.20693991174E+02  0.22744045795E+02  0.84373000558E+01  0.31886061564E+02  0.00000000000E+00 0. -1.
         11    1    3    3    0    0  0.43661838161E+01 -0.20461040347E+01  0.31346465558E+01  0.57511835415E+01  0.51100000000E-03 0. -1.
        -11    1    3    3    0    0  0.23326625239E+02  0.59362165191E+01 -0.11217266574E+01  0.24096231709E+02  0.51100000000E-03 0.  1.
         12    1    3    3    0    0 -0.69988178816E+01 -0.26634158280E+02 -0.10450219954E+02  0.29454523186E+02  0.00000000000E+00 0. -1.
</event>
<event>
 7    1  0.6672802E-013  0.5930193E+02  0.7816164E-02  0.1266605E+00
        -11   -1    0    0    0    0  0.00000000000E+00  0.00000000000E+00  0.45593999997E+02  0.45594000000E+02  0.51100000000E-03 0. -1.
         11   -1    0    0    0    0 -0.00000000000E+00 -0.00000000000E+00 -0.45593999997E+02  0.45594000000E+02  0.51100000000E-03 0.  1.
    9900012    2    1    2    0    0  0.36675464522E+01  0.19678038805E+01 -0.31613261790E+02  0.59301929843E+02  0.49999974130E+02 0.  0.
         12    1    1    2    0    0 -0.36675464522E+01 -0.19678038805E+01  0.31613261790E+02  0.31886070157E+02  0.00000000000E+00 0. -1.
         11    1    3    3    0    0  0.12724110834E+02  0.73543828600E+01 -0.13337199260E+02  0.19846179182E+02  0.51100000000E-03 0. -1.
        -11    1    3    3    0    0  0.77055004290E+01 -0.59664777998E+01  0.48518984236E+01  0.10886437102E+02  0.51100000000E-03 0.  1.
        -12    1    3    3    0    0 -0.16762064811E+02  0.57989882026E+00 -0.23127960954E+02  0.28569313559E+02  0.00000000000E+00 0.  1.
</event>
<event>
 7    1  0.6672802E-013  0.5930190E+02  0.7816164E-02  0.1266605E+00
        -11   -1    0    0    0    0  0.00000000000E+00  0.00000000000E+00  0.45593999997E+02  0.45594000000E+02  0.51100000000E-03 0.  1.
         11   -1    0    0    0    0 -0.00000000000E+00 -0.00000000000E+00 -0.45593999997E+02  0.45594000000E+02  0.51100000000E-03 0. -1.
    9900012    2    1    2    0    0  0.98419210489E+01  0.19968860690E+02  0.22827715430E+02  0.59301899596E+02  0.49999918967E+02 0.  0.
         12    1    1    2    0    0 -0.98419210489E+01 -0.19968860690E+02 -0.22827715430E+02  0.31886100404E+02  0.00000000000E+00 0. -1.
         11    1    3    3    0    0  0.36857164627E+00 -0.99000366153E+01  0.19198779060E+02  0.21604159037E+02  0.51100000000E-03 0. -1.
        -11    1    3    3    0    0 -0.17074117202E+00 -0.25376360674E+01  0.29293098578E+01  0.38793821496E+01  0.51100000000E-03 0.  1.
        -12    1    3    3    0    0  0.96440905746E+01  0.32406533373E+02  0.69962651280E+00  0.33818358410E+02  0.00000000000E+00 0.  1.
</event>
<event>
 7    1  0.6672802E-013  0.5930191E+02  0.7816164E-02  0.1266605E+00
        -11   -1    0    0    0    0  0.00000000000E+00  0.00000000000E+00  0.45593999997E+02  0.45594000000E+02  0.51100000000E-03 0.  1.
         11   -1    0    0    0    0 -0.00000000000E+00 -0.00000000000E+00 -0.45593999997E+02  0.45594000000E+02  0.51100000000E-03 0. -1.
    9900012    2    1    2    0    0 -0.12967409108E+02  0.13691785173E+02  0.25711945187E+02  0.59301908902E+02  0.49999935940E+02 0.  0.
         12    1    1    2    0    0  0.12967409108E+02 -0.13691785173E+02 -0.25711945187E+02  0.31886091098E+02  0.00000000000E+00 0. -1.
         11    1    3    3    0    0 -0.80313208477E+01 -0.81165113882E+01  0.17791186379E+02  0.21140155740E+02  0.51100000000E-03 0. -1.
        -11    1    3    3    0    0  0.88478737722E+01  0.80873587747E+01  0.13376918872E+02  0.17961965399E+02  0.51100000000E-03 0.  1.
         12    1    3    3    0    0 -0.13783962032E+02  0.13720937786E+02 -0.54561600634E+01  0.20199787763E+02  0.00000000000E+00 0. -1.
</event>
<event>
 7    1  0.6672802E-013  0.5930194E+02  0.7816164E-02  0.1266605E+00
        -11   -1    0    0    0    0  0.00000000000E+00  0.00000000000E+00  0.45593999997E+02  0.45594000000E+02  0.51100000000E-03 0. -1.
         11   -1    0    0    0    0 -0.00000000000E+00 -0.00000000000E+00 -0.45593999997E+02  0.45594000000E+02  0.51100000000E-03 0.  1.
    9900012    2    1    2    0    0  0.25243768233E+02  0.16884664156E+02 -0.97149945391E+01  0.59301939767E+02  0.49999992230E+02 0.  0.
         12    1    1    2    0    0 -0.25243768233E+02 -0.16884664156E+02  0.97149945391E+01  0.31886060233E+02  0.00000000000E+00 0. -1.
         11    1    3    3    0    0  0.54913407411E+01  0.13206260680E+02 -0.39759614407E+00  0.14307977748E+02  0.51100000000E-03 0. -1.
        -11    1    3    3    0    0  0.20164476588E+02  0.13937468755E+02  0.71978100819E+01  0.25547360365E+02  0.51100000000E-03 0.  1.
         12    1    3    3    0    0 -0.41204909607E+00 -0.10259065279E+02 -0.16515208477E+02  0.19446601654E+02  0.00000000000E+00 0. -1.
</event>
<event>
 7    1  0.6672802E-013  0.5930195E+02  0.7816164E-02  0.1266605E+00
        -11   -1    0    0    0    0  0.00000000000E+00  0.00000000000E+00  0.45593999997E+02  0.45594000000E+02  0.51100000000E-03 0.  1.
         11   -1    0    0    0    0 -0.00000000000E+00 -0.00000000000E+00 -0.45593999997E+02  0.45594000000E+02  0.51100000000E-03 0. -1.
    9900012    2    1    2    0    0  0.26853291822E+02 -0.15928421768E+02 -0.64734922086E+01  0.59301952846E+02  0.50000016082E+02 0.  0.
         12    1    1    2    0    0 -0.26853291822E+02  0.15928421768E+02  0.64734922086E+01  0.31886047154E+02  0.00000000000E+00 0. -1.
         11    1    3    3    0    0  0.22887936609E+02  0.81718519134E+01 -0.10011097677E+02  0.26284194545E+02  0.51100000000E-03 0. -1.
        -11    1    3    3    0    0  0.74564794715E+01  0.79808787104E+00  0.23062931253E+01  0.78457006443E+01  0.51100000000E-03 0.  1.
        -12    1    3    3    0    0 -0.34911242577E+01 -0.24898361553E+02  0.12313123431E+01  0.25172057657E+02  0.00000000000E+00 0.  1.
</event>
<event>
 7    1  0.6672802E-013  0.5930198E+02  0.7816164E-02  0.1266605E+00
        -11   -1    0    0    0    0  0.00000000000E+00  0.00000000000E+00  0.45593999997E+02  0.45594000000E+02  0.51100000000E-03 0.  1.
         11   -1    0    0    0    0 -0.00000000000E+00 -0.00000000000E+00 -0.45593999997E+02  0.45594000000E+02  0.51100000000E-03 0. -1.
    9900012    2    1    2    0    0  0.22893740155E+01  0.72244148039E+01  0.30972327157E+02  0.59301977166E+02  0.50000060437E+02 0.  0.
         12    1    1    2    0    0 -0.22893740155E+01 -0.72244148039E+01 -0.30972327157E+02  0.31886022834E+02  0.00000000000E+00 0. -1.
         11    1    3    3    0    0 -0.93320624509E+01 -0.59308417675E+01  0.10033610274E+02  0.14931028399E+02  0.51100000000E-03 0. -1.
        -11    1    3    3    0    0  0.15524366526E+02 -0.12794478588E+01  0.24469332432E+02  0.29006743575E+02  0.51100000000E-03 0.  1.
         12    1    3    3    0    0 -0.39029300599E+01  0.14434704430E+02 -0.35306155496E+01  0.15364205193E+02  0.00000000000E+00 0. -1.
</event>
<event>
 7    1  0.6672802E-013  0.5930194E+02  0.7816164E-02  0.1266605E+00
        -11   -1    0    0    0    0  0.00000000000E+00  0.00000000000E+00  0.45593999997E+02  0.45594000000E+02  0.51100000000E-03 0.  1.
         11   -1    0    0    0    0 -0.00000000000E+00 -0.00000000000E+00 -0.45593999997E+02  0.45594000000E+02  0.51100000000E-03 0. -1.
    9900012    2    1    2    0    0 -0.22893066566E+02 -0.22190897055E+02 -0.43846685311E+00  0.59301942512E+02  0.49999997236E+02 0.  0.
         12    1    1    2    0    0  0.22893066566E+02  0.22190897055E+02  0.43846685311E+00  0.31886057488E+02  0.00000000000E+00 0. -1.
         11    1    3    3    0    0 -0.28865088569E+01 -0.17159410334E+02  0.45326245268E+01  0.17981156296E+02  0.51100000000E-03 0. -1.
        -11    1    3    3    0    0  0.27887996827E+01 -0.13802267240E+02  0.49955685738E+01  0.14941073933E+02  0.51100000000E-03 0.  1.
         12    1    3    3    0    0 -0.22795357392E+02  0.87707805181E+01 -0.99666599537E+01  0.26379712283E+02  0.00000000000E+00 0. -1.
</event>
<event>
 7    1  0.8749958E-013  0.5930195E+02  0.7816164E-02  0.1266605E+00
        -11   -1    0    0    0    0  0.00000000000E+00  0.00000000000E+00  0.45593999997E+02  0.45594000000E+02  0.51100000000E-03 0.  1.
         11   -1    0    0    0    0 -0.00000000000E+00 -0.00000000000E+00 -0.45593999997E+02  0.45594000000E+02  0.51100000000E-03 0. -1.
    9900012    2    1    2    0    0  0.10405263209E+02 -0.24481525414E+02  0.17581396844E+02  0.59301951263E+02  0.50000013196E+02 0.  0.
         12    1    1    2    0    0 -0.10405263209E+02  0.24481525414E+02 -0.17581396844E+02  0.31886048737E+02  0.00000000000E+00 0. -1.
         11    1    3    3    0    0 -0.67963177897E+01 -0.13929367997E+01  0.63475960791E+01  0.94033071135E+01  0.51100000000E-03 0. -1.
        -11    1    3    3    0    0  0.99413597739E+01 -0.17165408346E+02  0.25821343429E+02  0.32561075759E+02  0.51100000000E-03 0.  1.
         12    1    3    3    0    0  0.72602212247E+01 -0.59231802680E+01 -0.14587542664E+02  0.17337568391E+02  0.00000000000E+00 0. -1.
</event>
<event>
 7    1  0.6672802E-013  0.5930192E+02  0.7816164E-02  0.1266605E+00
        -11   -1    0    0    0    0  0.00000000000E+00  0.00000000000E+00  0.45593999997E+02  0.45594000000E+02  0.51100000000E-03 0.  1.
         11   -1    0    0    0    0 -0.00000000000E+00 -0.00000000000E+00 -0.45593999997E+02  0.45594000000E+02  0.51100000000E-03 0. -1.
    9900012    2    1    2    0    0 -0.21292312644E+02 -0.14449153816E+02  0.18830332113E+02  0.59301921044E+02  0.49999958082E+02 0.  0.
         12    1    1    2    0    0  0.21292312644E+02  0.14449153816E+02 -0.18830332113E+02  0.31886078956E+02  0.00000000000E+00 0. -1.
         11    1    3    3    0    0 -0.25442627247E+02 -0.12785157814E+02 -0.18440513397E+01  0.28533980921E+02  0.51100000000E-03 0. -1.
        -11    1    3    3    0    0  0.28054626805E+01 -0.11823609254E+02  0.83741166492E+01  0.14757851692E+02  0.51100000000E-03 0.  1.
        -12    1    3    3    0    0  0.13448519229E+01  0.10159613252E+02  0.12300266803E+02  0.16010088431E+02  0.00000000000E+00 0.  1.
</event>
<event>
 7    1  0.6672802E-013  0.5930193E+02  0.7816164E-02  0.1266605E+00
        -11   -1    0    0    0    0  0.00000000000E+00  0.00000000000E+00  0.45593999997E+02  0.45594000000E+02  0.51100000000E-03 0.  1.
         11   -1    0    0    0    0 -0.00000000000E+00 -0.00000000000E+00 -0.45593999997E+02  0.45594000000E+02  0.51100000000E-03 0. -1.
    9900012    2    1    2    0    0 -0.17396248953E+02  0.24515494880E+02  0.10634016449E+02  0.59301932937E+02  0.49999979774E+02 0.  0.
         12    1    1    2    0    0  0.17396248953E+02 -0.24515494880E+02 -0.10634016449E+02  0.31886067063E+02  0.00000000000E+00 0. -1.
         11    1    3    3    0    0 -0.80986521802E+01 -0.10179093362E+02 -0.26351113429E+01  0.13271997621E+02  0.51100000000E-03 0. -1.
        -11    1    3    3    0    0 -0.10522286011E+02  0.20735441816E+01 -0.17448310221E+00  0.10726067918E+02  0.51100000000E-03 0.  1.
         12    1    3    3    0    0  0.12246892380E+01  0.32621044061E+02  0.13443610894E+02  0.35303867398E+02  0.00000000000E+00 0. -1.
</event>
<event>
 7    1  0.6672802E-013  0.5930193E+02  0.7816164E-02  0.1266605E+00
        -11   -1    0    0    0    0  0.00000000000E+00  0.00000000000E+00  0.45593999997E+02  0.45594000000E+02  0.51100000000E-03 0. -1.
         11   -1    0    0    0    0 -0.00000000000E+00 -0.00000000000E+00 -0.45593999997E+02  0.45594000000E+02  0.51100000000E-03 0.  1.
    9900012    2    1    2    0    0 -0.13204305150E+02 -0.27453646131E+02  0.94162189388E+01  0.59301928754E+02  0.49999972145E+02 0.  0.
         12    1    1    2    0    0  0.13204305150E+02  0.27453646131E+02 -0.94162189388E+01  0.31886071246E+02  0.00000000000E+00 0. -1.
         11    1    3    3    0    0 -0.17697484640E+02 -0.10694046598E+02  0.96673189223E+01  0.22825876776E+02  0.51100000000E-03 0. -1.
        -11    1    3    3    0    0 -0.20476433337E+01 -0.17948663795E+02  0.12587719008E+02  0.22018129924E+02  0.51100000000E-03 0.  1.
        -12    1    3    3    0    0  0.65408228232E+01  0.11890642618E+01 -0.12838818991E+02  0.14457922054E+02  0.00000000000E+00 0.  1.
</event>
<event>
 7    1  0.6672802E-013  0.5930191E+02  0.7816164E-02  0.1266605E+00
        -11   -1    0    0    0    0  0.00000000000E+00  0.00000000000E+00  0.45593999997E+02  0.45594000000E+02  0.51100000000E-03 0.  1.
         11   -1    0    0    0    0 -0.00000000000E+00 -0.00000000000E+00 -0.45593999997E+02  0.45594000000E+02  0.51100000000E-03 0. -1.
    9900012    2    1    2    0    0  0.17116967664E+01  0.11655423579E+02  0.29630114671E+02  0.59301913692E+02  0.49999944675E+02 0.  0.
         12    1    1    2    0    0 -0.17116967664E+01 -0.11655423579E+02 -0.29630114671E+02  0.31886086308E+02  0.00000000000E+00 0. -1.
         11    1    3    3    0    0  0.20664649235E+01  0.17876179839E+02  0.35126771300E+01  0.18334857071E+02  0.51100000000E-03 0. -1.
        -11    1    3    3    0    0 -0.14085001872E+01 -0.68132707309E+01 -0.57810187334E+01  0.90457011163E+01  0.51100000000E-03 0.  1.
        -12    1    3    3    0    0  0.10537320300E+01  0.59251447058E+00  0.31898456274E+02  0.31921355505E+02  0.00000000000E+00 0.  1.
</event>
<event>
 7    1  0.6672802E-013  0.5930193E+02  0.7816164E-02  0.1266605E+00
        -11   -1    0    0    0    0  0.00000000000E+00  0.00000000000E+00  0.45593999997E+02  0.45594000000E+02  0.51100000000E-03 0. -1.
         11   -1    0    0    0    0 -0.00000000000E+00 -0.00000000000E+00 -0.45593999997E+02  0.45594000000E+02  0.51100000000E-03 0.  1.
    9900012    2    1    2    0    0  0.58909036207E+01 -0.29096375058E+02 -0.11636994250E+02  0.59301930594E+02  0.49999975501E+02 0.  0.
         12    1    1    2    0    0 -0.58909036207E+01  0.29096375058E+02  0.11636994250E+02  0.31886069406E+02  0.00000000000E+00 0. -1.
         11    1    3    3    0    0 -0.97645907108E+01  0.61209787898E+01 -0.52469113347E+01  0.12662688968E+02  0.51100000000E-03 0. -1.
        -11    1    3    3    0    0  0.15541336931E+02 -0.92212280118E+01  0.42262099540E+01  0.18558692047E+02  0.51100000000E-03 0.  1.
        -12    1    3    3    0    0  0.11415740013E+00 -0.25996125836E+02 -0.10616292869E+02  0.28080549579E+02  0.00000000000E+00 0.  1.
</event>
<event>
 7    1  0.6672802E-013  0.5930195E+02  0.7816164E-02  0.1266605E+00
        -11   -1    0    0    0    0  0.00000000000E+00  0.00000000000E+00  0.45593999997E+02  0.45594000000E+02  0.51100000000E-03 0.  1.
         11   -1    0    0    0    0 -0.00000000000E+00 -0.00000000000E+00 -0.45593999997E+02  0.45594000000E+02  0.51100000000E-03 0. -1.
    9900012    2    1    2    0    0 -0.16456844266E+02 -0.68925203261E+01  0.26426986443E+02  0.59301950196E+02  0.50000011249E+02 0.  0.
         12    1    1    2    0    0  0.16456844266E+02  0.68925203261E+01 -0.26426986443E+02  0.31886049804E+02  0.00000000000E+00 0. -1.
         11    1    3    3    0    0 -0.58058724657E+01  0.10346291474E+02 -0.40171890561E+01  0.12525642120E+02  0.51100000000E-03 0. -1.
        -11    1    3    3    0    0 -0.15757882084E+02  0.82889164088E+00  0.85966750205E+01  0.17969438801E+02  0.51100000000E-03 0.  1.
         12    1    3    3    0    0  0.51069102842E+01 -0.18067703440E+02  0.21847500479E+02  0.28806869275E+02  0.00000000000E+00 0. -1.
</event>
<event>
 7    1  0.6672802E-013  0.5930195E+02  0.7816164E-02  0.1266605E+00
        -11   -1    0    0    0    0  0.00000000000E+00  0.00000000000E+00  0.45593999997E+02  0.45594000000E+02  0.51100000000E-03 0.  1.
         11   -1    0    0    0    0 -0.00000000000E+00 -0.00000000000E+00 -0.45593999997E+02  0.45594000000E+02  0.51100000000E-03 0. -1.
    9900012    2    1    2    0    0  0.21221590563E+02  0.17255066321E+02  0.16389851482E+02  0.59301945817E+02  0.50000003263E+02 0.  0.
         12    1    1    2    0    0 -0.21221590563E+02 -0.17255066321E+02 -0.16389851482E+02  0.31886054183E+02  0.00000000000E+00 0. -1.
         11    1    3    3    0    0 -0.13083757323E+02  0.69710464811E+01 -0.28957414059E+01  0.15105148569E+02  0.51100000000E-03 0. -1.
        -11    1    3    3    0    0  0.13966738192E+02  0.83047669859E+01  0.22247657516E+00  0.16250797719E+02  0.51100000000E-03 0.  1.
        -12    1    3    3    0    0  0.20338609695E+02  0.19792528545E+01  0.19063116312E+02  0.27945999529E+02  0.00000000000E+00 0.  1.
</event>
<event>
 7    1  0.6672802E-013  0.5930195E+02  0.7816164E-02  0.1266605E+00
        -11   -1    0    0    0    0  0.00000000000E+00  0.00000000000E+00  0.45593999997E+02  0.45594000000E+02  0.51100000000E-03 0. -1.
         11   -1    0    0    0    0 -0.00000000000E+00 -0.00000000000E+00 -0.45593999997E+02  0.45594000000E+02  0.51100000000E-03 0.  1.
    9900012    2    1    2    0    0  0.18144850930E+02 -0.12217714027E+02 -0.23199395315E+02  0.59301951416E+02  0.50000013474E+02 0.  0.
         12    1    1    2    0    0 -0.18144850930E+02  0.12217714027E+02  0.23199395315E+02  0.31886048584E+02  0.00000000000E+00 0. -1.
         11    1    3    3    0    0  0.54546333390E+01  0.37097067477E+01  0.31117080383E+01  0.72936737103E+01  0.51100000000E-03 0. -1.
        -11    1    3    3    0    0  0.59073986745E+01  0.70165822149E+01  0.66140191214E+01  0.11308184393E+02  0.51100000000E-03 0.  1.
        -12    1    3    3    0    0  0.67828189164E+01 -0.22944002989E+02 -0.32925122475E+02  0.40700093312E+02  0.00000000000E+00 0.  1.
</event>
<event>
 7    1  0.6672802E-013  0.5930195E+02  0.7816164E-02  0.1266605E+00
        -11   -1    0    0    0    0  0.00000000000E+00  0.00000000000E+00  0.45593999997E+02  0.45594000000E+02  0.51100000000E-03 0.  1.
         11   -1    0    0    0    0 -0.00000000000E+00 -0.00000000000E+00 -0.45593999997E+02  0.45594000000E+02  0.51100000000E-03 0. -1.
    9900012    2    1    2    0    0 -0.34385284297E+01  0.25250507837E+02  0.19165299612E+02  0.59301947673E+02  0.50000006649E+02 0.  0.
         12    1    1    2    0    0  0.34385284297E+01 -0.25250507837E+02 -0.19165299612E+02  0.31886052327E+02  0.00000000000E+00 0. -1.
         11    1    3    3    0    0  0.12769854890E+02  0.10670934893E+02 -0.36916491323E+01  0.17046005953E+02  0.51100000000E-03 0. -1.
        -11    1    3    3    0    0  0.23664288453E+01 -0.17846945199E+00  0.17853023971E+02  0.18010061133E+02  0.51100000000E-03 0.  1.
        -12    1    3    3    0    0 -0.18574812165E+02  0.14758042396E+02  0.50039247724E+01  0.24245880587E+02  0.00000000000E+00 0.  1.
</event>
<event>
 7    1  0.6672802E-013  0.5930199E+02  0.7816164E-02  0.1266605E+00
        -11   -1    0    0    0    0  0.00000000000E+00  0.00000000000E+00  0.45593999997E+02  0.45594000000E+02  0.51100000000E-03 0. -1.
         11   -1    0    0    0    0 -0.00000000000E+00 -0.00000000000E+00 -0.45593999997E+02  0.45594000000E+02  0.51100000000E-03 0.  1.
    9900012    2    1    2    0    0 -0.26020047519E+01  0.12732085706E+02 -0.29117717995E+02  0.59301985254E+02  0.50000075187E+02 0.  0.
         12    1    1    2    0    0  0.26020047519E+01 -0.12732085706E+02  0.29117717995E+02  0.31886014746E+02  0.00000000000E+00 0. -1.
         11    1    3    3    0    0 -0.40109848403E+01  0.90980189743E+01 -0.12851784076E+02  0.16249009288E+02  0.51100000000E-03 0. -1.
        -11    1    3    3    0    0 -0.89957608574E+01  0.95964804198E+01 -0.24978459295E+02  0.28230118293E+02  0.51100000000E-03 0.  1.
         12    1    3    3    0    0  0.10404740946E+02 -0.59624136879E+01  0.87125253767E+01  0.14822857672E+02  0.00000000000E+00 0. -1.
</event>
<event>
 7    1  0.6672802E-013  0.5930188E+02  0.7816164E-02  0.1266605E+00
        -11   -1    0    0    0    0  0.00000000000E+00  0.00000000000E+00  0.45593999997E+02  0.45594000000E+02  0.51100000000E-03 0. -1.
         11   -1    0    0    0    0 -0.00000000000E+00 -0.00000000000E+00 -0.45593999997E+02  0.45594000000E+02  0.51100000000E-03 0.  1.
    9900012    2    1    2    0    0 -0.60406982403E+01 -0.27440610534E+02 -0.15074729954E+02  0.59301880372E+02  0.49999883908E+02 0.  0.
         12    1    1    2    0    0  0.60406982403E+01  0.27440610534E+02  0.15074729954E+02  0.31886119628E+02  0.00000000000E+00 0. -1.
         11    1    3    3    0    0  0.13435123200E+02  0.17201979182E+01 -0.21262515256E+01  0.13710673291E+02  0.51100000000E-03 0. -1.
        -11    1    3    3    0    0  0.52434219084E+01 -0.32986951139E+00 -0.39215386328E+01  0.65559707682E+01  0.51100000000E-03 0.  1.
        -12    1    3    3    0    0 -0.24719243349E+02 -0.28830938941E+02 -0.90269397954E+01  0.39035236313E+02  0.00000000000E+00 0.  1.
</event>
<event>
 7    1  0.6672802E-013  0.5930195E+02  0.7816164E-02  0.1266605E+00
        -11   -1    0    0    0    0  0.00000000000E+00  0.00000000000E+00  0.45593999997E+02  0.45594000000E+02  0.51100000000E-03 0.  1.
         11   -1    0    0    0    0 -0.00000000000E+00 -0.00000000000E+00 -0.45593999997E+02  0.45594000000E+02  0.51100000000E-03 0. -1.
    9900012    2    1    2    0    0  0.24213134669E+02  0.14830389873E+02  0.14508741968E+02  0.59301953713E+02  0.50000017664E+02 0.  0.
         12    1    1    2    0    0 -0.24213134669E+02 -0.14830389873E+02 -0.14508741968E+02  0.31886046287E+02  0.00000000000E+00 0. -1.
         11    1    3    3    0    0  0.52324737600E+01 -0.64618079812E+01 -0.78053190681E+01  0.11404242634E+02  0.51100000000E-03 0. -1.
        -11    1    3    3    0    0 -0.53758556153E-01  0.20799815277E+02  0.34304330958E+01  0.21080869931E+02  0.51100000000E-03 0.  1.
        -12    1    3    3    0    0  0.19034419465E+02  0.49238257731E+00  0.18883627941E+02  0.26816841148E+02  0.00000000000E+00 0.  1.
</event>
<event>
 7    1  0.6672802E-013  0.5930194E+02  0.7816164E-02  0.1266605E+00
        -11   -1    0    0    0    0  0.00000000000E+00  0.00000000000E+00  0.45593999997E+02  0.45594000000E+02  0.51100000000E-03 0. -1.
         11   -1    0    0    0    0 -0.00000000000E+00 -0.00000000000E+00 -0.45593999997E+02  0.45594000000E+02  0.51100000000E-03 0.  1.
    9900012    2    1    2    0    0 -0.90825507046E+01 -0.30060279476E+02  0.55324270233E+01  0.59301939123E+02  0.49999991054E+02 0.  0.
         12    1    1    2    0    0  0.90825507046E+01  0.30060279476E+02 -0.55324270233E+01  0.31886060877E+02  0.00000000000E+00 0. -1.
         11    1    3    3    0    0  0.60754805929E+01 -0.19344722962E+02  0.51272415336E+01  0.20914549408E+02  0.51100000000E-03 0. -1.
        -11    1    3    3    0    0 -0.22458822843E+02 -0.15308155952E+02  0.63503920211E+01  0.27911750952E+02  0.51100000000E-03 0.  1.
         12    1    3    3    0    0  0.73007915457E+01  0.45925994376E+01 -0.59452065314E+01  0.10475638763E+02  0.00000000000E+00 0. -1.
</event>
<event>
 7    1  0.6672802E-013  0.5930193E+02  0.7816164E-02  0.1266605E+00
        -11   -1    0    0    0    0  0.00000000000E+00  0.00000000000E+00  0.45593999997E+02  0.45594000000E+02  0.51100000000E-03 0.  1.
         11   -1    0    0    0    0 -0.00000000000E+00 -0.00000000000E+00 -0.45593999997E+02  0.45594000000E+02  0.51100000000E-03 0. -1.
    9900012    2    1    2    0    0 -0.12523713700E+02 -0.15521028369E+02  0.24879223072E+02  0.59301929889E+02  0.49999974215E+02 0.  0.
         12    1    1    2    0    0  0.12523713700E+02  0.15521028369E+02 -0.24879223072E+02  0.31886070111E+02  0.00000000000E+00 0. -1.
         11    1    3    3    0    0 -0.12294760779E+02 -0.13995076597E+02  0.66404607033E+00  0.18640393478E+02  0.51100000000E-03 0.  1.
        -11    1    3    3    0    0 -0.65791473706E+01 -0.11965417237E+02  0.13164451544E+00  0.13655538082E+02  0.51100000000E-03 0. -1.
        -12    1    3    3    0    0  0.63501944491E+01  0.10439465465E+02  0.24083532486E+02  0.27005998329E+02  0.00000000000E+00 0.  1.
</event>
<event>
 7    1  0.6672802E-013  0.5930197E+02  0.7816164E-02  0.1266605E+00
        -11   -1    0    0    0    0  0.00000000000E+00  0.00000000000E+00  0.45593999997E+02  0.45594000000E+02  0.51100000000E-03 0. -1.
         11   -1    0    0    0    0 -0.00000000000E+00 -0.00000000000E+00 -0.45593999997E+02  0.45594000000E+02  0.51100000000E-03 0.  1.
    9900012    2    1    2    0    0 -0.30622019624E+02  0.87182214232E+01 -0.17330532290E+01  0.59301969452E+02  0.50000046368E+02 0.  0.
         12    1    1    2    0    0  0.30622019624E+02 -0.87182214232E+01  0.17330532290E+01  0.31886030548E+02  0.00000000000E+00 0. -1.
         11    1    3    3    0    0 -0.75315133956E+01  0.16492650031E+00 -0.22828063088E+02  0.24038955039E+02  0.51100000000E-03 0. -1.
        -11    1    3    3    0    0 -0.12924633709E+02  0.10058924521E+02  0.69796534917E+01  0.17802912182E+02  0.51100000000E-03 0.  1.
        -12    1    3    3    0    0 -0.10165872519E+02 -0.15056295980E+01  0.14115356367E+02  0.17460102231E+02  0.00000000000E+00 0.  1.
</event>
<event>
 7    1  0.6672802E-013  0.5930197E+02  0.7816164E-02  0.1266605E+00
        -11   -1    0    0    0    0  0.00000000000E+00  0.00000000000E+00  0.45593999997E+02  0.45594000000E+02  0.51100000000E-03 0. -1.
         11   -1    0    0    0    0 -0.00000000000E+00 -0.00000000000E+00 -0.45593999997E+02  0.45594000000E+02  0.51100000000E-03 0.  1.
    9900012    2    1    2    0    0 -0.19897225849E+02 -0.51575484532E+01 -0.24376611981E+02  0.59301966785E+02  0.50000041503E+02 0.  0.
         12    1    1    2    0    0  0.19897225849E+02  0.51575484532E+01  0.24376611981E+02  0.31886033215E+02  0.00000000000E+00 0. -1.
         11    1    3    3    0    0  0.82838555511E+01 -0.10017814396E+02 -0.16278158399E+01  0.13100711917E+02  0.51100000000E-03 0. -1.
        -11    1    3    3    0    0  0.41292375634E+01 -0.48856201001E+01 -0.46316579213E+01  0.78976035592E+01  0.51100000000E-03 0.  1.
         12    1    3    3    0    0 -0.32310318964E+02  0.97458860427E+01 -0.18117138220E+02  0.38303651309E+02  0.00000000000E+00 0. -1.
</event>
<event>
 7    1  0.6672802E-013  0.5930196E+02  0.7816164E-02  0.1266605E+00
        -11   -1    0    0    0    0  0.00000000000E+00  0.00000000000E+00  0.45593999997E+02  0.45594000000E+02  0.51100000000E-03 0. -1.
         11   -1    0    0    0    0 -0.00000000000E+00 -0.00000000000E+00 -0.45593999997E+02  0.45594000000E+02  0.51100000000E-03 0.  1.
    9900012    2    1    2    0    0 -0.25022470778E+02 -0.19696218840E+02 -0.16291658771E+01  0.59301964469E+02  0.50000037280E+02 0.  0.
         12    1    1    2    0    0  0.25022470778E+02  0.19696218840E+02  0.16291658771E+01  0.31886035531E+02  0.00000000000E+00 0. -1.
         11    1    3    3    0    0 -0.26247221203E+02 -0.35477111963E+01  0.13759997094E+02  0.29846949524E+02  0.51100000000E-03 0. -1.
        -11    1    3    3    0    0  0.34256906087E+01  0.18980692940E+01  0.19119577622E+01  0.43581654325E+01  0.51100000000E-03 0.  1.
        -12    1    3    3    0    0 -0.22009401838E+01 -0.18046576937E+02 -0.17301120733E+02  0.25096849513E+02  0.00000000000E+00 0.  1.
</event>
<event>
 7    1  0.6672802E-013  0.5930195E+02  0.7816164E-02  0.1266605E+00
        -11   -1    0    0    0    0  0.00000000000E+00  0.00000000000E+00  0.45593999997E+02  0.45594000000E+02  0.51100000000E-03 0.  1.
         11   -1    0    0    0    0 -0.00000000000E+00 -0.00000000000E+00 -0.45593999997E+02  0.45594000000E+02  0.51100000000E-03 0. -1.
    9900012    2    1    2    0    0 -0.89217710965E+01  0.29533405804E+02  0.80560430240E+01  0.59301954665E+02  0.50000019400E+02 0.  0.
         12    1    1    2    0    0  0.89217710965E+01 -0.29533405804E+02 -0.80560430240E+01  0.31886045335E+02  0.00000000000E+00 0. -1.
         11    1    3    3    0    0 -0.21599096385E+02  0.51840818591E+01  0.95676513695E+01  0.24185442365E+02  0.51100000000E-03 0. -1.
        -11    1    3    3    0    0 -0.54833143570E+01  0.94157072439E+01  0.27110369727E+01  0.11228178880E+02  0.51100000000E-03 0.  1.
        -12    1    3    3    0    0  0.18160639646E+02  0.14933616701E+02 -0.42226453182E+01  0.23888333420E+02  0.00000000000E+00 0.  1.
</event>
<event>
 7    1  0.6672802E-013  0.5930200E+02  0.7816164E-02  0.1266605E+00
        -11   -1    0    0    0    0  0.00000000000E+00  0.00000000000E+00  0.45593999997E+02  0.45594000000E+02  0.51100000000E-03 0.  1.
         11   -1    0    0    0    0 -0.00000000000E+00 -0.00000000000E+00 -0.45593999997E+02  0.45594000000E+02  0.51100000000E-03 0. -1.
    9900012    2    1    2    0    0  0.10358181017E+02  0.14306318044E+02  0.26547207695E+02  0.59302001720E+02  0.50000105216E+02 0.  0.
         12    1    1    2    0    0 -0.10358181017E+02 -0.14306318044E+02 -0.26547207695E+02  0.31885998280E+02  0.00000000000E+00 0. -1.
         11    1    3    3    0    0  0.23398888717E+00 -0.10590032904E+02 -0.24096275957E+01  0.10863234008E+02  0.51100000000E-03 0. -1.
        -11    1    3    3    0    0 -0.41740972785E+01 -0.23471339385E+01 -0.16259527279E+01  0.50572569986E+01  0.51100000000E-03 0.  1.
        -12    1    3    3    0    0  0.14298289408E+02  0.27243484886E+02  0.30582788019E+02  0.43381510713E+02  0.00000000000E+00 0.  1.
</event>
<event>
 7    1  0.6672802E-013  0.5930194E+02  0.7816164E-02  0.1266605E+00
        -11   -1    0    0    0    0  0.00000000000E+00  0.00000000000E+00  0.45593999997E+02  0.45594000000E+02  0.51100000000E-03 0.  1.
         11   -1    0    0    0    0 -0.00000000000E+00 -0.00000000000E+00 -0.45593999997E+02  0.45594000000E+02  0.51100000000E-03 0. -1.
    9900012    2    1    2    0    0 -0.18340175757E+02  0.15598884442E+02  0.20905347413E+02  0.59301940458E+02  0.49999993489E+02 0.  0.
         12    1    1    2    0    0  0.18340175757E+02 -0.15598884442E+02 -0.20905347413E+02  0.31886059542E+02  0.00000000000E+00 0. -1.
         11    1    3    3    0    0 -0.15410029516E+02 -0.11304761014E+02  0.83505999876E+01  0.20856633278E+02  0.51100000000E-03 0. -1.
        -11    1    3    3    0    0 -0.58245915838E+01 -0.25947679729E+01  0.33531494845E+00  0.63852270380E+01  0.51100000000E-03 0.  1.
        -12    1    3    3    0    0  0.28944453423E+01  0.29498413429E+02  0.12219432477E+02  0.32060080142E+02  0.00000000000E+00 0.  1.
</event>
<event>
 7    1  0.6672802E-013  0.5930194E+02  0.7816164E-02  0.1266605E+00
        -11   -1    0    0    0    0  0.00000000000E+00  0.00000000000E+00  0.45593999997E+02  0.45594000000E+02  0.51100000000E-03 0. -1.
         11   -1    0    0    0    0 -0.00000000000E+00 -0.00000000000E+00 -0.45593999997E+02  0.45594000000E+02  0.51100000000E-03 0.  1.
    9900012    2    1    2    0    0  0.59219827882E+01 -0.73889767864E+01 -0.30447564850E+02  0.59301936220E+02  0.49999985760E+02 0.  0.
         12    1    1    2    0    0 -0.59219827882E+01  0.73889767864E+01  0.30447564850E+02  0.31886063780E+02  0.00000000000E+00 0. -1.
         11    1    3    3    0    0  0.16899942105E+02 -0.14188420522E+02 -0.55100649814E+01  0.22743793360E+02  0.51100000000E-03 0.  1.
        -11    1    3    3    0    0 -0.64808119247E+01 -0.61008480503E+01 -0.94758023627E+00  0.89509317225E+01  0.51100000000E-03 0. -1.
        -12    1    3    3    0    0 -0.44971473916E+01  0.12900291786E+02 -0.23989919632E+02  0.27607211137E+02  0.00000000000E+00 0.  1.
</event>
<event>
 7    1  0.6672802E-013  0.5930196E+02  0.7816164E-02  0.1266605E+00
        -11   -1    0    0    0    0  0.00000000000E+00  0.00000000000E+00  0.45593999997E+02  0.45594000000E+02  0.51100000000E-03 0.  1.
         11   -1    0    0    0    0 -0.00000000000E+00 -0.00000000000E+00 -0.45593999997E+02  0.45594000000E+02  0.51100000000E-03 0. -1.
    9900012    2    1    2    0    0 -0.28113917178E+02 -0.53506531335E+00  0.15034665249E+02  0.59301956139E+02  0.50000022088E+02 0.  0.
         12    1    1    2    0    0  0.28113917178E+02  0.53506531335E+00 -0.15034665249E+02  0.31886043861E+02  0.00000000000E+00 0. -1.
         11    1    3    3    0    0  0.51938989247E+01 -0.49196253874E+01  0.61021349045E+01  0.94029437224E+01  0.51100000000E-03 0. -1.
        -11    1    3    3    0    0 -0.39831690809E+01 -0.13042129807E+02 -0.26155181239E+01  0.13885377962E+02  0.51100000000E-03 0.  1.
         12    1    3    3    0    0 -0.29324647022E+02  0.17426689881E+02  0.11548048468E+02  0.36013634454E+02  0.00000000000E+00 0. -1.
</event>
<event>
 7    1  0.6672802E-013  0.5930194E+02  0.7816164E-02  0.1266605E+00
        -11   -1    0    0    0    0  0.00000000000E+00  0.00000000000E+00  0.45593999997E+02  0.45594000000E+02  0.51100000000E-03 0. -1.
         11   -1    0    0    0    0 -0.00000000000E+00 -0.00000000000E+00 -0.45593999997E+02  0.45594000000E+02  0.51100000000E-03 0.  1.
    9900012    2    1    2    0    0 -0.13689260840E+02  0.28796502364E+02 -0.29375912889E+00  0.59301941837E+02  0.49999996005E+02 0.  0.
         12    1    1    2    0    0  0.13689260840E+02 -0.28796502364E+02  0.29375912889E+00  0.31886058163E+02  0.00000000000E+00 0. -1.
         11    1    3    3    0    0  0.52328679524E+01  0.12499382680E+02  0.14221099839E+02  0.19643247065E+02  0.51100000000E-03 0. -1.
        -11    1    3    3    0    0  0.42652003753E+00  0.11511585993E+02  0.42550403570E+01  0.12280223944E+02  0.51100000000E-03 0.  1.
        -12    1    3    3    0    0 -0.19348648830E+02  0.47855336914E+01 -0.18769899324E+02  0.27378470828E+02  0.00000000000E+00 0.  1.
</event>
<event>
 7    1  0.6672802E-013  0.5930193E+02  0.7816164E-02  0.1266605E+00
        -11   -1    0    0    0    0  0.00000000000E+00  0.00000000000E+00  0.45593999997E+02  0.45594000000E+02  0.51100000000E-03 0.  1.
         11   -1    0    0    0    0 -0.00000000000E+00 -0.00000000000E+00 -0.45593999997E+02  0.45594000000E+02  0.51100000000E-03 0. -1.
    9900012    2    1    2    0    0 -0.10353604530E+02  0.10284405577E+02  0.28350576466E+02  0.59301932341E+02  0.49999978685E+02 0.  0.
         12    1    1    2    0    0  0.10353604530E+02 -0.10284405577E+02 -0.28350576466E+02  0.31886067659E+02  0.00000000000E+00 0. -1.
         11    1    3    3    0    0  0.42896983481E+01 -0.67476136029E+01  0.25630827048E+00  0.79998434636E+01  0.51100000000E-03 0.  1.
        -11    1    3    3    0    0 -0.38794596866E+01  0.63141110139E+01 -0.87398850097E+01  0.11458786829E+02  0.51100000000E-03 0. -1.
        -12    1    3    3    0    0 -0.10763843191E+02  0.10717908166E+02  0.36834153205E+02  0.39843302048E+02  0.00000000000E+00 0.  1.
</event>
<event>
 7    1  0.6672802E-013  0.5930195E+02  0.7816164E-02  0.1266605E+00
        -11   -1    0    0    0    0  0.00000000000E+00  0.00000000000E+00  0.45593999997E+02  0.45594000000E+02  0.51100000000E-03 0. -1.
         11   -1    0    0    0    0 -0.00000000000E+00 -0.00000000000E+00 -0.45593999997E+02  0.45594000000E+02  0.51100000000E-03 0.  1.
    9900012    2    1    2    0    0 -0.25100237245E+01 -0.31731138037E+02  0.18853811151E+01  0.59301952861E+02  0.50000016110E+02 0.  0.
         12    1    1    2    0    0  0.25100237245E+01  0.31731138037E+02 -0.18853811151E+01  0.31886047139E+02  0.00000000000E+00 0. -1.
         11    1    3    3    0    0  0.56294298101E+01 -0.14144913039E+02 -0.45853253276E+01  0.15899504819E+02  0.51100000000E-03 0. -1.
        -11    1    3    3    0    0  0.60076443762E+01 -0.10227995999E+02 -0.13418656766E+02  0.17909886732E+02  0.51100000000E-03 0.  1.
         12    1    3    3    0    0 -0.14147097911E+02 -0.73582289989E+01  0.19889363208E+02  0.25492561310E+02  0.00000000000E+00 0. -1.
</event>
<event>
 7    1  0.6672802E-013  0.5930196E+02  0.7816164E-02  0.1266605E+00
        -11   -1    0    0    0    0  0.00000000000E+00  0.00000000000E+00  0.45593999997E+02  0.45594000000E+02  0.51100000000E-03 0. -1.
         11   -1    0    0    0    0 -0.00000000000E+00 -0.00000000000E+00 -0.45593999997E+02  0.45594000000E+02  0.51100000000E-03 0.  1.
    9900012    2    1    2    0    0 -0.18403448589E+02  0.13990638787E+02 -0.21961213283E+02  0.59301956306E+02  0.50000022392E+02 0.  0.
         12    1    1    2    0    0  0.18403448589E+02 -0.13990638787E+02  0.21961213283E+02  0.31886043694E+02  0.00000000000E+00 0. -1.
         11    1    3    3    0    0 -0.19055218363E+01  0.10579315280E+02 -0.60922345193E+01  0.12355899278E+02  0.51100000000E-03 0. -1.
        -11    1    3    3    0    0 -0.55469305245E+01  0.83230670371E+01  0.12578426318E+02  0.16070429118E+02  0.51100000000E-03 0.  1.
        -12    1    3    3    0    0 -0.10950996228E+02 -0.49117435306E+01 -0.28447405082E+02  0.30875627909E+02  0.00000000000E+00 0.  1.
</event>
<event>
 7    1  0.6672802E-013  0.5930194E+02  0.7816164E-02  0.1266605E+00
        -11   -1    0    0    0    0  0.00000000000E+00  0.00000000000E+00  0.45593999997E+02  0.45594000000E+02  0.51100000000E-03 0.  1.
         11   -1    0    0    0    0 -0.00000000000E+00 -0.00000000000E+00 -0.45593999997E+02  0.45594000000E+02  0.51100000000E-03 0. -1.
    9900012    2    1    2    0    0 -0.24579803045E+02 -0.11989907455E+02  0.16395014361E+02  0.59301935733E+02  0.49999984873E+02 0.  0.
         12    1    1    2    0    0  0.24579803045E+02  0.11989907455E+02 -0.16395014361E+02  0.31886064267E+02  0.00000000000E+00 0. -1.
         11    1    3    3    0    0 -0.14021604601E+02 -0.28457012394E+01 -0.87571761286E+01  0.16774729361E+02  0.51100000000E-03 0. -1.
        -11    1    3    3    0    0 -0.12369983350E+02 -0.19866952348E+02  0.16606279638E+02  0.28696355297E+02  0.51100000000E-03 0.  1.
         12    1    3    3    0    0  0.18117849057E+01  0.10722746133E+02  0.85459108517E+01  0.13830851075E+02  0.00000000000E+00 0. -1.
</event>
<event>
 7    1  0.6672802E-013  0.5930195E+02  0.7816164E-02  0.1266605E+00
        -11   -1    0    0    0    0  0.00000000000E+00  0.00000000000E+00  0.45593999997E+02  0.45594000000E+02  0.51100000000E-03 0. -1.
         11   -1    0    0    0    0 -0.00000000000E+00 -0.00000000000E+00 -0.45593999997E+02  0.45594000000E+02  0.51100000000E-03 0.  1.
    9900012    2    1    2    0    0 -0.26655432740E+02 -0.45927366520E+01 -0.16885341112E+02  0.59301951813E+02  0.50000014198E+02 0.  0.
         12    1    1    2    0    0  0.26655432740E+02  0.45927366520E+01  0.16885341112E+02  0.31886048187E+02  0.00000000000E+00 0. -1.
         11    1    3    3    0    0 -0.47793277327E+01 -0.11411640680E+02 -0.18999172487E+02  0.22672363618E+02  0.51100000000E-03 0. -1.
        -11    1    3    3    0    0  0.90236329241E+00 -0.42682697570E+01 -0.81911063168E+01  0.92804422946E+01  0.51100000000E-03 0.  1.
         12    1    3    3    0    0 -0.22778468300E+02  0.11087173785E+02  0.10304937691E+02  0.27349145900E+02  0.00000000000E+00 0. -1.
</event>
<event>
 7    1  0.6672802E-013  0.5930205E+02  0.7816164E-02  0.1266604E+00
        -11   -1    0    0    0    0  0.00000000000E+00  0.00000000000E+00  0.45593999997E+02  0.45594000000E+02  0.51100000000E-03 0. -1.
         11   -1    0    0    0    0 -0.00000000000E+00 -0.00000000000E+00 -0.45593999997E+02  0.45594000000E+02  0.51100000000E-03 0.  1.
    9900012    2    1    2    0    0 -0.26762822403E+02 -0.13654905363E+02 -0.10677491027E+02  0.59302048265E+02  0.50000190104E+02 0.  0.
         12    1    1    2    0    0  0.26762822403E+02  0.13654905363E+02  0.10677491027E+02  0.31885951735E+02  0.00000000000E+00 0. -1.
         11    1    3    3    0    0 -0.58902860915E+01 -0.69379987064E+01  0.95523549513E+01  0.13193891832E+02  0.51100000000E-03 0. -1.
        -11    1    3    3    0    0  0.13398455795E+01  0.11122664624E+01 -0.22389922972E+02  0.22457537127E+02  0.51100000000E-03 0.  1.
         12    1    3    3    0    0 -0.22212381891E+02 -0.78291731186E+01  0.21600769937E+01  0.23650619307E+02  0.00000000000E+00 0. -1.
</event>
<event>
 7    1  0.6672802E-013  0.5930191E+02  0.7816164E-02  0.1266605E+00
        -11   -1    0    0    0    0  0.00000000000E+00  0.00000000000E+00  0.45593999997E+02  0.45594000000E+02  0.51100000000E-03 0.  1.
         11   -1    0    0    0    0 -0.00000000000E+00 -0.00000000000E+00 -0.45593999997E+02  0.45594000000E+02  0.51100000000E-03 0. -1.
    9900012    2    1    2    0    0 -0.15939786749E+02 -0.21410412654E+02  0.17442481586E+02  0.59301910000E+02  0.49999937942E+02 0.  0.
         12    1    1    2    0    0  0.15939786749E+02  0.21410412654E+02 -0.17442481586E+02  0.31886090000E+02  0.00000000000E+00 0. -1.
         11    1    3    3    0    0 -0.10569647330E+02  0.30297498590E+01  0.11354092107E+02  0.15805449590E+02  0.51100000000E-03 0.  1.
        -11    1    3    3    0    0  0.10322827869E+02 -0.15470921015E+02  0.14477528591E+02  0.23569238567E+02  0.51100000000E-03 0. -1.
         12    1    3    3    0    0 -0.15692967288E+02 -0.89692414984E+01 -0.83891391125E+01  0.19927221843E+02  0.00000000000E+00 0. -1.
</event>
<event>
 7    1  0.6672802E-013  0.5930195E+02  0.7816164E-02  0.1266605E+00
        -11   -1    0    0    0    0  0.00000000000E+00  0.00000000000E+00  0.45593999997E+02  0.45594000000E+02  0.51100000000E-03 0. -1.
         11   -1    0    0    0    0 -0.00000000000E+00 -0.00000000000E+00 -0.45593999997E+02  0.45594000000E+02  0.51100000000E-03 0.  1.
    9900012    2    1    2    0    0 -0.28361624535E+02  0.85901036075E+01 -0.11770673230E+02  0.59301947021E+02  0.50000005460E+02 0.  0.
         12    1    1    2    0    0  0.28361624535E+02 -0.85901036075E+01  0.11770673230E+02  0.31886052979E+02  0.00000000000E+00 0. -1.
         11    1    3    3    0    0 -0.79639601128E+00 -0.91379476943E+01 -0.80225075234E+01  0.12185932951E+02  0.51100000000E-03 0. -1.
        -11    1    3    3    0    0 -0.12709314253E+02  0.26179486492E+02 -0.64620331353E+01  0.29810234053E+02  0.51100000000E-03 0.  1.
         12    1    3    3    0    0 -0.14855914270E+02 -0.84514351902E+01  0.27138674284E+01  0.17305780017E+02  0.00000000000E+00 0. -1.
</event>
<event>
 7    1  0.6672802E-013  0.5930202E+02  0.7816164E-02  0.1266605E+00
        -11   -1    0    0    0    0  0.00000000000E+00  0.00000000000E+00  0.45593999997E+02  0.45594000000E+02  0.51100000000E-03 0.  1.
         11   -1    0    0    0    0 -0.00000000000E+00 -0.00000000000E+00 -0.45593999997E+02  0.45594000000E+02  0.51100000000E-03 0. -1.
    9900012    2    1    2    0    0 -0.32562233854E+01  0.30742668711E+02  0.78103284702E+01  0.59302017170E+02  0.50000133395E+02 0.  0.
         12    1    1    2    0    0  0.32562233854E+01 -0.30742668711E+02 -0.78103284702E+01  0.31885982830E+02  0.00000000000E+00 0. -1.
         11    1    3    3    0    0  0.10242071459E+02 -0.58062415169E+00 -0.13139348771E+02  0.16669722210E+02  0.51100000000E-03 0. -1.
        -11    1    3    3    0    0  0.27124329900E+01  0.92422173465E+01  0.68857282008E+01  0.11840148957E+02  0.51100000000E-03 0.  1.
         12    1    3    3    0    0 -0.16210727834E+02  0.22081075516E+02  0.14063949041E+02  0.30792146003E+02  0.00000000000E+00 0. -1.
</event>
<event>
 7    1  0.6672802E-013  0.5930194E+02  0.7816164E-02  0.1266605E+00
        -11   -1    0    0    0    0  0.00000000000E+00  0.00000000000E+00  0.45593999997E+02  0.45594000000E+02  0.51100000000E-03 0. -1.
         11   -1    0    0    0    0 -0.00000000000E+00 -0.00000000000E+00 -0.45593999997E+02  0.45594000000E+02  0.51100000000E-03 0.  1.
    9900012    2    1    2    0    0 -0.19610325890E+02 -0.17740818023E+02 -0.17816271013E+02  0.59301936925E+02  0.49999987047E+02 0.  0.
         12    1    1    2    0    0  0.19610325890E+02  0.17740818023E+02  0.17816271013E+02  0.31886063075E+02  0.00000000000E+00 0. -1.
         11    1    3    3    0    0 -0.13794469575E+02 -0.49001457106E+01  0.64810920376E+01  0.16009477602E+02  0.51100000000E-03 0. -1.
        -11    1    3    3    0    0 -0.99389684426E+01 -0.89978755669E+00  0.51642930984E+01  0.11236664755E+02  0.51100000000E-03 0.  1.
         12    1    3    3    0    0  0.41231121275E+01 -0.11940884755E+02 -0.29461656149E+02  0.32055794568E+02  0.00000000000E+00 0. -1.
</event>
<event>
 7    1  0.6672802E-013  0.5930192E+02  0.7816164E-02  0.1266605E+00
        -11   -1    0    0    0    0  0.00000000000E+00  0.00000000000E+00  0.45593999997E+02  0.45594000000E+02  0.51100000000E-03 0. -1.
         11   -1    0    0    0    0 -0.00000000000E+00 -0.00000000000E+00 -0.45593999997E+02  0.45594000000E+02  0.51100000000E-03 0.  1.
    9900012    2    1    2    0    0 -0.28009815841E+02  0.14965738630E+02 -0.28633680195E+01  0.59301921648E+02  0.49999959185E+02 0.  0.
         12    1    1    2    0    0  0.28009815841E+02 -0.14965738630E+02  0.28633680195E+01  0.31886078352E+02  0.00000000000E+00 0. -1.
         11    1    3    3    0    0  0.22956878909E+01  0.34649229472E+01  0.96004380461E+01  0.10461562257E+02  0.51100000000E-03 0. -1.
        -11    1    3    3    0    0 -0.16030599010E+02  0.22855424785E+02 -0.24294099380E+01  0.28022358567E+02  0.51100000000E-03 0.  1.
        -12    1    3    3    0    0 -0.14274904722E+02 -0.11354609102E+02 -0.10034396128E+02  0.20818000825E+02  0.00000000000E+00 0.  1.
</event>
<event>
 7    1  0.6672802E-013  0.5930196E+02  0.7816164E-02  0.1266605E+00
        -11   -1    0    0    0    0  0.00000000000E+00  0.00000000000E+00  0.45593999997E+02  0.45594000000E+02  0.51100000000E-03 0.  1.
         11   -1    0    0    0    0 -0.00000000000E+00 -0.00000000000E+00 -0.45593999997E+02  0.45594000000E+02  0.51100000000E-03 0. -1.
    9900012    2    1    2    0    0  0.24898173691E+02 -0.10127676089E+02  0.17153159298E+02  0.59301956815E+02  0.50000023321E+02 0.  0.
         12    1    1    2    0    0 -0.24898173691E+02  0.10127676089E+02 -0.17153159298E+02  0.31886043185E+02  0.00000000000E+00 0. -1.
         11    1    3    3    0    0  0.65915732288E+01  0.14324806543E+02  0.15182191341E+01  0.15841524855E+02  0.51100000000E-03 0. -1.
        -11    1    3    3    0    0  0.54579087496E+01  0.51386038750E+01  0.65258370042E+01  0.99388413092E+01  0.51100000000E-03 0.  1.
        -12    1    3    3    0    0  0.12848691712E+02 -0.29591086507E+02  0.91091031600E+01  0.33521590651E+02  0.00000000000E+00 0.  1.
</event>
<event>
 7    1  0.6672802E-013  0.5930195E+02  0.7816164E-02  0.1266605E+00
        -11   -1    0    0    0    0  0.00000000000E+00  0.00000000000E+00  0.45593999997E+02  0.45594000000E+02  0.51100000000E-03 0.  1.
         11   -1    0    0    0    0 -0.00000000000E+00 -0.00000000000E+00 -0.45593999997E+02  0.45594000000E+02  0.51100000000E-03 0. -1.
    9900012    2    1    2    0    0 -0.31418963952E+01 -0.45697201537E+01  0.31400101904E+02  0.59301948899E+02  0.50000008883E+02 0.  0.
         12    1    1    2    0    0  0.31418963952E+01  0.45697201537E+01 -0.31400101904E+02  0.31886051101E+02  0.00000000000E+00 0. -1.
         11    1    3    3    0    0  0.14268681788E+01 -0.17536387799E+02 -0.39551317962E+00  0.17598786343E+02  0.51100000000E-03 0. -1.
        -11    1    3    3    0    0 -0.10482081357E+02  0.33292785491E+01  0.40122045425E+01  0.11707088057E+02  0.51100000000E-03 0.  1.
        -12    1    3    3    0    0  0.59133167828E+01  0.96373890959E+01  0.27783410541E+02  0.29996074498E+02  0.00000000000E+00 0.  1.
</event>
<event>
 7    1  0.6672802E-013  0.5930196E+02  0.7816164E-02  0.1266605E+00
        -11   -1    0    0    0    0  0.00000000000E+00  0.00000000000E+00  0.45593999997E+02  0.45594000000E+02  0.51100000000E-03 0.  1.
         11   -1    0    0    0    0 -0.00000000000E+00 -0.00000000000E+00 -0.45593999997E+02  0.45594000000E+02  0.51100000000E-03 0. -1.
    9900012    2    1    2    0    0  0.98785471547E+01 -0.22750290101E+02  0.20038912777E+02  0.59301962008E+02  0.50000032791E+02 0.  0.
         12    1    1    2    0    0 -0.98785471547E+01  0.22750290101E+02 -0.20038912777E+02  0.31886037992E+02  0.00000000000E+00 0. -1.
         11    1    3    3    0    0  0.36102974128E+01  0.68015387475E+01  0.94874529200E+01  0.12219121896E+02  0.51100000000E-03 0. -1.
        -11    1    3    3    0    0  0.12808588128E+02  0.14184779983E+01  0.83445260074E+01  0.15352625971E+02  0.51100000000E-03 0.  1.
         12    1    3    3    0    0 -0.65403383857E+01 -0.30970306847E+02  0.22069338495E+01  0.31730214141E+02  0.00000000000E+00 0. -1.
</event>
<event>
 7    1  0.6672802E-013  0.5930191E+02  0.7816164E-02  0.1266605E+00
        -11   -1    0    0    0    0  0.00000000000E+00  0.00000000000E+00  0.45593999997E+02  0.45594000000E+02  0.51100000000E-03 0. -1.
         11   -1    0    0    0    0 -0.00000000000E+00 -0.00000000000E+00 -0.45593999997E+02  0.45594000000E+02  0.51100000000E-03 0.  1.
    9900012    2    1    2    0    0  0.10467856235E+02 -0.22693782026E+02 -0.19802502438E+02  0.59301908054E+02  0.49999934392E+02 0.  0.
         12    1    1    2    0    0 -0.10467856235E+02  0.22693782026E+02  0.19802502438E+02  0.31886091946E+02  0.00000000000E+00 0. -1.
         11    1    3    3    0    0 -0.78842047798E+01 -0.29933981102E+01  0.77618481561E+01  0.11461562036E+02  0.51100000000E-03 0. -1.
        -11    1    3    3    0    0  0.14158100711E+02 -0.22338148395E+02 -0.79590103090E+01  0.27618662799E+02  0.51100000000E-03 0.  1.
        -12    1    3    3    0    0  0.41939603039E+01  0.26377644789E+01 -0.19605340285E+02  0.20221683218E+02  0.00000000000E+00 0.  1.
</event>
<event>
 7    1  0.6672802E-013  0.5930194E+02  0.7816164E-02  0.1266605E+00
        -11   -1    0    0    0    0  0.00000000000E+00  0.00000000000E+00  0.45593999997E+02  0.45594000000E+02  0.51100000000E-03 0.  1.
         11   -1    0    0    0    0 -0.00000000000E+00 -0.00000000000E+00 -0.45593999997E+02  0.45594000000E+02  0.51100000000E-03 0. -1.
    9900012    2    1    2    0    0 -0.24349139236E+02 -0.18125933349E+01  0.20507433837E+02  0.59301938489E+02  0.49999989898E+02 0.  0.
         12    1    1    2    0    0  0.24349139236E+02  0.18125933349E+01 -0.20507433837E+02  0.31886061511E+02  0.00000000000E+00 0. -1.
         11    1    3    3    0    0 -0.13725204542E+02  0.18262859127E+02  0.18015317091E+02  0.29094070072E+02  0.51100000000E-03 0. -1.
        -11    1    3    3    0    0  0.49343644070E+01 -0.38352725199E+00 -0.28958051647E+00  0.49577114066E+01  0.51100000000E-03 0.  1.
        -12    1    3    3    0    0 -0.15558299101E+02 -0.19691925210E+02  0.27816972631E+01  0.25250157010E+02  0.00000000000E+00 0.  1.
</event>
<event>
 7    1  0.6672802E-013  0.5930193E+02  0.7816164E-02  0.1266605E+00
        -11   -1    0    0    0    0  0.00000000000E+00  0.00000000000E+00  0.45593999997E+02  0.45594000000E+02  0.51100000000E-03 0. -1.
         11   -1    0    0    0    0 -0.00000000000E+00 -0.00000000000E+00 -0.45593999997E+02  0.45594000000E+02  0.51100000000E-03 0.  1.
    9900012    2    1    2    0    0 -0.31235392824E+02  0.49402344530E+01  0.40823568441E+01  0.59301932216E+02  0.49999978458E+02 0.  0.
         12    1    1    2    0    0  0.31235392824E+02 -0.49402344530E+01 -0.40823568441E+01  0.31886067784E+02  0.00000000000E+00 0. -1.
         11    1    3    3    0    0 -0.98739254401E+01 -0.91231098832E+01 -0.14816660854E+01  0.13524824294E+02  0.51100000000E-03 0. -1.
        -11    1    3    3    0    0 -0.32227094231E+02  0.92458711135E+01  0.47715413766E+01  0.33865016500E+02  0.51100000000E-03 0.  1.
         12    1    3    3    0    0  0.10865626847E+02  0.48174732228E+01  0.79248155286E+00  0.11912091421E+02  0.00000000000E+00 0. -1.
</event>
<event>
 7    1  0.6672802E-013  0.5930195E+02  0.7816164E-02  0.1266605E+00
        -11   -1    0    0    0    0  0.00000000000E+00  0.00000000000E+00  0.45593999997E+02  0.45594000000E+02  0.51100000000E-03 0.  1.
         11   -1    0    0    0    0 -0.00000000000E+00 -0.00000000000E+00 -0.45593999997E+02  0.45594000000E+02  0.51100000000E-03 0. -1.
    9900012    2    1    2    0    0  0.10666939359E+02 -0.22998144240E+02  0.19339648113E+02  0.59301949399E+02  0.50000009797E+02 0.  0.
         12    1    1    2    0    0 -0.10666939359E+02  0.22998144240E+02 -0.19339648113E+02  0.31886050601E+02  0.00000000000E+00 0. -1.
         11    1    3    3    0    0  0.22382313847E+02 -0.11528792934E+02  0.13225241112E+02  0.28439199047E+02  0.51100000000E-03 0.  1.
        -11    1    3    3    0    0 -0.13842889918E+02 -0.20512209927E+01  0.12922906535E+02  0.19048218352E+02  0.51100000000E-03 0. -1.
         12    1    3    3    0    0  0.21275154294E+01 -0.94181303124E+01 -0.68084995336E+01  0.11814532000E+02  0.00000000000E+00 0. -1.
</event>
<event>
 7    1  0.6672802E-013  0.5930201E+02  0.7816164E-02  0.1266605E+00
        -11   -1    0    0    0    0  0.00000000000E+00  0.00000000000E+00  0.45593999997E+02  0.45594000000E+02  0.51100000000E-03 0.  1.
         11   -1    0    0    0    0 -0.00000000000E+00 -0.00000000000E+00 -0.45593999997E+02  0.45594000000E+02  0.51100000000E-03 0. -1.
    9900012    2    1    2    0    0  0.41913613526E+01  0.11362474452E+02  0.29496486973E+02  0.59302014373E+02  0.50000128293E+02 0.  0.
         12    1    1    2    0    0 -0.41913613526E+01 -0.11362474452E+02 -0.29496486973E+02  0.31885985627E+02  0.00000000000E+00 0. -1.
         11    1    3    3    0    0 -0.83242134358E+01 -0.55702207089E+01 -0.91570880294E+01  0.13571003998E+02  0.51100000000E-03 0. -1.
        -11    1    3    3    0    0  0.29350793720E+01  0.14014942787E+02  0.20638935240E+02  0.25119692681E+02  0.51100000000E-03 0.  1.
        -12    1    3    3    0    0  0.95804954164E+01  0.29177523734E+01  0.18014639762E+02  0.20611317694E+02  0.00000000000E+00 0.  1.
</event>
<event>
 7    1  0.6672802E-013  0.5930197E+02  0.7816164E-02  0.1266605E+00
        -11   -1    0    0    0    0  0.00000000000E+00  0.00000000000E+00  0.45593999997E+02  0.45594000000E+02  0.51100000000E-03 0. -1.
         11   -1    0    0    0    0 -0.00000000000E+00 -0.00000000000E+00 -0.45593999997E+02  0.45594000000E+02  0.51100000000E-03 0.  1.
    9900012    2    1    2    0    0 -0.20951232630E+02 -0.22119119050E+02 -0.94079425854E+01  0.59301969204E+02  0.50000045915E+02 0.  0.
         12    1    1    2    0    0  0.20951232630E+02  0.22119119050E+02  0.94079425854E+01  0.31886030796E+02  0.00000000000E+00 0. -1.
         11    1    3    3    0    0 -0.12707926047E+01  0.10975510904E+02 -0.22955974808E+01  0.11284791602E+02  0.51100000000E-03 0. -1.
        -11    1    3    3    0    0  0.20202195382E+01 -0.10639359385E+02  0.78645458198E+01  0.13383883454E+02  0.51100000000E-03 0.  1.
        -12    1    3    3    0    0 -0.21700659563E+02 -0.22455270568E+02 -0.14976890924E+02  0.34633294148E+02  0.00000000000E+00 0.  1.
</event>
<event>
 7    1  0.6672802E-013  0.5930194E+02  0.7816164E-02  0.1266605E+00
        -11   -1    0    0    0    0  0.00000000000E+00  0.00000000000E+00  0.45593999997E+02  0.45594000000E+02  0.51100000000E-03 0. -1.
         11   -1    0    0    0    0 -0.00000000000E+00 -0.00000000000E+00 -0.45593999997E+02  0.45594000000E+02  0.51100000000E-03 0.  1.
    9900012    2    1    2    0    0 -0.31526239992E+02  0.34776057296E+01 -0.32745967456E+01  0.59301944529E+02  0.50000000914E+02 0.  0.
         12    1    1    2    0    0  0.31526239992E+02 -0.34776057296E+01  0.32745967456E+01  0.31886055471E+02  0.00000000000E+00 0. -1.
         11    1    3    3    0    0 -0.25113942607E+01  0.16238031236E+01 -0.32792774602E+01  0.44381864133E+01  0.51100000000E-03 0. -1.
        -11    1    3    3    0    0 -0.11274188294E+02  0.61114857297E+01 -0.22496794379E+02  0.25895237730E+02  0.51100000000E-03 0.  1.
         12    1    3    3    0    0 -0.17740657438E+02 -0.42576831237E+01  0.22501475094E+02  0.28968520385E+02  0.00000000000E+00 0. -1.
</event>
<event>
 7    1  0.6672802E-013  0.5930195E+02  0.7816164E-02  0.1266605E+00
        -11   -1    0    0    0    0  0.00000000000E+00  0.00000000000E+00  0.45593999997E+02  0.45594000000E+02  0.51100000000E-03 0. -1.
         11   -1    0    0    0    0 -0.00000000000E+00 -0.00000000000E+00 -0.45593999997E+02  0.45594000000E+02  0.51100000000E-03 0.  1.
    9900012    2    1    2    0    0 -0.44910699172E+01 -0.10629449387E+02 -0.29724829457E+02  0.59301946786E+02  0.50000005031E+02 0.  0.
         12    1    1    2    0    0  0.44910699172E+01  0.10629449387E+02  0.29724829457E+02  0.31886053214E+02  0.00000000000E+00 0. -1.
         11    1    3    3    0    0 -0.80535944794E+01 -0.74215638131E+01 -0.83061153778E+01  0.13745237226E+02  0.51100000000E-03 0. -1.
        -11    1    3    3    0    0 -0.17055409988E+02 -0.78843062305E+01 -0.74255412348E+01  0.20203661982E+02  0.51100000000E-03 0.  1.
        -12    1    3    3    0    0  0.20617934550E+02  0.46764206569E+01 -0.13993172845E+02  0.25353047579E+02  0.00000000000E+00 0.  1.
</event>
<event>
 7    1  0.6672802E-013  0.5930194E+02  0.7816164E-02  0.1266605E+00
        -11   -1    0    0    0    0  0.00000000000E+00  0.00000000000E+00  0.45593999997E+02  0.45594000000E+02  0.51100000000E-03 0.  1.
         11   -1    0    0    0    0 -0.00000000000E+00 -0.00000000000E+00 -0.45593999997E+02  0.45594000000E+02  0.51100000000E-03 0. -1.
    9900012    2    1    2    0    0 -0.28081633316E+02  0.72106575846E+01  0.13272110205E+02  0.59301943145E+02  0.49999998390E+02 0.  0.
         12    1    1    2    0    0  0.28081633316E+02 -0.72106575846E+01 -0.13272110205E+02  0.31886056855E+02  0.00000000000E+00 0. -1.
         11    1    3    3    0    0  0.91824948735E-01 -0.82699016881E+01  0.37749235406E+01  0.90911909973E+01  0.51100000000E-03 0. -1.
        -11    1    3    3    0    0  0.21287034786E+01 -0.88266541333E+01  0.66604456289E+01  0.11260672179E+02  0.51100000000E-03 0.  1.
        -12    1    3    3    0    0 -0.30302161743E+02  0.24307213406E+02  0.28367410352E+01  0.38950079969E+02  0.00000000000E+00 0.  1.
</event>
<event>
 7    1  0.6672802E-013  0.5930192E+02  0.7816164E-02  0.1266605E+00
        -11   -1    0    0    0    0  0.00000000000E+00  0.00000000000E+00  0.45593999997E+02  0.45594000000E+02  0.51100000000E-03 0.  1.
         11   -1    0    0    0    0 -0.00000000000E+00 -0.00000000000E+00 -0.45593999997E+02  0.45594000000E+02  0.51100000000E-03 0. -1.
    9900012    2    1    2    0    0  0.66817358260E+01  0.27851942383E+01  0.31053485348E+02  0.59301923840E+02  0.49999963183E+02 0.  0.
         12    1    1    2    0    0 -0.66817358260E+01 -0.27851942383E+01 -0.31053485348E+02  0.31886076160E+02  0.00000000000E+00 0. -1.
         11    1    3    3    0    0 -0.51752627850E+01  0.49347894582E+01 -0.32035583680E+01  0.78357053523E+01  0.51100000000E-03 0. -1.
        -11    1    3    3    0    0 -0.12042396386E+02 -0.68553823120E+01  0.99879116836E+01  0.17081392140E+02  0.51100000000E-03 0.  1.
        -12    1    3    3    0    0  0.23899394997E+02  0.47057870921E+01  0.24269132033E+02  0.34384826348E+02  0.00000000000E+00 0.  1.
</event>
<event>
 7    1  0.6672802E-013  0.5930194E+02  0.7816164E-02  0.1266605E+00
        -11   -1    0    0    0    0  0.00000000000E+00  0.00000000000E+00  0.45593999997E+02  0.45594000000E+02  0.51100000000E-03 0. -1.
         11   -1    0    0    0    0 -0.00000000000E+00 -0.00000000000E+00 -0.45593999997E+02  0.45594000000E+02  0.51100000000E-03 0.  1.
    9900012    2    1    2    0    0  0.76015437960E+01  0.20072600425E+02 -0.23580252233E+02  0.59301936410E+02  0.49999986107E+02 0.  0.
         12    1    1    2    0    0 -0.76015437960E+01 -0.20072600425E+02  0.23580252233E+02  0.31886063590E+02  0.00000000000E+00 0. -1.
         11    1    3    3    0    0  0.37862257177E+01  0.77371924332E+01 -0.17128195714E+02  0.19172238800E+02  0.51100000000E-03 0.  1.
        -11    1    3    3    0    0  0.16629840921E+02  0.72811950114E+01  0.82865972992E+01  0.19955828845E+02  0.51100000000E-03 0. -1.
         12    1    3    3    0    0 -0.12814522843E+02  0.50542129806E+01 -0.14738653819E+02  0.20173868764E+02  0.00000000000E+00 0. -1.
</event>
<event>
 7    1  0.6672802E-013  0.5930195E+02  0.7816164E-02  0.1266605E+00
        -11   -1    0    0    0    0  0.00000000000E+00  0.00000000000E+00  0.45593999997E+02  0.45594000000E+02  0.51100000000E-03 0.  1.
         11   -1    0    0    0    0 -0.00000000000E+00 -0.00000000000E+00 -0.45593999997E+02  0.45594000000E+02  0.51100000000E-03 0. -1.
    9900012    2    1    2    0    0  0.28907801771E+02 -0.97520944053E+00  0.13420444501E+02  0.59301947135E+02  0.50000005668E+02 0.  0.
         12    1    1    2    0    0 -0.28907801771E+02  0.97520944053E+00 -0.13420444501E+02  0.31886052865E+02  0.00000000000E+00 0. -1.
         11    1    3    3    0    0 -0.73966898625E+00 -0.10077791690E+02  0.37208773250E+01  0.10768190372E+02  0.51100000000E-03 0. -1.
        -11    1    3    3    0    0  0.20674100711E+02 -0.12109239897E+02  0.12193594332E+01  0.23990393260E+02  0.51100000000E-03 0.  1.
         12    1    3    3    0    0  0.89733700465E+01  0.21211822146E+02  0.84802077432E+01  0.24543363504E+02  0.00000000000E+00 0. -1.
</event>
<event>
 7    1  0.6672802E-013  0.5930192E+02  0.7816164E-02  0.1266605E+00
        -11   -1    0    0    0    0  0.00000000000E+00  0.00000000000E+00  0.45593999997E+02  0.45594000000E+02  0.51100000000E-03 0. -1.
         11   -1    0    0    0    0 -0.00000000000E+00 -0.00000000000E+00 -0.45593999997E+02  0.45594000000E+02  0.51100000000E-03 0.  1.
    9900012    2    1    2    0    0  0.14192889625E+02 -0.57114798472E+01 -0.27976110246E+02  0.59301923690E+02  0.49999962909E+02 0.  0.
         12    1    1    2    0    0 -0.14192889625E+02  0.57114798472E+01  0.27976110246E+02  0.31886076310E+02  0.00000000000E+00 0. -1.
         11    1    3    3    0    0 -0.39343231897E+01 -0.75269827059E-01  0.55740356048E+00  0.39743255400E+01  0.51100000000E-03 0. -1.
        -11    1    3    3    0    0  0.66905643831E+01 -0.20114990410E+02 -0.30094285998E+02  0.36810902474E+02  0.51100000000E-03 0.  1.
         12    1    3    3    0    0  0.11436648432E+02  0.14478780390E+02  0.15607721915E+01  0.18516695676E+02  0.00000000000E+00 0. -1.
</event>
<event>
 7    1  0.6672802E-013  0.5930194E+02  0.7816164E-02  0.1266605E+00
        -11   -1    0    0    0    0  0.00000000000E+00  0.00000000000E+00  0.45593999997E+02  0.45594000000E+02  0.51100000000E-03 0.  1.
         11   -1    0    0    0    0 -0.00000000000E+00 -0.00000000000E+00 -0.45593999997E+02  0.45594000000E+02  0.51100000000E-03 0. -1.
    9900012    2    1    2    0    0  0.21634390546E+02 -0.89280919926E+01  0.21655556437E+02  0.59301940263E+02  0.49999993135E+02 0.  0.
         12    1    1    2    0    0 -0.21634390546E+02  0.89280919926E+01 -0.21655556437E+02  0.31886059737E+02  0.00000000000E+00 0. -1.
         11    1    3    3    0    0  0.30928737892E+01  0.88657307372E+01  0.12076876998E+02  0.15297647141E+02  0.51100000000E-03 0. -1.
        -11    1    3    3    0    0  0.21641409982E+00 -0.23680736044E+02  0.46170966197E+01  0.24127612317E+02  0.51100000000E-03 0.  1.
         12    1    3    3    0    0  0.18325102657E+02  0.58869133142E+01  0.49615828192E+01  0.19876680806E+02  0.00000000000E+00 0. -1.
</event>
<event>
 7    1  0.6672802E-013  0.5930194E+02  0.7816164E-02  0.1266605E+00
        -11   -1    0    0    0    0  0.00000000000E+00  0.00000000000E+00  0.45593999997E+02  0.45594000000E+02  0.51100000000E-03 0.  1.
         11   -1    0    0    0    0 -0.00000000000E+00 -0.00000000000E+00 -0.45593999997E+02  0.45594000000E+02  0.51100000000E-03 0. -1.
    9900012    2    1    2    0    0 -0.30972406610E+02  0.56648444396E+01  0.50338977040E+01  0.59301944116E+02  0.50000000160E+02 0.  0.
         12    1    1    2    0    0  0.30972406610E+02 -0.56648444396E+01 -0.50338977040E+01  0.31886055884E+02  0.00000000000E+00 0. -1.
         11    1    3    3    0    0 -0.10277794604E+02  0.49291617638E+01  0.50205084889E+01  0.12455328313E+02  0.51100000000E-03 0. -1.
        -11    1    3    3    0    0 -0.42047114573E+01  0.93284385187E+01  0.18173093344E+02  0.20855711103E+02  0.51100000000E-03 0.  1.
         12    1    3    3    0    0 -0.16489900549E+02 -0.85927558430E+01 -0.18159704129E+02  0.25990904700E+02  0.00000000000E+00 0. -1.
</event>
<event>
 7    1  0.6672802E-013  0.5930194E+02  0.7816164E-02  0.1266605E+00
        -11   -1    0    0    0    0  0.00000000000E+00  0.00000000000E+00  0.45593999997E+02  0.45594000000E+02  0.51100000000E-03 0.  1.
         11   -1    0    0    0    0 -0.00000000000E+00 -0.00000000000E+00 -0.45593999997E+02  0.45594000000E+02  0.51100000000E-03 0. -1.
    9900012    2    1    2    0    0  0.35274673192E+01  0.23508212480E+02  0.21251857730E+02  0.59301944480E+02  0.50000000824E+02 0.  0.
         12    1    1    2    0    0 -0.35274673192E+01 -0.23508212480E+02 -0.21251857730E+02  0.31886055520E+02  0.00000000000E+00 0. -1.
         11    1    3    3    0    0 -0.11756165769E+02  0.31337506231E+01 -0.43233857225E+01  0.12911990200E+02  0.51100000000E-03 0.  1.
        -11    1    3    3    0    0  0.18264404359E+02  0.18863156024E+00  0.11124334213E+02  0.21386324144E+02  0.51100000000E-03 0. -1.
        -12    1    3    3    0    0 -0.29807712710E+01  0.20185830296E+02  0.14450909240E+02  0.25003630136E+02  0.00000000000E+00 0.  1.
</event>
<event>
 7    1  0.6672802E-013  0.5930189E+02  0.7816164E-02  0.1266605E+00
        -11   -1    0    0    0    0  0.00000000000E+00  0.00000000000E+00  0.45593999997E+02  0.45594000000E+02  0.51100000000E-03 0. -1.
         11   -1    0    0    0    0 -0.00000000000E+00 -0.00000000000E+00 -0.45593999997E+02  0.45594000000E+02  0.51100000000E-03 0.  1.
    9900012    2    1    2    0    0  0.11535692865E+02  0.18310864656E+02 -0.23417170344E+02  0.59301892661E+02  0.49999906318E+02 0.  0.
         12    1    1    2    0    0 -0.11535692865E+02 -0.18310864656E+02  0.23417170344E+02  0.31886107339E+02  0.00000000000E+00 0. -1.
         11    1    3    3    0    0  0.26998553359E+02 -0.18824444280E+00 -0.20613270595E+02  0.33968577308E+02  0.51100000000E-03 0.  1.
        -11    1    3    3    0    0 -0.19893299790E+01  0.28757845812E+01  0.21649289061E+01  0.41127227176E+01  0.51100000000E-03 0. -1.
        -12    1    3    3    0    0 -0.13473530516E+02  0.15623324518E+02 -0.49688286551E+01  0.21220592634E+02  0.00000000000E+00 0.  1.
</event>
<event>
 7    1  0.6672802E-013  0.5930202E+02  0.7816164E-02  0.1266605E+00
        -11   -1    0    0    0    0  0.00000000000E+00  0.00000000000E+00  0.45593999997E+02  0.45594000000E+02  0.51100000000E-03 0. -1.
         11   -1    0    0    0    0 -0.00000000000E+00 -0.00000000000E+00 -0.45593999997E+02  0.45594000000E+02  0.51100000000E-03 0.  1.
    9900012    2    1    2    0    0  0.18171421935E+01  0.26864444235E+02 -0.17079681191E+02  0.59302017510E+02  0.50000134014E+02 0.  0.
         12    1    1    2    0    0 -0.18171421935E+01 -0.26864444235E+02  0.17079681191E+02  0.31885982490E+02  0.00000000000E+00 0. -1.
         11    1    3    3    0    0 -0.99375392327E+01 -0.40695736529E+00  0.28089278305E+01  0.10334910552E+02  0.51100000000E-03 0. -1.
        -11    1    3    3    0    0  0.85004553038E+01 -0.65443606147E+01 -0.38317892406E+01  0.11391619958E+02  0.51100000000E-03 0.  1.
        -12    1    3    3    0    0  0.32542261224E+01  0.33815762215E+02 -0.16056819781E+02  0.37575487000E+02  0.00000000000E+00 0.  1.
</event>
<event>
 7    1  0.6672802E-013  0.5930205E+02  0.7816164E-02  0.1266604E+00
        -11   -1    0    0    0    0  0.00000000000E+00  0.00000000000E+00  0.45593999997E+02  0.45594000000E+02  0.51100000000E-03 0.  1.
         11   -1    0    0    0    0 -0.00000000000E+00 -0.00000000000E+00 -0.45593999997E+02  0.45594000000E+02  0.51100000000E-03 0. -1.
    9900012    2    1    2    0    0 -0.15985205131E+01  0.20348049569E+02  0.24497258231E+02  0.59302046197E+02  0.50000186331E+02 0.  0.
         12    1    1    2    0    0  0.15985205131E+01 -0.20348049569E+02 -0.24497258231E+02  0.31885953803E+02  0.00000000000E+00 0. -1.
         11    1    3    3    0    0 -0.67509583291E+01  0.62904706759E+01 -0.61193614996E+01  0.11072129204E+02  0.51100000000E-03 0. -1.
        -11    1    3    3    0    0 -0.39440900377E+01 -0.59592951656E+01  0.24336071626E+02  0.25363624101E+02  0.51100000000E-03 0.  1.
         12    1    3    3    0    0  0.90965278537E+01  0.20016874059E+02  0.62805481046E+01  0.22866292891E+02  0.00000000000E+00 0. -1.
</event>
<event>
 7    1  0.6672802E-013  0.5930196E+02  0.7816164E-02  0.1266605E+00
        -11   -1    0    0    0    0  0.00000000000E+00  0.00000000000E+00  0.45593999997E+02  0.45594000000E+02  0.51100000000E-03 0. -1.
         11   -1    0    0    0    0 -0.00000000000E+00 -0.00000000000E+00 -0.45593999997E+02  0.45594000000E+02  0.51100000000E-03 0.  1.
    9900012    2    1    2    0    0 -0.16797270136E+02 -0.16067914533E+02 -0.21826438795E+02  0.59301959293E+02  0.50000027841E+02 0.  0.
         12    1    1    2    0    0  0.16797270136E+02  0.16067914533E+02  0.21826438795E+02  0.31886040707E+02  0.00000000000E+00 0. -1.
         11    1    3    3    0    0 -0.37152758717E+01 -0.13298786570E+02  0.66946251850E+01  0.15345325206E+02  0.51100000000E-03 0. -1.
        -11    1    3    3    0    0  0.64939571332E+01 -0.35273675469E+01  0.20300668653E+01  0.76638745291E+01  0.51100000000E-03 0.  1.
        -12    1    3    3    0    0 -0.19575951398E+02  0.75823958468E+00 -0.30551130846E+02  0.36292759558E+02  0.00000000000E+00 0.  1.
</event>
<event>
 7    1  0.6672802E-013  0.5930195E+02  0.7816164E-02  0.1266605E+00
        -11   -1    0    0    0    0  0.00000000000E+00  0.00000000000E+00  0.45593999997E+02  0.45594000000E+02  0.51100000000E-03 0.  1.
         11   -1    0    0    0    0 -0.00000000000E+00 -0.00000000000E+00 -0.45593999997E+02  0.45594000000E+02  0.51100000000E-03 0. -1.
    9900012    2    1    2    0    0 -0.11786989138E+02 -0.28487042625E+02  0.81409569553E+01  0.59301954610E+02  0.50000019300E+02 0.  0.
         12    1    1    2    0    0  0.11786989138E+02  0.28487042625E+02 -0.81409569553E+01  0.31886045390E+02  0.00000000000E+00 0. -1.
         11    1    3    3    0    0  0.11296598343E+02 -0.11013464111E+02  0.54339752818E+01  0.16686449997E+02  0.51100000000E-03 0. -1.
        -11    1    3    3    0    0 -0.70442964762E+01 -0.70041644296E+01 -0.14022329008E+02  0.17184473901E+02  0.51100000000E-03 0.  1.
        -12    1    3    3    0    0 -0.16039291005E+02 -0.10469414084E+02  0.16729310681E+02  0.25431030712E+02  0.00000000000E+00 0.  1.
</event>
<event>
 7    1  0.6672802E-013  0.5930192E+02  0.7816164E-02  0.1266605E+00
        -11   -1    0    0    0    0  0.00000000000E+00  0.00000000000E+00  0.45593999997E+02  0.45594000000E+02  0.51100000000E-03 0.  1.
         11   -1    0    0    0    0 -0.00000000000E+00 -0.00000000000E+00 -0.45593999997E+02  0.45594000000E+02  0.51100000000E-03 0. -1.
    9900012    2    1    2    0    0 -0.21648849393E+02  0.44689562248E+01  0.22979940384E+02  0.59301922947E+02  0.49999961555E+02 0.  0.
         12    1    1    2    0    0  0.21648849393E+02 -0.44689562248E+01 -0.22979940384E+02  0.31886077053E+02  0.00000000000E+00 0. -1.
         11    1    3    3    0    0  0.56335095140E+01 -0.67340004712E+01 -0.35107384901E+01  0.94556055754E+01  0.51100000000E-03 0. -1.
        -11    1    3    3    0    0  0.55534911241E+01 -0.15160570870E+01  0.86001130257E+01  0.10348992080E+02  0.51100000000E-03 0.  1.
        -12    1    3    3    0    0 -0.32835850031E+02  0.12719013783E+02  0.17890565848E+02  0.39497325292E+02  0.00000000000E+00 0.  1.
</event>
<event>
 7    1  0.6672802E-013  0.5930195E+02  0.7816164E-02  0.1266605E+00
        -11   -1    0    0    0    0  0.00000000000E+00  0.00000000000E+00  0.45593999997E+02  0.45594000000E+02  0.51100000000E-03 0. -1.
         11   -1    0    0    0    0 -0.00000000000E+00 -0.00000000000E+00 -0.45593999997E+02  0.45594000000E+02  0.51100000000E-03 0.  1.
    9900012    2    1    2    0    0  0.34390284883E+01 -0.29982841187E+02 -0.10291871190E+02  0.59301948266E+02  0.50000007730E+02 0.  0.
         12    1    1    2    0    0 -0.34390284883E+01  0.29982841187E+02  0.10291871190E+02  0.31886051734E+02  0.00000000000E+00 0. -1.
         11    1    3    3    0    0  0.10559677868E+02 -0.24711153486E+02 -0.11142796195E+01  0.26895901595E+02  0.51100000000E-03 0. -1.
        -11    1    3    3    0    0 -0.20006072114E+01 -0.10314461848E+02  0.83770018573E+01  0.13437436988E+02  0.51100000000E-03 0.  1.
        -12    1    3    3    0    0 -0.51200421684E+01  0.50427741470E+01 -0.17554593428E+02  0.18968609683E+02  0.00000000000E+00 0.  1.
</event>
<event>
 7    1  0.6672802E-013  0.5930206E+02  0.7816164E-02  0.1266604E+00
        -11   -1    0    0    0    0  0.00000000000E+00  0.00000000000E+00  0.45593999997E+02  0.45594000000E+02  0.51100000000E-03 0.  1.
         11   -1    0    0    0    0 -0.00000000000E+00 -0.00000000000E+00 -0.45593999997E+02  0.45594000000E+02  0.51100000000E-03 0. -1.
    9900012    2    1    2    0    0 -0.29659526359E+02  0.11079974931E+02  0.37762237842E+01  0.59302059299E+02  0.50000210227E+02 0.  0.
         12    1    1    2    0    0  0.29659526359E+02 -0.11079974931E+02 -0.37762237842E+01  0.31885940701E+02  0.00000000000E+00 0. -1.
         11    1    3    3    0    0 -0.21731696776E+02 -0.78425541437E+01 -0.69696199909E+01  0.24131885615E+02  0.51100000000E-03 0. -1.
        -11    1    3    3    0    0 -0.10619125681E+02 -0.46096766124E+00 -0.32454792279E+01  0.11113570853E+02  0.51100000000E-03 0.  1.
        -12    1    3    3    0    0  0.26912960984E+01  0.19383496736E+02  0.13991323003E+02  0.24056602831E+02  0.00000000000E+00 0.  1.
</event>
<event>
 7    1  0.6672802E-013  0.5930194E+02  0.7816164E-02  0.1266605E+00
        -11   -1    0    0    0    0  0.00000000000E+00  0.00000000000E+00  0.45593999997E+02  0.45594000000E+02  0.51100000000E-03 0. -1.
         11   -1    0    0    0    0 -0.00000000000E+00 -0.00000000000E+00 -0.45593999997E+02  0.45594000000E+02  0.51100000000E-03 0.  1.
    9900012    2    1    2    0    0 -0.29762046760E+02  0.72526667846E+01 -0.88509898734E+01  0.59301943101E+02  0.49999998310E+02 0.  0.
         12    1    1    2    0    0  0.29762046760E+02 -0.72526667846E+01  0.88509898734E+01  0.31886056899E+02  0.00000000000E+00 0. -1.
         11    1    3    3    0    0  0.21754913125E+01  0.12245312170E+02  0.26335798515E+01  0.12712835077E+02  0.51100000000E-03 0. -1.
        -11    1    3    3    0    0 -0.26731183074E+02  0.36964161890E+00  0.61535569364E+01  0.27432809676E+02  0.51100000000E-03 0.  1.
         12    1    3    3    0    0 -0.52063549981E+01 -0.53622870048E+01 -0.17638126661E+02  0.19156298348E+02  0.00000000000E+00 0. -1.
</event>
<event>
 7    1  0.6672802E-013  0.5930193E+02  0.7816164E-02  0.1266605E+00
        -11   -1    0    0    0    0  0.00000000000E+00  0.00000000000E+00  0.45593999997E+02  0.45594000000E+02  0.51100000000E-03 0. -1.
         11   -1    0    0    0    0 -0.00000000000E+00 -0.00000000000E+00 -0.45593999997E+02  0.45594000000E+02  0.51100000000E-03 0.  1.
    9900012    2    1    2    0    0 -0.13669722635E+02  0.28712925859E+02 -0.23298769694E+01  0.59301925375E+02  0.49999965982E+02 0.  0.
         12    1    1    2    0    0  0.13669722635E+02 -0.28712925859E+02  0.23298769694E+01  0.31886074625E+02  0.00000000000E+00 0. -1.
         11    1    3    3    0    0  0.94762699572E+01  0.30965940212E+01 -0.12091582785E+02  0.15671469661E+02  0.51100000000E-03 0. -1.
        -11    1    3    3    0    0 -0.13941553460E+02  0.29745249516E+01 -0.49652111758E+01  0.15095298402E+02  0.51100000000E-03 0.  1.
        -12    1    3    3    0    0 -0.92044391325E+01  0.22641806886E+02  0.14726916991E+02  0.28535157313E+02  0.00000000000E+00 0.  1.
</event>
<event>
 7    1  0.6672802E-013  0.5930190E+02  0.7816164E-02  0.1266605E+00
        -11   -1    0    0    0    0  0.00000000000E+00  0.00000000000E+00  0.45593999997E+02  0.45594000000E+02  0.51100000000E-03 0.  1.
         11   -1    0    0    0    0 -0.00000000000E+00 -0.00000000000E+00 -0.45593999997E+02  0.45594000000E+02  0.51100000000E-03 0. -1.
    9900012    2    1    2    0    0 -0.27192801408E+01 -0.31730633118E+02 -0.15798795953E+01  0.59301896725E+02  0.49999913731E+02 0.  0.
         12    1    1    2    0    0  0.27192801408E+01  0.31730633118E+02  0.15798795953E+01  0.31886103275E+02  0.00000000000E+00 0. -1.
         11    1    3    3    0    0 -0.57890024097E+01 -0.19221471698E+02 -0.50876955349E+01  0.20708987645E+02  0.51100000000E-03 0. -1.
        -11    1    3    3    0    0  0.84566359283E+01 -0.23117179834E+02  0.79892182185E+01  0.25879457156E+02  0.51100000000E-03 0.  1.
         12    1    3    3    0    0 -0.53869136593E+01  0.10608018414E+02 -0.44814022789E+01  0.12713451925E+02  0.00000000000E+00 0. -1.
</event>
<event>
 7    1  0.6672802E-013  0.5930187E+02  0.7816164E-02  0.1266605E+00
        -11   -1    0    0    0    0  0.00000000000E+00  0.00000000000E+00  0.45593999997E+02  0.45594000000E+02  0.51100000000E-03 0.  1.
         11   -1    0    0    0    0 -0.00000000000E+00 -0.00000000000E+00 -0.45593999997E+02  0.45594000000E+02  0.51100000000E-03 0. -1.
    9900012    2    1    2    0    0  0.30299879868E+02 -0.90352713964E+01 -0.41238596981E+01  0.59301873424E+02  0.49999871236E+02 0.  0.
         12    1    1    2    0    0 -0.30299879868E+02  0.90352713964E+01  0.41238596981E+01  0.31886126576E+02  0.00000000000E+00 0. -1.
         11    1    3    3    0    0  0.25877760186E+02 -0.49785566676E+01 -0.17383197186E+02  0.31569289561E+02  0.51100000000E-03 0. -1.
        -11    1    3    3    0    0  0.54524711938E+01 -0.13318506358E+02  0.11079112434E+02  0.18162014930E+02  0.51100000000E-03 0.  1.
        -12    1    3    3    0    0 -0.10303515120E+01  0.92617916293E+01  0.21802250538E+01  0.95705689334E+01  0.00000000000E+00 0.  1.
</event>
<event>
 7    1  0.6672802E-013  0.5930198E+02  0.7816164E-02  0.1266605E+00
        -11   -1    0    0    0    0  0.00000000000E+00  0.00000000000E+00  0.45593999997E+02  0.45594000000E+02  0.51100000000E-03 0.  1.
         11   -1    0    0    0    0 -0.00000000000E+00 -0.00000000000E+00 -0.45593999997E+02  0.45594000000E+02  0.51100000000E-03 0. -1.
    9900012    2    1    2    0    0 -0.23453645271E+02 -0.82116911624E+01  0.19980312563E+02  0.59301980519E+02  0.50000066551E+02 0.  0.
         12    1    1    2    0    0  0.23453645271E+02  0.82116911624E+01 -0.19980312563E+02  0.31886019481E+02  0.00000000000E+00 0. -1.
         11    1    3    3    0    0 -0.85043190194E+01  0.28890800031E+01  0.28706564174E+01  0.94292573290E+01  0.51100000000E-03 0. -1.
        -11    1    3    3    0    0 -0.10298405040E+02  0.15552721741E+02  0.12428427465E+02  0.22414506674E+02  0.51100000000E-03 0.  1.
         12    1    3    3    0    0 -0.46509212117E+01 -0.26653492907E+02  0.46812286810E+01  0.27458216516E+02  0.00000000000E+00 0. -1.
</event>
<event>
 7    1  0.6672802E-013  0.5930185E+02  0.7816164E-02  0.1266605E+00
        -11   -1    0    0    0    0  0.00000000000E+00  0.00000000000E+00  0.45593999997E+02  0.45594000000E+02  0.51100000000E-03 0. -1.
         11   -1    0    0    0    0 -0.00000000000E+00 -0.00000000000E+00 -0.45593999997E+02  0.45594000000E+02  0.51100000000E-03 0.  1.
    9900012    2    1    2    0    0 -0.12264548395E+02 -0.14821797259E+02 -0.25428759292E+02  0.59301849081E+02  0.49999826839E+02 0.  0.
         12    1    1    2    0    0  0.12264548395E+02  0.14821797259E+02  0.25428759292E+02  0.31886150919E+02  0.00000000000E+00 0. -1.
         11    1    3    3    0    0 -0.49554633952E+01 -0.11404665389E+02 -0.20802772626E+01  0.12607559790E+02  0.51100000000E-03 0. -1.
        -11    1    3    3    0    0 -0.82456007765E+01 -0.17232773493E+02 -0.26329208237E+02  0.32529765155E+02  0.51100000000E-03 0.  1.
         12    1    3    3    0    0  0.93651577635E+00  0.13815641623E+02  0.29807262079E+01  0.14164524135E+02  0.00000000000E+00 0. -1.
</event>
<event>
 7    1  0.6672802E-013  0.5930195E+02  0.7816164E-02  0.1266605E+00
        -11   -1    0    0    0    0  0.00000000000E+00  0.00000000000E+00  0.45593999997E+02  0.45594000000E+02  0.51100000000E-03 0.  1.
         11   -1    0    0    0    0 -0.00000000000E+00 -0.00000000000E+00 -0.45593999997E+02  0.45594000000E+02  0.51100000000E-03 0. -1.
    9900012    2    1    2    0    0  0.91264676688E+01  0.30547228504E+02  0.54287872603E+00  0.59301948211E+02  0.50000007630E+02 0.  0.
         12    1    1    2    0    0 -0.91264676688E+01 -0.30547228504E+02 -0.54287872603E+00  0.31886051789E+02  0.00000000000E+00 0. -1.
         11    1    3    3    0    0 -0.44741449145E+01 -0.17122398217E-01  0.75737101813E+01  0.87965534196E+01  0.51100000000E-03 0. -1.
        -11    1    3    3    0    0  0.19147936374E+02  0.22456077504E+02  0.97330154627E+01  0.31074917128E+02  0.51100000000E-03 0.  1.
         12    1    3    3    0    0 -0.55473237911E+01  0.81082733980E+01 -0.16763846918E+02  0.19430477663E+02  0.00000000000E+00 0. -1.
</event>
<event>
 7    1  0.6672802E-013  0.5930175E+02  0.7816164E-02  0.1266605E+00
        -11   -1    0    0    0    0  0.00000000000E+00  0.00000000000E+00  0.45593999997E+02  0.45594000000E+02  0.51100000000E-03 0.  1.
         11   -1    0    0    0    0 -0.00000000000E+00 -0.00000000000E+00 -0.45593999997E+02  0.45594000000E+02  0.51100000000E-03 0. -1.
    9900012    2    1    2    0    0 -0.41459556136E+01  0.30074506803E+02  0.97502742839E+01  0.59301752871E+02  0.49999651375E+02 0.  0.
         12    1    1    2    0    0  0.41459556136E+01 -0.30074506803E+02 -0.97502742839E+01  0.31886247129E+02  0.00000000000E+00 0. -1.
         11    1    3    3    0    0 -0.14211101120E+02  0.10692745617E+02  0.43005117289E+01  0.18297120136E+02  0.51100000000E-03 0.  1.
        -11    1    3    3    0    0  0.16933850450E+02 -0.14305863363E+01  0.82838323404E+01  0.18905653833E+02  0.51100000000E-03 0. -1.
         12    1    3    3    0    0 -0.68687049441E+01  0.20812347522E+02 -0.28340697854E+01  0.22098978903E+02  0.00000000000E+00 0. -1.
</event>
<event>
 7    1  0.6672802E-013  0.5930197E+02  0.7816164E-02  0.1266605E+00
        -11   -1    0    0    0    0  0.00000000000E+00  0.00000000000E+00  0.45593999997E+02  0.45594000000E+02  0.51100000000E-03 0.  1.
         11   -1    0    0    0    0 -0.00000000000E+00 -0.00000000000E+00 -0.45593999997E+02  0.45594000000E+02  0.51100000000E-03 0. -1.
    9900012    2    1    2    0    0 -0.16190210360E+02 -0.16240275574E+02  0.22155125292E+02  0.59301967965E+02  0.50000043656E+02 0.  0.
         12    1    1    2    0    0  0.16190210360E+02  0.16240275574E+02 -0.22155125292E+02  0.31886032035E+02  0.00000000000E+00 0. -1.
         11    1    3    3    0    0  0.13383851765E+02 -0.62113690852E+01  0.10689981430E+02  0.18220436252E+02  0.51100000000E-03 0. -1.
        -11    1    3    3    0    0 -0.72778275373E+01 -0.11097282677E+02  0.13167485312E+02  0.18694895725E+02  0.51100000000E-03 0.  1.
         12    1    3    3    0    0 -0.22296234587E+02  0.10683761878E+01 -0.17023414500E+01  0.22386635988E+02  0.00000000000E+00 0. -1.
</event>
<event>
 7    1  0.6672802E-013  0.5930194E+02  0.7816164E-02  0.1266605E+00
        -11   -1    0    0    0    0  0.00000000000E+00  0.00000000000E+00  0.45593999997E+02  0.45594000000E+02  0.51100000000E-03 0.  1.
         11   -1    0    0    0    0 -0.00000000000E+00 -0.00000000000E+00 -0.45593999997E+02  0.45594000000E+02  0.51100000000E-03 0. -1.
    9900012    2    1    2    0    0 -0.15747702897E+02  0.19033391619E+02  0.20160873008E+02  0.59301938099E+02  0.49999989188E+02 0.  0.
         12    1    1    2    0    0  0.15747702897E+02 -0.19033391619E+02 -0.20160873008E+02  0.31886061901E+02  0.00000000000E+00 0. -1.
         11    1    3    3    0    0 -0.17953368108E+02  0.18169565352E+02  0.13538860821E+02  0.28909467033E+02  0.51100000000E-03 0. -1.
        -11    1    3    3    0    0 -0.91026225515E+01  0.94824479339E+01  0.90633388504E+01  0.15966172601E+02  0.51100000000E-03 0.  1.
        -12    1    3    3    0    0  0.11308287763E+02 -0.86186216664E+01 -0.24413266634E+01  0.14426298466E+02  0.00000000000E+00 0.  1.
</event>
<event>
 7    1  0.6672802E-013  0.5930195E+02  0.7816164E-02  0.1266605E+00
        -11   -1    0    0    0    0  0.00000000000E+00  0.00000000000E+00  0.45593999997E+02  0.45594000000E+02  0.51100000000E-03 0. -1.
         11   -1    0    0    0    0 -0.00000000000E+00 -0.00000000000E+00 -0.45593999997E+02  0.45594000000E+02  0.51100000000E-03 0.  1.
    9900012    2    1    2    0    0 -0.25457259047E+02  0.33996038853E+01 -0.18896850966E+02  0.59301947858E+02  0.50000006986E+02 0.  0.
         12    1    1    2    0    0  0.25457259047E+02 -0.33996038853E+01  0.18896850966E+02  0.31886052142E+02  0.00000000000E+00 0. -1.
         11    1    3    3    0    0 -0.91766816493E+01  0.17454946092E+02  0.69253310074E+01  0.20900881297E+02  0.51100000000E-03 0. -1.
        -11    1    3    3    0    0 -0.17110641299E+02 -0.40801648293E+01 -0.11834715710E+02  0.21200997309E+02  0.51100000000E-03 0.  1.
        -12    1    3    3    0    0  0.83006390163E+00 -0.99751773774E+01 -0.13987466264E+02  0.17200069252E+02  0.00000000000E+00 0.  1.
</event>
<event>
 7    1  0.6672802E-013  0.5930195E+02  0.7816164E-02  0.1266605E+00
        -11   -1    0    0    0    0  0.00000000000E+00  0.00000000000E+00  0.45593999997E+02  0.45594000000E+02  0.51100000000E-03 0.  1.
         11   -1    0    0    0    0 -0.00000000000E+00 -0.00000000000E+00 -0.45593999997E+02  0.45594000000E+02  0.51100000000E-03 0. -1.
    9900012    2    1    2    0    0  0.24230495877E+02 -0.17442815870E+02  0.11196049921E+02  0.59301948352E+02  0.50000007886E+02 0.  0.
         12    1    1    2    0    0 -0.24230495877E+02  0.17442815870E+02 -0.11196049921E+02  0.31886051648E+02  0.00000000000E+00 0. -1.
         11    1    3    3    0    0 -0.23978030989E+00 -0.11659030995E+02  0.15173014410E+02  0.19136636719E+02  0.51100000000E-03 0. -1.
        -11    1    3    3    0    0  0.15702279956E+02 -0.18470863256E+02 -0.18097049895E-01  0.24243240563E+02  0.51100000000E-03 0.  1.
         12    1    3    3    0    0  0.87679962301E+01  0.12687078381E+02 -0.39588674397E+01  0.15922071070E+02  0.00000000000E+00 0. -1.
</event>
<event>
 7    1  0.6672802E-013  0.5930194E+02  0.7816164E-02  0.1266605E+00
        -11   -1    0    0    0    0  0.00000000000E+00  0.00000000000E+00  0.45593999997E+02  0.45594000000E+02  0.51100000000E-03 0.  1.
         11   -1    0    0    0    0 -0.00000000000E+00 -0.00000000000E+00 -0.45593999997E+02  0.45594000000E+02  0.51100000000E-03 0. -1.
    9900012    2    1    2    0    0 -0.22152861555E+02  0.22345429884E+02  0.51626707506E+01  0.59301942215E+02  0.49999996695E+02 0.  0.
         12    1    1    2    0    0  0.22152861555E+02 -0.22345429884E+02 -0.51626707506E+01  0.31886057785E+02  0.00000000000E+00 0. -1.
         11    1    3    3    0    0  0.11676922909E+01  0.71679873022E+00  0.17867460421E+01  0.22516143955E+01  0.51100000000E-03 0. -1.
        -11    1    3    3    0    0  0.12148889766E+02  0.16165106962E+02  0.59265942216E+01  0.21072036564E+02  0.51100000000E-03 0.  1.
         12    1    3    3    0    0 -0.35469443612E+02  0.54635241919E+01 -0.25506695130E+01  0.35978291256E+02  0.00000000000E+00 0. -1.
</event>
<event>
 7    1  0.6672802E-013  0.5930198E+02  0.7816164E-02  0.1266605E+00
        -11   -1    0    0    0    0  0.00000000000E+00  0.00000000000E+00  0.45593999997E+02  0.45594000000E+02  0.51100000000E-03 0.  1.
         11   -1    0    0    0    0 -0.00000000000E+00 -0.00000000000E+00 -0.45593999997E+02  0.45594000000E+02  0.51100000000E-03 0. -1.
    9900012    2    1    2    0    0 -0.19976420719E+02 -0.12863555577E+02  0.21264748473E+02  0.59301984657E+02  0.50000074098E+02 0.  0.
         12    1    1    2    0    0  0.19976420719E+02  0.12863555577E+02 -0.21264748473E+02  0.31886015343E+02  0.00000000000E+00 0. -1.
         11    1    3    3    0    0  0.29566398571E+01  0.20809109566E+01 -0.50046446990E+01  0.61740082991E+01  0.51100000000E-03 0. -1.
        -11    1    3    3    0    0  0.79432034483E+01 -0.11052794896E+02  0.14416561973E+02  0.19826649122E+02  0.51100000000E-03 0.  1.
         12    1    3    3    0    0 -0.30876264024E+02 -0.38916716383E+01  0.11852831199E+02  0.33301327236E+02  0.00000000000E+00 0. -1.
</event>
<event>
 7    1  0.6672802E-013  0.5930195E+02  0.7816164E-02  0.1266605E+00
        -11   -1    0    0    0    0  0.00000000000E+00  0.00000000000E+00  0.45593999997E+02  0.45594000000E+02  0.51100000000E-03 0.  1.
         11   -1    0    0    0    0 -0.00000000000E+00 -0.00000000000E+00 -0.45593999997E+02  0.45594000000E+02  0.51100000000E-03 0. -1.
    9900012    2    1    2    0    0 -0.26647571307E+02  0.15301073953E+01  0.17443790377E+02  0.59301951202E+02  0.50000013085E+02 0.  0.
         12    1    1    2    0    0  0.26647571307E+02 -0.15301073953E+01 -0.17443790377E+02  0.31886048798E+02  0.00000000000E+00 0. -1.
         11    1    3    3    0    0 -0.42832876907E+01 -0.32229830373E+01 -0.93192224110E+01  0.10750910646E+02  0.51100000000E-03 0. -1.
        -11    1    3    3    0    0 -0.15181325675E+02  0.12553045209E+02 -0.69756068204E-01  0.19699148699E+02  0.51100000000E-03 0.  1.
        -12    1    3    3    0    0 -0.71829579409E+01 -0.77999547767E+01  0.26832768856E+02  0.28851891858E+02  0.00000000000E+00 0.  1.
</event>
<event>
 7    1  0.6672802E-013  0.5930194E+02  0.7816164E-02  0.1266605E+00
        -11   -1    0    0    0    0  0.00000000000E+00  0.00000000000E+00  0.45593999997E+02  0.45594000000E+02  0.51100000000E-03 0. -1.
         11   -1    0    0    0    0 -0.00000000000E+00 -0.00000000000E+00 -0.45593999997E+02  0.45594000000E+02  0.51100000000E-03 0.  1.
    9900012    2    1    2    0    0  0.58970491597E+01  0.15011513210E+02 -0.27506364689E+02  0.59301940098E+02  0.49999992833E+02 0.  0.
         12    1    1    2    0    0 -0.58970491597E+01 -0.15011513210E+02  0.27506364689E+02  0.31886059902E+02  0.00000000000E+00 0. -1.
         11    1    3    3    0    0  0.14003810250E+01  0.16782502230E+02 -0.10701412336E+01  0.16874793351E+02  0.51100000000E-03 0. -1.
        -11    1    3    3    0    0  0.12360626005E+02 -0.11858021758E+02 -0.56789801459E+01  0.18045735535E+02  0.51100000000E-03 0.  1.
        -12    1    3    3    0    0 -0.78639578703E+01  0.10087032738E+02 -0.20757243310E+02  0.24381411212E+02  0.00000000000E+00 0.  1.
</event>
<event>
 7    1  0.6672802E-013  0.5930192E+02  0.7816164E-02  0.1266605E+00
        -11   -1    0    0    0    0  0.00000000000E+00  0.00000000000E+00  0.45593999997E+02  0.45594000000E+02  0.51100000000E-03 0. -1.
         11   -1    0    0    0    0 -0.00000000000E+00 -0.00000000000E+00 -0.45593999997E+02  0.45594000000E+02  0.51100000000E-03 0.  1.
    9900012    2    1    2    0    0  0.27435310607E+02 -0.14380608081E+02 -0.75646387134E+01  0.59301922854E+02  0.49999961385E+02 0.  0.
         12    1    1    2    0    0 -0.27435310607E+02  0.14380608081E+02  0.75646387134E+01  0.31886077146E+02  0.00000000000E+00 0. -1.
         11    1    3    3    0    0  0.10695439074E+02 -0.87003640706E+00  0.59133766819E+01  0.12252240790E+02  0.51100000000E-03 0. -1.
        -11    1    3    3    0    0  0.29037281217E+02 -0.37329773472E+01 -0.10186804859E+02  0.30997900152E+02  0.51100000000E-03 0.  1.
         12    1    3    3    0    0 -0.12297409684E+02 -0.97775943272E+01 -0.32912105364E+01  0.16051781912E+02  0.00000000000E+00 0. -1.
</event>
<event>
 7    1  0.6672802E-013  0.5930195E+02  0.7816164E-02  0.1266605E+00
        -11   -1    0    0    0    0  0.00000000000E+00  0.00000000000E+00  0.45593999997E+02  0.45594000000E+02  0.51100000000E-03 0.  1.
         11   -1    0    0    0    0 -0.00000000000E+00 -0.00000000000E+00 -0.45593999997E+02  0.45594000000E+02  0.51100000000E-03 0. -1.
    9900012    2    1    2    0    0  0.95245076118E+01  0.69195191329E+01  0.29633163368E+02  0.59301947227E+02  0.50000005834E+02 0.  0.
         12    1    1    2    0    0 -0.95245076118E+01 -0.69195191329E+01 -0.29633163368E+02  0.31886052773E+02  0.00000000000E+00 0. -1.
         11    1    3    3    0    0  0.23802004907E+01 -0.27367476968E+01  0.32920170722E+01  0.48982158994E+01  0.51100000000E-03 0. -1.
        -11    1    3    3    0    0  0.87474366030E+01 -0.92502056521E+01  0.32134589479E+02  0.34564661043E+02  0.51100000000E-03 0.  1.
         12    1    3    3    0    0 -0.16031294819E+01  0.18906472482E+02 -0.57934431836E+01  0.19839070285E+02  0.00000000000E+00 0. -1.
</event>
<event>
 7    1  0.6672802E-013  0.5930201E+02  0.7816164E-02  0.1266605E+00
        -11   -1    0    0    0    0  0.00000000000E+00  0.00000000000E+00  0.45593999997E+02  0.45594000000E+02  0.51100000000E-03 0. -1.
         11   -1    0    0    0    0 -0.00000000000E+00 -0.00000000000E+00 -0.45593999997E+02  0.45594000000E+02  0.51100000000E-03 0.  1.
    9900012    2    1    2    0    0  0.10154304170E+02  0.29801817414E+02 -0.50456245695E+01  0.59302007125E+02  0.50000115074E+02 0.  0.
         12    1    1    2    0    0 -0.10154304170E+02 -0.29801817414E+02  0.50456245695E+01  0.31885992875E+02  0.00000000000E+00 0. -1.
         11    1    3    3    0    0  0.12540317154E+02  0.16708375252E+02  0.12413617621E+02  0.24300766667E+02  0.51100000000E-03 0. -1.
        -11    1    3    3    0    0  0.91149276748E+01  0.38968426147E+01  0.24754116247E+01  0.10217384785E+02  0.51100000000E-03 0.  1.
         12    1    3    3    0    0 -0.11500940659E+02  0.91965995473E+01 -0.19934653815E+02  0.24783855673E+02  0.00000000000E+00 0. -1.
</event>
<event>
 7    1  0.6672802E-013  0.5930194E+02  0.7816164E-02  0.1266605E+00
        -11   -1    0    0    0    0  0.00000000000E+00  0.00000000000E+00  0.45593999997E+02  0.45594000000E+02  0.51100000000E-03 0.  1.
         11   -1    0    0    0    0 -0.00000000000E+00 -0.00000000000E+00 -0.45593999997E+02  0.45594000000E+02  0.51100000000E-03 0. -1.
    9900012    2    1    2    0    0 -0.23564377638E+02  0.85706389329E+01  0.19697334306E+02  0.59301941542E+02  0.49999995467E+02 0.  0.
         12    1    1    2    0    0  0.23564377638E+02 -0.85706389329E+01 -0.19697334306E+02  0.31886058458E+02  0.00000000000E+00 0. -1.
         11    1    3    3    0    0  0.54032091376E+01  0.12174509458E+02  0.56080499075E+01  0.14452113117E+02  0.51100000000E-03 0. -1.
        -11    1    3    3    0    0  0.44389339790E+01  0.38421719791E+01 -0.30015829583E+01  0.65936272948E+01  0.51100000000E-03 0.  1.
        -12    1    3    3    0    0 -0.33406520755E+02 -0.74460425039E+01  0.17090867357E+02  0.38256201130E+02  0.00000000000E+00 0.  1.
</event>
<event>
 7    1  0.6672802E-013  0.5930218E+02  0.7816164E-02  0.1266604E+00
        -11   -1    0    0    0    0  0.00000000000E+00  0.00000000000E+00  0.45593999997E+02  0.45594000000E+02  0.51100000000E-03 0.  1.
         11   -1    0    0    0    0 -0.00000000000E+00 -0.00000000000E+00 -0.45593999997E+02  0.45594000000E+02  0.51100000000E-03 0. -1.
    9900012    2    1    2    0    0  0.17141880313E+02  0.57003202860E+01  0.26274845135E+02  0.59302184989E+02  0.50000439454E+02 0.  0.
         12    1    1    2    0    0 -0.17141880313E+02 -0.57003202860E+01 -0.26274845135E+02  0.31885815011E+02  0.00000000000E+00 0. -1.
         11    1    3    3    0    0  0.25631731687E+02 -0.90191012158E+01  0.17998724057E+02  0.32592697403E+02  0.51100000000E-03 0. -1.
        -11    1    3    3    0    0  0.12552085721E+01  0.38685222350E+01  0.11128729684E+02  0.11848613315E+02  0.51100000000E-03 0.  1.
        -12    1    3    3    0    0 -0.97450599460E+01  0.10850899267E+02 -0.28526086073E+01  0.14860874272E+02  0.00000000000E+00 0.  1.
</event>
<event>
 7    1  0.6672802E-013  0.5930193E+02  0.7816164E-02  0.1266605E+00
        -11   -1    0    0    0    0  0.00000000000E+00  0.00000000000E+00  0.45593999997E+02  0.45594000000E+02  0.51100000000E-03 0.  1.
         11   -1    0    0    0    0 -0.00000000000E+00 -0.00000000000E+00 -0.45593999997E+02  0.45594000000E+02  0.51100000000E-03 0. -1.
    9900012    2    1    2    0    0 -0.17606245856E+02  0.23072658728E+02 -0.13205839053E+02  0.59301926880E+02  0.49999968727E+02 0.  0.
         12    1    1    2    0    0  0.17606245856E+02 -0.23072658728E+02  0.13205839053E+02  0.31886073120E+02  0.00000000000E+00 0. -1.
         11    1    3    3    0    0 -0.91897536061E+00  0.21790756017E+01  0.89408742728E+01  0.92483576496E+01  0.51100000000E-03 0. -1.
        -11    1    3    3    0    0 -0.27705849951E+01  0.37526685450E+01  0.10011826650E+02  0.11045149866E+02  0.51100000000E-03 0.  1.
         12    1    3    3    0    0 -0.13916685500E+02  0.17140914581E+02 -0.32158539976E+02  0.39008419365E+02  0.00000000000E+00 0. -1.
</event>
<event>
 7    1  0.6672802E-013  0.5930194E+02  0.7816164E-02  0.1266605E+00
        -11   -1    0    0    0    0  0.00000000000E+00  0.00000000000E+00  0.45593999997E+02  0.45594000000E+02  0.51100000000E-03 0.  1.
         11   -1    0    0    0    0 -0.00000000000E+00 -0.00000000000E+00 -0.45593999997E+02  0.45594000000E+02  0.51100000000E-03 0. -1.
    9900012    2    1    2    0    0 -0.15157664140E+02 -0.10623850132E+01 -0.28032791884E+02  0.59301939332E+02  0.49999991437E+02 0.  0.
         12    1    1    2    0    0  0.15157664140E+02  0.10623850132E+01  0.28032791884E+02  0.31886060668E+02  0.00000000000E+00 0. -1.
         11    1    3    3    0    0  0.21663059331E+01 -0.11843907218E+02 -0.14113848501E+02  0.18551866196E+02  0.51100000000E-03 0. -1.
        -11    1    3    3    0    0 -0.12309777570E+01 -0.10704813604E+02 -0.75583615955E+01  0.13161959231E+02  0.51100000000E-03 0.  1.
        -12    1    3    3    0    0 -0.16092992317E+02  0.21486335809E+02 -0.63605817876E+01  0.27588113905E+02  0.00000000000E+00 0.  1.
</event>
<event>
 7    1  0.6672802E-013  0.5930194E+02  0.7816164E-02  0.1266605E+00
        -11   -1    0    0    0    0  0.00000000000E+00  0.00000000000E+00  0.45593999997E+02  0.45594000000E+02  0.51100000000E-03 0.  1.
         11   -1    0    0    0    0 -0.00000000000E+00 -0.00000000000E+00 -0.45593999997E+02  0.45594000000E+02  0.51100000000E-03 0. -1.
    9900012    2    1    2    0    0  0.79231545985E+01 -0.28307641624E+02  0.12354010222E+02  0.59301944715E+02  0.50000001253E+02 0.  0.
         12    1    1    2    0    0 -0.79231545985E+01  0.28307641624E+02 -0.12354010222E+02  0.31886055285E+02  0.00000000000E+00 0. -1.
         11    1    3    3    0    0  0.25266829987E+01 -0.28728423755E+02  0.89974791710E+01  0.30210281199E+02  0.51100000000E-03 0.  1.
        -11    1    3    3    0    0 -0.91743129470E+01  0.76848834241E+01 -0.15967492132E+01  0.12073734286E+02  0.51100000000E-03 0. -1.
         12    1    3    3    0    0  0.14570784547E+02 -0.72641012927E+01  0.49532802643E+01  0.17017929230E+02  0.00000000000E+00 0. -1.
</event>
<event>
 7    1  0.6672802E-013  0.5930192E+02  0.7816164E-02  0.1266605E+00
        -11   -1    0    0    0    0  0.00000000000E+00  0.00000000000E+00  0.45593999997E+02  0.45594000000E+02  0.51100000000E-03 0.  1.
         11   -1    0    0    0    0 -0.00000000000E+00 -0.00000000000E+00 -0.45593999997E+02  0.45594000000E+02  0.51100000000E-03 0. -1.
    9900012    2    1    2    0    0 -0.31848583807E+01 -0.19891433764E+02  0.24716581955E+02  0.59301923357E+02  0.49999962302E+02 0.  0.
         12    1    1    2    0    0  0.31848583807E+01  0.19891433764E+02 -0.24716581955E+02  0.31886076643E+02  0.00000000000E+00 0. -1.
         11    1    3    3    0    0  0.65407693275E+00  0.96142716057E+01 -0.11254460269E+01  0.97019927934E+01  0.51100000000E-03 0. -1.
        -11    1    3    3    0    0  0.82848895582E+00 -0.76164565696E+01  0.26116350114E+02  0.27216916580E+02  0.51100000000E-03 0.  1.
        -12    1    3    3    0    0 -0.46674242693E+01 -0.21889248800E+02 -0.27432213150E+00  0.22383013984E+02  0.00000000000E+00 0.  1.
</event>
<event>
 7    1  0.6672802E-013  0.5930208E+02  0.7816164E-02  0.1266604E+00
        -11   -1    0    0    0    0  0.00000000000E+00  0.00000000000E+00  0.45593999997E+02  0.45594000000E+02  0.51100000000E-03 0.  1.
         11   -1    0    0    0    0 -0.00000000000E+00 -0.00000000000E+00 -0.45593999997E+02  0.45594000000E+02  0.51100000000E-03 0. -1.
    9900012    2    1    2    0    0 -0.26409751227E+02 -0.42217551651E+01  0.17361275612E+02  0.59302077284E+02  0.50000243027E+02 0.  0.
         12    1    1    2    0    0  0.26409751227E+02  0.42217551651E+01 -0.17361275612E+02  0.31885922716E+02  0.00000000000E+00 0. -1.
         11    1    3    3    0    0 -0.16741125431E+02 -0.17949500201E+02 -0.56600305096E+01  0.25189001247E+02  0.51100000000E-03 0. -1.
        -11    1    3    3    0    0 -0.67584101961E+00 -0.24445821947E+01 -0.18311669471E+01  0.31282448497E+01  0.51100000000E-03 0.  1.
        -12    1    3    3    0    0 -0.89927847762E+01  0.16172327231E+02  0.24852473069E+02  0.30984831188E+02  0.00000000000E+00 0.  1.
</event>
<event>
 7    1  0.6672802E-013  0.5930195E+02  0.7816164E-02  0.1266605E+00
        -11   -1    0    0    0    0  0.00000000000E+00  0.00000000000E+00  0.45593999997E+02  0.45594000000E+02  0.51100000000E-03 0.  1.
         11   -1    0    0    0    0 -0.00000000000E+00 -0.00000000000E+00 -0.45593999997E+02  0.45594000000E+02  0.51100000000E-03 0. -1.
    9900012    2    1    2    0    0 -0.31460503477E+02  0.48242217057E+01  0.19193252804E+01  0.59301949701E+02  0.50000010347E+02 0.  0.
         12    1    1    2    0    0  0.31460503477E+02 -0.48242217057E+01 -0.19193252804E+01  0.31886050299E+02  0.00000000000E+00 0. -1.
         11    1    3    3    0    0 -0.13510651384E+02  0.17314463360E+02 -0.11029875664E+02  0.24576136793E+02  0.51100000000E-03 0. -1.
        -11    1    3    3    0    0 -0.14187454886E+02  0.56643135450E+00 -0.22082733814E+01  0.14369453442E+02  0.51100000000E-03 0.  1.
         12    1    3    3    0    0 -0.37623972072E+01 -0.13056673009E+02  0.15157474325E+02  0.20356359466E+02  0.00000000000E+00 0. -1.
</event>
<event>
 7    1  0.6672802E-013  0.5930184E+02  0.7816164E-02  0.1266605E+00
        -11   -1    0    0    0    0  0.00000000000E+00  0.00000000000E+00  0.45593999997E+02  0.45594000000E+02  0.51100000000E-03 0.  1.
         11   -1    0    0    0    0 -0.00000000000E+00 -0.00000000000E+00 -0.45593999997E+02  0.45594000000E+02  0.51100000000E-03 0. -1.
    9900012    2    1    2    0    0  0.26998821845E+00 -0.53241949912E+01  0.31437356178E+02  0.59301838277E+02  0.49999807136E+02 0.  0.
         12    1    1    2    0    0 -0.26998821845E+00  0.53241949912E+01 -0.31437356178E+02  0.31886161723E+02  0.00000000000E+00 0. -1.
         11    1    3    3    0    0 -0.11990021345E+02 -0.19050951135E+02  0.25049213716E+02  0.33677328562E+02  0.51100000000E-03 0. -1.
        -11    1    3    3    0    0  0.69108177771E+01  0.11809195174E+02  0.11581625466E+02  0.17926252863E+02  0.51100000000E-03 0.  1.
        -12    1    3    3    0    0  0.53491917868E+01  0.19175609706E+01 -0.51934830044E+01  0.76982568524E+01  0.00000000000E+00 0.  1.
</event>
<event>
 7    1  0.6672802E-013  0.5930181E+02  0.7816164E-02  0.1266605E+00
        -11   -1    0    0    0    0  0.00000000000E+00  0.00000000000E+00  0.45593999997E+02  0.45594000000E+02  0.51100000000E-03 0. -1.
         11   -1    0    0    0    0 -0.00000000000E+00 -0.00000000000E+00 -0.45593999997E+02  0.45594000000E+02  0.51100000000E-03 0.  1.
    9900012    2    1    2    0    0 -0.28551470951E+02  0.12867984036E+02  0.59964543935E+01  0.59301812208E+02  0.49999759592E+02 0.  0.
         12    1    1    2    0    0  0.28551470951E+02 -0.12867984036E+02 -0.59964543935E+01  0.31886187792E+02  0.00000000000E+00 0. -1.
         11    1    3    3    0    0 -0.90547685605E+01  0.71621929484E+01  0.57834240458E+01  0.12912545662E+02  0.51100000000E-03 0. -1.
        -11    1    3    3    0    0 -0.30298013225E+02  0.12215552930E+02 -0.43955760981E+01  0.32962257633E+02  0.51100000000E-03 0.  1.
         12    1    3    3    0    0  0.10801310834E+02 -0.65097618430E+01  0.46086064458E+01  0.13427008914E+02  0.00000000000E+00 0. -1.
</event>
<event>
 7    1  0.6672802E-013  0.5930203E+02  0.7816164E-02  0.1266604E+00
        -11   -1    0    0    0    0  0.00000000000E+00  0.00000000000E+00  0.45593999997E+02  0.45594000000E+02  0.51100000000E-03 0.  1.
         11   -1    0    0    0    0 -0.00000000000E+00 -0.00000000000E+00 -0.45593999997E+02  0.45594000000E+02  0.51100000000E-03 0. -1.
    9900012    2    1    2    0    0 -0.48161047764E+01 -0.12888353832E+01  0.31493797465E+02  0.59302027525E+02  0.50000152279E+02 0.  0.
         12    1    1    2    0    0  0.48161047764E+01  0.12888353832E+01 -0.31493797465E+02  0.31885972475E+02  0.00000000000E+00 0. -1.
         11    1    3    3    0    0 -0.62461772531E+01  0.37324796394E+01 -0.15491616692E+01  0.74394916946E+01  0.51100000000E-03 0. -1.
        -11    1    3    3    0    0 -0.82771686584E+01  0.91133514441E-01 -0.66897321582E+01  0.10642948037E+02  0.51100000000E-03 0.  1.
        -12    1    3    3    0    0  0.97072411350E+01 -0.51124485371E+01  0.39732691293E+02  0.41219587793E+02  0.00000000000E+00 0.  1.
</event>
<event>
 7    1  0.6672802E-013  0.5930193E+02  0.7816164E-02  0.1266605E+00
        -11   -1    0    0    0    0  0.00000000000E+00  0.00000000000E+00  0.45593999997E+02  0.45594000000E+02  0.51100000000E-03 0. -1.
         11   -1    0    0    0    0 -0.00000000000E+00 -0.00000000000E+00 -0.45593999997E+02  0.45594000000E+02  0.51100000000E-03 0.  1.
    9900012    2    1    2    0    0 -0.19524432229E+02 -0.20644084167E+02 -0.14468571099E+02  0.59301933849E+02  0.49999981436E+02 0.  0.
         12    1    1    2    0    0  0.19524432229E+02  0.20644084167E+02  0.14468571099E+02  0.31886066151E+02  0.00000000000E+00 0. -1.
         11    1    3    3    0    0 -0.73038194373E+01  0.96448912930E+01 -0.10184954201E+02  0.15814645072E+02  0.51100000000E-03 0. -1.
        -11    1    3    3    0    0  0.66149107559E+00  0.48826429607E+01 -0.34617429398E+01  0.60217470195E+01  0.51100000000E-03 0.  1.
         12    1    3    3    0    0 -0.12882103867E+02 -0.35171618421E+02 -0.82187395900E+00  0.37465541757E+02  0.00000000000E+00 0. -1.
</event>
<event>
 7    1  0.6672802E-013  0.5930194E+02  0.7816164E-02  0.1266605E+00
        -11   -1    0    0    0    0  0.00000000000E+00  0.00000000000E+00  0.45593999997E+02  0.45594000000E+02  0.51100000000E-03 0. -1.
         11   -1    0    0    0    0 -0.00000000000E+00 -0.00000000000E+00 -0.45593999997E+02  0.45594000000E+02  0.51100000000E-03 0.  1.
    9900012    2    1    2    0    0 -0.25637159392E+02  0.16026997333E+02  0.10128769492E+02  0.59301944167E+02  0.50000000253E+02 0.  0.
         12    1    1    2    0    0  0.25637159392E+02 -0.16026997333E+02 -0.10128769492E+02  0.31886055833E+02  0.00000000000E+00 0. -1.
         11    1    3    3    0    0 -0.46011585819E+01  0.19968096333E+02 -0.23777893873E+01  0.20628849074E+02  0.51100000000E-03 0. -1.
        -11    1    3    3    0    0 -0.99004282491E+01 -0.19475430801E+01 -0.95447403626E+01  0.13889329444E+02  0.51100000000E-03 0.  1.
        -12    1    3    3    0    0 -0.11135572561E+02 -0.19935559199E+01  0.22051299242E+02  0.24783765648E+02  0.00000000000E+00 0.  1.
</event>
<event>
 7    1  0.6672802E-013  0.5930200E+02  0.7816164E-02  0.1266605E+00
        -11   -1    0    0    0    0  0.00000000000E+00  0.00000000000E+00  0.45593999997E+02  0.45594000000E+02  0.51100000000E-03 0.  1.
         11   -1    0    0    0    0 -0.00000000000E+00 -0.00000000000E+00 -0.45593999997E+02  0.45594000000E+02  0.51100000000E-03 0. -1.
    9900012    2    1    2    0    0  0.11676267776E+02  0.11312813250E+02  0.27429949920E+02  0.59301997970E+02  0.50000098379E+02 0.  0.
         12    1    1    2    0    0 -0.11676267776E+02 -0.11312813250E+02 -0.27429949920E+02  0.31886002030E+02  0.00000000000E+00 0. -1.
         11    1    3    3    0    0  0.85425946349E+01 -0.72289109003E+01  0.10582866445E+02  0.15402277051E+02  0.51100000000E-03 0. -1.
        -11    1    3    3    0    0  0.48927097533E+01 -0.60067097038E+01  0.17649826397E+02  0.19275257256E+02  0.51100000000E-03 0.  1.
         12    1    3    3    0    0 -0.17590366126E+01  0.24548433854E+02 -0.80274292155E+00  0.24624463663E+02  0.00000000000E+00 0. -1.
</event>
<event>
 7    1  0.6672802E-013  0.5930194E+02  0.7816164E-02  0.1266605E+00
        -11   -1    0    0    0    0  0.00000000000E+00  0.00000000000E+00  0.45593999997E+02  0.45594000000E+02  0.51100000000E-03 0.  1.
         11   -1    0    0    0    0 -0.00000000000E+00 -0.00000000000E+00 -0.45593999997E+02  0.45594000000E+02  0.51100000000E-03 0. -1.
    9900012    2    1    2    0    0 -0.18264533547E+02  0.21925341616E+02 -0.14226974553E+02  0.59301943555E+02  0.49999999139E+02 0.  0.
         12    1    1    2    0    0  0.18264533547E+02 -0.21925341616E+02  0.14226974553E+02  0.31886056445E+02  0.00000000000E+00 0. -1.
         11    1    3    3    0    0  0.10053011402E+02  0.49935313658E+01 -0.16401106752E+02  0.19874473495E+02  0.51100000000E-03 0. -1.
        -11    1    3    3    0    0 -0.27995470134E+02  0.78562481601E+01 -0.25543750908E+01  0.29188898841E+02  0.51100000000E-03 0.  1.
        -12    1    3    3    0    0 -0.32207481475E+00  0.90755620900E+01  0.47285072899E+01  0.10238571220E+02  0.00000000000E+00 0.  1.
</event>
<event>
 7    1  0.6672802E-013  0.5930194E+02  0.7816164E-02  0.1266605E+00
        -11   -1    0    0    0    0  0.00000000000E+00  0.00000000000E+00  0.45593999997E+02  0.45594000000E+02  0.51100000000E-03 0.  1.
         11   -1    0    0    0    0 -0.00000000000E+00 -0.00000000000E+00 -0.45593999997E+02  0.45594000000E+02  0.51100000000E-03 0. -1.
    9900012    2    1    2    0    0 -0.25782094280E+01 -0.13347002088E+02  0.28843217259E+02  0.59301940186E+02  0.49999992993E+02 0.  0.
         12    1    1    2    0    0  0.25782094280E+01  0.13347002088E+02 -0.28843217259E+02  0.31886059814E+02  0.00000000000E+00 0. -1.
         11    1    3    3    0    0 -0.21260369529E+02 -0.13214660945E+01  0.73779191851E+01  0.22542920772E+02  0.51100000000E-03 0. -1.
        -11    1    3    3    0    0  0.11581074023E+02  0.39595617537E+01  0.10402921016E+02  0.16063006279E+02  0.51100000000E-03 0.  1.
         12    1    3    3    0    0  0.71010860785E+01 -0.15985097747E+02  0.11062377059E+02  0.20696013135E+02  0.00000000000E+00 0. -1.
</event>
<event>
 7    1  0.6672802E-013  0.5930193E+02  0.7816164E-02  0.1266605E+00
        -11   -1    0    0    0    0  0.00000000000E+00  0.00000000000E+00  0.45593999997E+02  0.45594000000E+02  0.51100000000E-03 0.  1.
         11   -1    0    0    0    0 -0.00000000000E+00 -0.00000000000E+00 -0.45593999997E+02  0.45594000000E+02  0.51100000000E-03 0. -1.
    9900012    2    1    2    0    0  0.10698801273E+02 -0.31780075437E+01  0.29869004587E+02  0.59301929128E+02  0.49999972827E+02 0.  0.
         12    1    1    2    0    0 -0.10698801273E+02  0.31780075437E+01 -0.29869004587E+02  0.31886070872E+02  0.00000000000E+00 0. -1.
         11    1    3    3    0    0 -0.79975201641E+01  0.83864928361E+01  0.31492604222E+02  0.33557081396E+02  0.51100000000E-03 0.  1.
        -11    1    3    3    0    0  0.12271496163E+02 -0.87672196171E+01  0.52108917983E+01  0.15956414118E+02  0.51100000000E-03 0. -1.
        -12    1    3    3    0    0  0.64248252741E+01 -0.27972807627E+01 -0.68344914335E+01  0.97884336144E+01  0.00000000000E+00 0.  1.
</event>
<event>
 7    1  0.6672802E-013  0.5930195E+02  0.7816164E-02  0.1266605E+00
        -11   -1    0    0    0    0  0.00000000000E+00  0.00000000000E+00  0.45593999997E+02  0.45594000000E+02  0.51100000000E-03 0.  1.
         11   -1    0    0    0    0 -0.00000000000E+00 -0.00000000000E+00 -0.45593999997E+02  0.45594000000E+02  0.51100000000E-03 0. -1.
    9900012    2    1    2    0    0  0.24874380864E+02 -0.30100932633E+01  0.19721175623E+02  0.59301948932E+02  0.50000008943E+02 0.  0.
         12    1    1    2    0    0 -0.24874380864E+02  0.30100932633E+01 -0.19721175623E+02  0.31886051068E+02  0.00000000000E+00 0. -1.
         11    1    3    3    0    0 -0.26533087504E+01  0.33780735057E+01 -0.34729028106E+01  0.55238104718E+01  0.51100000000E-03 0. -1.
        -11    1    3    3    0    0 -0.50279781961E+01 -0.87752834715E+00 -0.72498759271E+01  0.88663026093E+01  0.51100000000E-03 0.  1.
        -12    1    3    3    0    0  0.32555667810E+02 -0.55106384219E+01  0.30443954360E+02  0.44911835851E+02  0.00000000000E+00 0.  1.
</event>
<event>
 7    1  0.6672802E-013  0.5930192E+02  0.7816164E-02  0.1266605E+00
        -11   -1    0    0    0    0  0.00000000000E+00  0.00000000000E+00  0.45593999997E+02  0.45594000000E+02  0.51100000000E-03 0. -1.
         11   -1    0    0    0    0 -0.00000000000E+00 -0.00000000000E+00 -0.45593999997E+02  0.45594000000E+02  0.51100000000E-03 0.  1.
    9900012    2    1    2    0    0  0.76812176457E+01 -0.65450484460E+01 -0.30247039870E+02  0.59301918639E+02  0.49999953697E+02 0.  0.
         12    1    1    2    0    0 -0.76812176457E+01  0.65450484460E+01  0.30247039870E+02  0.31886081361E+02  0.00000000000E+00 0. -1.
         11    1    3    3    0    0  0.59285818768E+01 -0.17276125056E+01 -0.42923968960E+01  0.75204653721E+01  0.51100000000E-03 0.  1.
        -11    1    3    3    0    0 -0.13539511023E+02 -0.17578137441E+02 -0.47518270801E+01  0.22691168667E+02  0.51100000000E-03 0. -1.
         12    1    3    3    0    0  0.15292146792E+02  0.12760701500E+02 -0.21202815894E+02  0.29090284600E+02  0.00000000000E+00 0. -1.
</event>
<event>
 7    1  0.6672802E-013  0.5930194E+02  0.7816164E-02  0.1266605E+00
        -11   -1    0    0    0    0  0.00000000000E+00  0.00000000000E+00  0.45593999997E+02  0.45594000000E+02  0.51100000000E-03 0. -1.
         11   -1    0    0    0    0 -0.00000000000E+00 -0.00000000000E+00 -0.45593999997E+02  0.45594000000E+02  0.51100000000E-03 0.  1.
    9900012    2    1    2    0    0 -0.65820805688E+00  0.24865705601E+02 -0.19949535414E+02  0.59301944802E+02  0.50000001412E+02 0.  0.
         12    1    1    2    0    0  0.65820805688E+00 -0.24865705601E+02  0.19949535414E+02  0.31886055198E+02  0.00000000000E+00 0. -1.
         11    1    3    3    0    0  0.50373189042E+01  0.22121427177E+02 -0.13997702847E+02  0.26658353425E+02  0.51100000000E-03 0. -1.
        -11    1    3    3    0    0  0.12730477480E+02  0.20600562291E+01  0.10072442226E+01  0.12935355802E+02  0.51100000000E-03 0.  1.
        -12    1    3    3    0    0 -0.18426004441E+02  0.68422219464E+00 -0.69590767895E+01  0.19708235574E+02  0.00000000000E+00 0.  1.
</event>
<event>
 7    1  0.6672802E-013  0.5930194E+02  0.7816164E-02  0.1266605E+00
        -11   -1    0    0    0    0  0.00000000000E+00  0.00000000000E+00  0.45593999997E+02  0.45594000000E+02  0.51100000000E-03 0.  1.
         11   -1    0    0    0    0 -0.00000000000E+00 -0.00000000000E+00 -0.45593999997E+02  0.45594000000E+02  0.51100000000E-03 0. -1.
    9900012    2    1    2    0    0  0.90441478463E+00  0.45174519534E+01  0.31551478259E+02  0.59301935354E+02  0.49999984182E+02 0.  0.
         12    1    1    2    0    0 -0.90441478463E+00 -0.45174519534E+01 -0.31551478259E+02  0.31886064646E+02  0.00000000000E+00 0. -1.
         11    1    3    3    0    0 -0.34763276935E+01 -0.81864987442E+01 -0.50531200427E+01  0.10229254047E+02  0.51100000000E-03 0. -1.
        -11    1    3    3    0    0  0.11431613904E+02 -0.56315055946E+01  0.17692893352E+02  0.21804452003E+02  0.51100000000E-03 0.  1.
         12    1    3    3    0    0 -0.70508714262E+01  0.18335456292E+02  0.18911704950E+02  0.27268229305E+02  0.00000000000E+00 0. -1.
</event>
<event>
 7    1  0.6672802E-013  0.5930191E+02  0.7816164E-02  0.1266605E+00
        -11   -1    0    0    0    0  0.00000000000E+00  0.00000000000E+00  0.45593999997E+02  0.45594000000E+02  0.51100000000E-03 0. -1.
         11   -1    0    0    0    0 -0.00000000000E+00 -0.00000000000E+00 -0.45593999997E+02  0.45594000000E+02  0.51100000000E-03 0.  1.
    9900012    2    1    2    0    0  0.27385793974E+02 -0.72724435180E+01 -0.14623710396E+02  0.59301905036E+02  0.49999928889E+02 0.  0.
         12    1    1    2    0    0 -0.27385793974E+02  0.72724435180E+01  0.14623710396E+02  0.31886094964E+02  0.00000000000E+00 0. -1.
         11    1    3    3    0    0 -0.14108904135E+01 -0.17034383674E+02  0.94611206536E+00  0.17118877511E+02  0.51100000000E-03 0. -1.
        -11    1    3    3    0    0  0.58249724080E+01 -0.50431427667E+01 -0.12497404027E+02  0.14681576898E+02  0.51100000000E-03 0.  1.
        -12    1    3    3    0    0  0.22971711979E+02  0.14805082923E+02 -0.30724184335E+01  0.27501450628E+02  0.00000000000E+00 0.  1.
</event>
<event>
 7    1  0.6672802E-013  0.5930192E+02  0.7816164E-02  0.1266605E+00
        -11   -1    0    0    0    0  0.00000000000E+00  0.00000000000E+00  0.45593999997E+02  0.45594000000E+02  0.51100000000E-03 0.  1.
         11   -1    0    0    0    0 -0.00000000000E+00 -0.00000000000E+00 -0.45593999997E+02  0.45594000000E+02  0.51100000000E-03 0. -1.
    9900012    2    1    2    0    0  0.78348958374E+01 -0.21538660178E+02 -0.22168053604E+02  0.59301920347E+02  0.49999956812E+02 0.  0.
         12    1    1    2    0    0 -0.78348958374E+01  0.21538660178E+02  0.22168053604E+02  0.31886079653E+02  0.00000000000E+00 0. -1.
         11    1    3    3    0    0  0.16337795483E+01 -0.37015951586E+01  0.23915782886E+01  0.47000733295E+01  0.51100000000E-03 0.  1.
        -11    1    3    3    0    0 -0.21621231423E+01 -0.12262959365E+02  0.11632410928E+02  0.17040185830E+02  0.51100000000E-03 0. -1.
         12    1    3    3    0    0  0.83632394314E+01 -0.55741056546E+01 -0.36192042821E+02  0.37561661188E+02  0.00000000000E+00 0. -1.
</event>
<event>
 7    1  0.6672802E-013  0.5930195E+02  0.7816164E-02  0.1266605E+00
        -11   -1    0    0    0    0  0.00000000000E+00  0.00000000000E+00  0.45593999997E+02  0.45594000000E+02  0.51100000000E-03 0.  1.
         11   -1    0    0    0    0 -0.00000000000E+00 -0.00000000000E+00 -0.45593999997E+02  0.45594000000E+02  0.51100000000E-03 0. -1.
    9900012    2    1    2    0    0 -0.26989527429E+01 -0.30662082974E+02  0.83229939489E+01  0.59301954361E+02  0.50000018846E+02 0.  0.
         12    1    1    2    0    0  0.26989527429E+01  0.30662082974E+02 -0.83229939489E+01  0.31886045639E+02  0.00000000000E+00 0. -1.
         11    1    3    3    0    0 -0.15847292615E+01  0.16490138118E+01 -0.38274131033E+01  0.44586662477E+01  0.51100000000E-03 0. -1.
        -11    1    3    3    0    0  0.83633963961E+01 -0.31874308924E+02 -0.68026920526E+01  0.33648099323E+02  0.51100000000E-03 0.  1.
        -12    1    3    3    0    0 -0.94776198775E+01 -0.43678786214E+00  0.18953099105E+02  0.21195188790E+02  0.00000000000E+00 0.  1.
</event>
<event>
 7    1  0.6672802E-013  0.5930194E+02  0.7816164E-02  0.1266605E+00
        -11   -1    0    0    0    0  0.00000000000E+00  0.00000000000E+00  0.45593999997E+02  0.45594000000E+02  0.51100000000E-03 0.  1.
         11   -1    0    0    0    0 -0.00000000000E+00 -0.00000000000E+00 -0.45593999997E+02  0.45594000000E+02  0.51100000000E-03 0. -1.
    9900012    2    1    2    0    0 -0.63438488838E+01  0.18434346524E+02  0.25231953299E+02  0.59301936936E+02  0.49999987066E+02 0.  0.
         12    1    1    2    0    0  0.63438488838E+01 -0.18434346524E+02 -0.25231953299E+02  0.31886063064E+02  0.00000000000E+00 0. -1.
         11    1    3    3    0    0 -0.34394596727E+01  0.22463530102E+02  0.10418054899E+02  0.24999518708E+02  0.51100000000E-03 0. -1.
        -11    1    3    3    0    0  0.75038216875E+01  0.32499669443E+01  0.19197178714E+02  0.20866271729E+02  0.51100000000E-03 0.  1.
        -12    1    3    3    0    0 -0.10408210899E+02 -0.72791505217E+01 -0.43832803141E+01  0.13436146499E+02  0.00000000000E+00 0.  1.
</event>
<event>
 7    1  0.6672802E-013  0.5930198E+02  0.7816164E-02  0.1266605E+00
        -11   -1    0    0    0    0  0.00000000000E+00  0.00000000000E+00  0.45593999997E+02  0.45594000000E+02  0.51100000000E-03 0. -1.
         11   -1    0    0    0    0 -0.00000000000E+00 -0.00000000000E+00 -0.45593999997E+02  0.45594000000E+02  0.51100000000E-03 0.  1.
    9900012    2    1    2    0    0  0.30170205357E+02  0.58814316405E+01  0.84785495812E+01  0.59301979044E+02  0.50000063861E+02 0.  0.
         12    1    1    2    0    0 -0.30170205357E+02 -0.58814316405E+01 -0.84785495812E+01  0.31886020956E+02  0.00000000000E+00 0. -1.
         11    1    3    3    0    0  0.31220197658E+02  0.21681907357E+02  0.12045447132E+02  0.39873533144E+02  0.51100000000E-03 0. -1.
        -11    1    3    3    0    0  0.43034747031E+01 -0.31189363183E+01 -0.61538036789E+00  0.53503599446E+01  0.51100000000E-03 0.  1.
        -12    1    3    3    0    0 -0.53534670050E+01 -0.12681539399E+02 -0.29515171832E+01  0.14078085956E+02  0.00000000000E+00 0.  1.
</event>
<event>
 7    1  0.6672802E-013  0.5930195E+02  0.7816164E-02  0.1266605E+00
        -11   -1    0    0    0    0  0.00000000000E+00  0.00000000000E+00  0.45593999997E+02  0.45594000000E+02  0.51100000000E-03 0.  1.
         11   -1    0    0    0    0 -0.00000000000E+00 -0.00000000000E+00 -0.45593999997E+02  0.45594000000E+02  0.51100000000E-03 0. -1.
    9900012    2    1    2    0    0 -0.21240875284E+02  0.44152151474E+01  0.23367743742E+02  0.59301947325E+02  0.50000006013E+02 0.  0.
         12    1    1    2    0    0  0.21240875284E+02 -0.44152151474E+01 -0.23367743742E+02  0.31886052675E+02  0.00000000000E+00 0. -1.
         11    1    3    3    0    0  0.55678327956E+01  0.15619302116E+01  0.96551669786E+01  0.11254449683E+02  0.51100000000E-03 0. -1.
        -11    1    3    3    0    0 -0.42235192984E+01 -0.11318339560E+02  0.17345588591E+02  0.21137936737E+02  0.51100000000E-03 0.  1.
         12    1    3    3    0    0 -0.22585188781E+02  0.14171624496E+02 -0.36330118275E+01  0.26909560905E+02  0.00000000000E+00 0. -1.
</event>
<event>
 7    1  0.6672802E-013  0.5930198E+02  0.7816164E-02  0.1266605E+00
        -11   -1    0    0    0    0  0.00000000000E+00  0.00000000000E+00  0.45593999997E+02  0.45594000000E+02  0.51100000000E-03 0.  1.
         11   -1    0    0    0    0 -0.00000000000E+00 -0.00000000000E+00 -0.45593999997E+02  0.45594000000E+02  0.51100000000E-03 0. -1.
    9900012    2    1    2    0    0 -0.39336601206E+01  0.13572216927E+02  0.28583900153E+02  0.59301982654E+02  0.50000070444E+02 0.  0.
         12    1    1    2    0    0  0.39336601206E+01 -0.13572216927E+02 -0.28583900153E+02  0.31886017346E+02  0.00000000000E+00 0. -1.
         11    1    3    3    0    0 -0.38725530147E+01  0.26344277728E+02  0.29065927089E+02  0.39418850233E+02  0.51100000000E-03 0.  1.
        -11    1    3    3    0    0  0.59827136862E+00  0.31176987523E+01 -0.22363945026E+01  0.38832247904E+01  0.51100000000E-03 0. -1.
        -12    1    3    3    0    0 -0.65937847452E+00 -0.15889759553E+02  0.17543675661E+01  0.15999907630E+02  0.00000000000E+00 0.  1.
</event>
<event>
 7    1  0.6672802E-013  0.5930194E+02  0.7816164E-02  0.1266605E+00
        -11   -1    0    0    0    0  0.00000000000E+00  0.00000000000E+00  0.45593999997E+02  0.45594000000E+02  0.51100000000E-03 0.  1.
         11   -1    0    0    0    0 -0.00000000000E+00 -0.00000000000E+00 -0.45593999997E+02  0.45594000000E+02  0.51100000000E-03 0. -1.
    9900012    2    1    2    0    0 -0.23049411338E+02 -0.21614064103E+02  0.42752558463E+01  0.59301938114E+02  0.49999989214E+02 0.  0.
         12    1    1    2    0    0  0.23049411338E+02  0.21614064103E+02 -0.42752558463E+01  0.31886061886E+02  0.00000000000E+00 0. -1.
         11    1    3    3    0    0  0.95804483005E+01 -0.10632202533E+02 -0.65899778213E+01  0.15756158424E+02  0.51100000000E-03 0. -1.
        -11    1    3    3    0    0 -0.19051465022E+02  0.13206776187E+01  0.15557085519E+02  0.24631796909E+02  0.51100000000E-03 0.  1.
         12    1    3    3    0    0 -0.13578394616E+02 -0.12302539189E+02 -0.46918518511E+01  0.18913982781E+02  0.00000000000E+00 0. -1.
</event>
<event>
 7    1  0.6672802E-013  0.5930195E+02  0.7816164E-02  0.1266605E+00
        -11   -1    0    0    0    0  0.00000000000E+00  0.00000000000E+00  0.45593999997E+02  0.45594000000E+02  0.51100000000E-03 0.  1.
         11   -1    0    0    0    0 -0.00000000000E+00 -0.00000000000E+00 -0.45593999997E+02  0.45594000000E+02  0.51100000000E-03 0. -1.
    9900012    2    1    2    0    0 -0.11477281462E+02  0.76108237900E+01  0.28758782503E+02  0.59301949765E+02  0.50000010463E+02 0.  0.
         12    1    1    2    0    0  0.11477281462E+02 -0.76108237900E+01 -0.28758782503E+02  0.31886050235E+02  0.00000000000E+00 0. -1.
         11    1    3    3    0    0  0.25631301084E+01  0.18248013495E+02  0.15213396347E+02  0.23895754040E+02  0.51100000000E-03 0.  1.
        -11    1    3    3    0    0 -0.34388579898E+00  0.86994772612E+01  0.58612744769E+01  0.10495413323E+02  0.51100000000E-03 0. -1.
        -12    1    3    3    0    0 -0.13696525772E+02 -0.19336666966E+02  0.76841116791E+01  0.24910782402E+02  0.00000000000E+00 0.  1.
</event>
<event>
 7    1  0.6672802E-013  0.5930195E+02  0.7816164E-02  0.1266605E+00
        -11   -1    0    0    0    0  0.00000000000E+00  0.00000000000E+00  0.45593999997E+02  0.45594000000E+02  0.51100000000E-03 0.  1.
         11   -1    0    0    0    0 -0.00000000000E+00 -0.00000000000E+00 -0.45593999997E+02  0.45594000000E+02  0.51100000000E-03 0. -1.
    9900012    2    1    2    0    0  0.62643087974E+01  0.15386888059E+02  0.27216218573E+02  0.59301945960E+02  0.50000003524E+02 0.  0.
         12    1    1    2    0    0 -0.62643087974E+01 -0.15386888059E+02 -0.27216218573E+02  0.31886054040E+02  0.00000000000E+00 0. -1.
         11    1    3    3    0    0  0.12148263867E+02  0.12261473057E+02  0.74736170646E+01  0.18809013499E+02  0.51100000000E-03 0. -1.
        -11    1    3    3    0    0 -0.10128098647E+02  0.17579980786E+02  0.11435512173E+02  0.23289590928E+02  0.51100000000E-03 0.  1.
         12    1    3    3    0    0  0.42441435765E+01 -0.14454565784E+02  0.83070893345E+01  0.17203341534E+02  0.00000000000E+00 0. -1.
</event>
<event>
 7    1  0.6672802E-013  0.5930194E+02  0.7816164E-02  0.1266605E+00
        -11   -1    0    0    0    0  0.00000000000E+00  0.00000000000E+00  0.45593999997E+02  0.45594000000E+02  0.51100000000E-03 0.  1.
         11   -1    0    0    0    0 -0.00000000000E+00 -0.00000000000E+00 -0.45593999997E+02  0.45594000000E+02  0.51100000000E-03 0. -1.
    9900012    2    1    2    0    0  0.18887687321E+02  0.20682450612E+02  0.15238517777E+02  0.59301938473E+02  0.49999989870E+02 0.  0.
         12    1    1    2    0    0 -0.18887687321E+02 -0.20682450612E+02 -0.15238517777E+02  0.31886061527E+02  0.00000000000E+00 0. -1.
         11    1    3    3    0    0  0.20816083841E+02  0.10682641952E+02  0.12140382154E+02  0.26359382858E+02  0.51100000000E-03 0. -1.
        -11    1    3    3    0    0 -0.17223802017E+01  0.17241745410E+02  0.12286498269E+02  0.21241525800E+02  0.51100000000E-03 0.  1.
         12    1    3    3    0    0 -0.20601631872E+00 -0.72419367496E+01 -0.91883626462E+01  0.11701029815E+02  0.00000000000E+00 0. -1.
</event>
<event>
 7    1  0.6672802E-013  0.5930194E+02  0.7816164E-02  0.1266605E+00
        -11   -1    0    0    0    0  0.00000000000E+00  0.00000000000E+00  0.45593999997E+02  0.45594000000E+02  0.51100000000E-03 0. -1.
         11   -1    0    0    0    0 -0.00000000000E+00 -0.00000000000E+00 -0.45593999997E+02  0.45594000000E+02  0.51100000000E-03 0.  1.
    9900012    2    1    2    0    0  0.23829957356E+02 -0.43077714170E+01 -0.20743599177E+02  0.59301942405E+02  0.49999997040E+02 0.  0.
         12    1    1    2    0    0 -0.23829957356E+02  0.43077714170E+01  0.20743599177E+02  0.31886057595E+02  0.00000000000E+00 0. -1.
         11    1    3    3    0    0 -0.16770331297E+01 -0.11093998773E+02  0.18888655066E+01  0.11377919936E+02  0.51100000000E-03 0. -1.
        -11    1    3    3    0    0  0.27599388266E+02 -0.59784074450E+01 -0.10320420186E+02  0.30066237898E+02  0.51100000000E-03 0.  1.
        -12    1    3    3    0    0 -0.20923977810E+01  0.12764634801E+02 -0.12312044497E+02  0.17857784571E+02  0.00000000000E+00 0.  1.
</event>
<event>
 7    1  0.6672802E-013  0.5930192E+02  0.7816164E-02  0.1266605E+00
        -11   -1    0    0    0    0  0.00000000000E+00  0.00000000000E+00  0.45593999997E+02  0.45594000000E+02  0.51100000000E-03 0.  1.
         11   -1    0    0    0    0 -0.00000000000E+00 -0.00000000000E+00 -0.45593999997E+02  0.45594000000E+02  0.51100000000E-03 0. -1.
    9900012    2    1    2    0    0  0.23265246852E+01 -0.69032225399E+01  0.31042787154E+02  0.59301924155E+02  0.49999963756E+02 0.  0.
         12    1    1    2    0    0 -0.23265246852E+01  0.69032225399E+01 -0.31042787154E+02  0.31886075845E+02  0.00000000000E+00 0. -1.
         11    1    3    3    0    0 -0.20797053954E+01  0.87148847727E+01  0.15288373327E+02  0.17720292052E+02  0.51100000000E-03 0. -1.
        -11    1    3    3    0    0  0.15081219652E+02 -0.14493344692E+02  0.20995539798E+02  0.29636344549E+02  0.51100000000E-03 0.  1.
         12    1    3    3    0    0 -0.10674989572E+02 -0.11247626204E+01 -0.52411259711E+01  0.11945287554E+02  0.00000000000E+00 0. -1.
</event>
<event>
 7    1  0.6672802E-013  0.5930195E+02  0.7816164E-02  0.1266605E+00
        -11   -1    0    0    0    0  0.00000000000E+00  0.00000000000E+00  0.45593999997E+02  0.45594000000E+02  0.51100000000E-03 0. -1.
         11   -1    0    0    0    0 -0.00000000000E+00 -0.00000000000E+00 -0.45593999997E+02  0.45594000000E+02  0.51100000000E-03 0.  1.
    9900012    2    1    2    0    0 -0.21447610388E+02 -0.19838338436E+02 -0.12773432202E+02  0.59301949234E+02  0.50000009495E+02 0.  0.
         12    1    1    2    0    0  0.21447610388E+02  0.19838338436E+02  0.12773432202E+02  0.31886050766E+02  0.00000000000E+00 0. -1.
         11    1    3    3    0    0 -0.16063735808E+02 -0.86730582211E+01  0.38730461735E+01  0.18661887202E+02  0.51100000000E-03 0. -1.
        -11    1    3    3    0    0 -0.18060787238E+02 -0.73410691866E+01 -0.16237552541E+00  0.19496402195E+02  0.51100000000E-03 0.  1.
         12    1    3    3    0    0  0.12676912659E+02 -0.38242110286E+01 -0.16484102850E+02  0.21143659837E+02  0.00000000000E+00 0. -1.
</event>
<event>
 7    1  0.6672802E-013  0.5930197E+02  0.7816164E-02  0.1266605E+00
        -11   -1    0    0    0    0  0.00000000000E+00  0.00000000000E+00  0.45593999997E+02  0.45594000000E+02  0.51100000000E-03 0. -1.
         11   -1    0    0    0    0 -0.00000000000E+00 -0.00000000000E+00 -0.45593999997E+02  0.45594000000E+02  0.51100000000E-03 0.  1.
    9900012    2    1    2    0    0 -0.31294338055E+02 -0.31712464949E+01 -0.52274899574E+01  0.59301967793E+02  0.50000043342E+02 0.  0.
         12    1    1    2    0    0  0.31294338055E+02  0.31712464949E+01  0.52274899574E+01  0.31886032207E+02  0.00000000000E+00 0. -1.
         11    1    3    3    0    0 -0.16118901201E+02 -0.31343140522E+00 -0.12677184422E+02  0.20509222811E+02  0.51100000000E-03 0.  1.
        -11    1    3    3    0    0 -0.15574380842E+02 -0.17365301420E+02  0.25042916656E+01  0.23460317752E+02  0.51100000000E-03 0. -1.
         12    1    3    3    0    0  0.39894398831E+00  0.14507486330E+02  0.49454027990E+01  0.15332427230E+02  0.00000000000E+00 0. -1.
</event>
<event>
 7    1  0.6672802E-013  0.5930194E+02  0.7816164E-02  0.1266605E+00
        -11   -1    0    0    0    0  0.00000000000E+00  0.00000000000E+00  0.45593999997E+02  0.45594000000E+02  0.51100000000E-03 0.  1.
         11   -1    0    0    0    0 -0.00000000000E+00 -0.00000000000E+00 -0.45593999997E+02  0.45594000000E+02  0.51100000000E-03 0. -1.
    9900012    2    1    2    0    0  0.28374432635E+02 -0.29330569878E+01 -0.14248138377E+02  0.59301941952E+02  0.49999996214E+02 0.  0.
         12    1    1    2    0    0 -0.28374432635E+02  0.29330569878E+01  0.14248138377E+02  0.31886058048E+02  0.00000000000E+00 0. -1.
         11    1    3    3    0    0 -0.11331698458E+02  0.55156249279E+01 -0.11065344337E+02  0.16771146468E+02  0.51100000000E-03 0. -1.
        -11    1    3    3    0    0  0.18717475534E+01  0.10907540212E+01 -0.27617489033E+01  0.35100485046E+01  0.51100000000E-03 0.  1.
        -12    1    3    3    0    0  0.37834383540E+02 -0.95394359369E+01 -0.42104513635E+00  0.39020746979E+02  0.00000000000E+00 0.  1.
</event>
<event>
 7    1  0.6672802E-013  0.5930194E+02  0.7816164E-02  0.1266605E+00
        -11   -1    0    0    0    0  0.00000000000E+00  0.00000000000E+00  0.45593999997E+02  0.45594000000E+02  0.51100000000E-03 0.  1.
         11   -1    0    0    0    0 -0.00000000000E+00 -0.00000000000E+00 -0.45593999997E+02  0.45594000000E+02  0.51100000000E-03 0. -1.
    9900012    2    1    2    0    0 -0.25247448895E+02 -0.18025335644E+02  0.73739081172E+01  0.59301938441E+02  0.49999989811E+02 0.  0.
         12    1    1    2    0    0  0.25247448895E+02  0.18025335644E+02 -0.73739081172E+01  0.31886061559E+02  0.00000000000E+00 0. -1.
         11    1    3    3    0    0 -0.10496764586E+02 -0.46341228639E+01 -0.78428216823E+01  0.13898453644E+02  0.51100000000E-03 0. -1.
        -11    1    3    3    0    0 -0.86314030781E+01 -0.25277269479E+02  0.22919328522E+01  0.26808476791E+02  0.51100000000E-03 0.  1.
         12    1    3    3    0    0 -0.61192812313E+01  0.11886056698E+02  0.12924796947E+02  0.18595008006E+02  0.00000000000E+00 0. -1.
</event>
<event>
 7    1  0.6672802E-013  0.5930195E+02  0.7816164E-02  0.1266605E+00
        -11   -1    0    0    0    0  0.00000000000E+00  0.00000000000E+00  0.45593999997E+02  0.45594000000E+02  0.51100000000E-03 0.  1.
         11   -1    0    0    0    0 -0.00000000000E+00 -0.00000000000E+00 -0.45593999997E+02  0.45594000000E+02  0.51100000000E-03 0. -1.
    9900012    2    1    2    0    0 -0.11072524580E+01 -0.31791253988E+02  0.21933086304E+01  0.59301945982E+02  0.50000003563E+02 0.  0.
         12    1    1    2    0    0  0.11072524580E+01  0.31791253988E+02 -0.21933086304E+01  0.31886054018E+02  0.00000000000E+00 0. -1.
         11    1    3    3    0    0  0.57033939478E+01  0.40062460020E+01 -0.89164518832E+01  0.11317324065E+02  0.51100000000E-03 0. -1.
        -11    1    3    3    0    0 -0.44348241253E+01 -0.39164335994E+02  0.38051499498E+01  0.39597879302E+02  0.51100000000E-03 0.  1.
         12    1    3    3    0    0 -0.23758222805E+01  0.33668360037E+01  0.73046105637E+01  0.83867426139E+01  0.00000000000E+00 0. -1.
</event>
<event>
 7    1  0.6672802E-013  0.5930194E+02  0.7816164E-02  0.1266605E+00
        -11   -1    0    0    0    0  0.00000000000E+00  0.00000000000E+00  0.45593999997E+02  0.45594000000E+02  0.51100000000E-03 0. -1.
         11   -1    0    0    0    0 -0.00000000000E+00 -0.00000000000E+00 -0.45593999997E+02  0.45594000000E+02  0.51100000000E-03 0.  1.
    9900012    2    1    2    0    0 -0.12162499205E+02  0.25891329878E+02 -0.14086634628E+02  0.59301943096E+02  0.49999998300E+02 0.  0.
         12    1    1    2    0    0  0.12162499205E+02 -0.25891329878E+02  0.14086634628E+02  0.31886056904E+02  0.00000000000E+00 0. -1.
         11    1    3    3    0    0 -0.31810096480E+01  0.18788889062E+02 -0.13339578525E+02  0.23261245239E+02  0.51100000000E-03 0. -1.
        -11    1    3    3    0    0  0.11345023511E+02 -0.48189502523E+01  0.12630030041E+01  0.12390601957E+02  0.51100000000E-03 0.  1.
         12    1    3    3    0    0 -0.20326513068E+02  0.11921391068E+02 -0.20100591079E+01  0.23650095900E+02  0.00000000000E+00 0. -1.
</event>
<event>
 7    1  0.6672802E-013  0.5930195E+02  0.7816164E-02  0.1266605E+00
        -11   -1    0    0    0    0  0.00000000000E+00  0.00000000000E+00  0.45593999997E+02  0.45594000000E+02  0.51100000000E-03 0.  1.
         11   -1    0    0    0    0 -0.00000000000E+00 -0.00000000000E+00 -0.45593999997E+02  0.45594000000E+02  0.51100000000E-03 0. -1.
    9900012    2    1    2    0    0 -0.54712700635E+01  0.30920860715E+02  0.55394853439E+01  0.59301947856E+02  0.50000006981E+02 0.  0.
         12    1    1    2    0    0  0.54712700635E+01 -0.30920860715E+02 -0.55394853439E+01  0.31886052144E+02  0.00000000000E+00 0. -1.
         11    1    3    3    0    0  0.12098900382E+02  0.13846784076E+02  0.17108562962E+02  0.25116125230E+02  0.51100000000E-03 0. -1.
        -11    1    3    3    0    0  0.15598744529E+01 -0.35570000793E+01 -0.25247906740E+01  0.46324967438E+01  0.51100000000E-03 0.  1.
         12    1    3    3    0    0 -0.19130044898E+02  0.20631076718E+02 -0.90442869438E+01  0.29553325882E+02  0.00000000000E+00 0. -1.
</event>
<event>
 7    1  0.7541601E-013  0.5930195E+02  0.7816164E-02  0.1266605E+00
        -11   -1    0    0    0    0  0.00000000000E+00  0.00000000000E+00  0.45593999997E+02  0.45594000000E+02  0.51100000000E-03 0. -1.
         11   -1    0    0    0    0 -0.00000000000E+00 -0.00000000000E+00 -0.45593999997E+02  0.45594000000E+02  0.51100000000E-03 0.  1.
    9900012    2    1    2    0    0 -0.11723460419E+01 -0.13182549344E+02 -0.29009756242E+02  0.59301953527E+02  0.50000017325E+02 0.  0.
         12    1    1    2    0    0  0.11723460419E+01  0.13182549344E+02  0.29009756242E+02  0.31886046473E+02  0.00000000000E+00 0. -1.
         11    1    3    3    0    0  0.18365709272E+01  0.71903576951E+01  0.41926230649E+01  0.85236333203E+01  0.51100000000E-03 0. -1.
        -11    1    3    3    0    0 -0.14742200613E+02 -0.87826936354E+01 -0.46070099474E+01  0.17767744013E+02  0.51100000000E-03 0.  1.
        -12    1    3    3    0    0  0.11733283644E+02 -0.11590213404E+02 -0.28595369359E+02  0.33010576193E+02  0.00000000000E+00 0.  1.
</event>
<event>
 7    1  0.6672802E-013  0.5930176E+02  0.7816164E-02  0.1266605E+00
        -11   -1    0    0    0    0  0.00000000000E+00  0.00000000000E+00  0.45593999997E+02  0.45594000000E+02  0.51100000000E-03 0. -1.
         11   -1    0    0    0    0 -0.00000000000E+00 -0.00000000000E+00 -0.45593999997E+02  0.45594000000E+02  0.51100000000E-03 0.  1.
    9900012    2    1    2    0    0  0.14070466085E+02  0.92132063923E+01 -0.27090050277E+02  0.59301764539E+02  0.49999672654E+02 0.  0.
         12    1    1    2    0    0 -0.14070466085E+02 -0.92132063923E+01  0.27090050277E+02  0.31886235461E+02  0.00000000000E+00 0. -1.
         11    1    3    3    0    0 -0.61062711136E+00 -0.50613101853E+00  0.13926952295E+01  0.16026959601E+01  0.51100000000E-03 0. -1.
        -11    1    3    3    0    0 -0.14201271920E+02 -0.60451180271E+01 -0.16721264115E+02  0.22755664130E+02  0.51100000000E-03 0.  1.
        -12    1    3    3    0    0  0.28882365117E+02  0.15764455438E+02 -0.11761481392E+02  0.34943404449E+02  0.00000000000E+00 0.  1.
</event>
<event>
 7    1  0.6672802E-013  0.5930197E+02  0.7816164E-02  0.1266605E+00
        -11   -1    0    0    0    0  0.00000000000E+00  0.00000000000E+00  0.45593999997E+02  0.45594000000E+02  0.51100000000E-03 0. -1.
         11   -1    0    0    0    0 -0.00000000000E+00 -0.00000000000E+00 -0.45593999997E+02  0.45594000000E+02  0.51100000000E-03 0.  1.
    9900012    2    1    2    0    0  0.22511403631E+02  0.15455456424E+02 -0.16464646303E+02  0.59301968503E+02  0.50000044637E+02 0.  0.
         12    1    1    2    0    0 -0.22511403631E+02 -0.15455456424E+02  0.16464646303E+02  0.31886031497E+02  0.00000000000E+00 0. -1.
         11    1    3    3    0    0  0.52390353828E+01  0.64131637181E+01  0.12861498733E+01  0.83803545495E+01  0.51100000000E-03 0. -1.
        -11    1    3    3    0    0  0.31450441010E+02  0.20105985801E+01 -0.14824795030E+02  0.34827392872E+02  0.51100000000E-03 0.  1.
         12    1    3    3    0    0 -0.14178072761E+02  0.70316941261E+01 -0.29260011465E+01  0.16094221081E+02  0.00000000000E+00 0. -1.
</event>
<event>
 7    1  0.6672802E-013  0.5930193E+02  0.7816164E-02  0.1266605E+00
        -11   -1    0    0    0    0  0.00000000000E+00  0.00000000000E+00  0.45593999997E+02  0.45594000000E+02  0.51100000000E-03 0. -1.
         11   -1    0    0    0    0 -0.00000000000E+00 -0.00000000000E+00 -0.45593999997E+02  0.45594000000E+02  0.51100000000E-03 0.  1.
    9900012    2    1    2    0    0 -0.23099875428E+02  0.19699961760E+02 -0.97482771728E+01  0.59301927084E+02  0.49999969099E+02 0.  0.
         12    1    1    2    0    0  0.23099875428E+02 -0.19699961760E+02  0.97482771728E+01  0.31886072916E+02  0.00000000000E+00 0. -1.
         11    1    3    3    0    0 -0.12091013537E+02 -0.55763980450E+01  0.47115738891E+01  0.14124013321E+02  0.51100000000E-03 0.  1.
        -11    1    3    3    0    0  0.87366143456E+01  0.42573401484E+01  0.44532452166E+01  0.10690405445E+02  0.51100000000E-03 0. -1.
         12    1    3    3    0    0 -0.19745476236E+02  0.21019019657E+02 -0.18913096279E+02  0.34487508318E+02  0.00000000000E+00 0. -1.
</event>
<event>
 7    1  0.6672802E-013  0.5930194E+02  0.7816164E-02  0.1266605E+00
        -11   -1    0    0    0    0  0.00000000000E+00  0.00000000000E+00  0.45593999997E+02  0.45594000000E+02  0.51100000000E-03 0. -1.
         11   -1    0    0    0    0 -0.00000000000E+00 -0.00000000000E+00 -0.45593999997E+02  0.45594000000E+02  0.51100000000E-03 0.  1.
    9900012    2    1    2    0    0 -0.11080741855E+02 -0.29897617886E+02  0.26553966467E+00  0.59301938678E+02  0.49999990243E+02 0.  0.
         12    1    1    2    0    0  0.11080741855E+02  0.29897617886E+02 -0.26553966467E+00  0.31886061322E+02  0.00000000000E+00 0. -1.
         11    1    3    3    0    0  0.27555077516E+01 -0.31540875604E+01 -0.52636997366E+01  0.67266355993E+01  0.51100000000E-03 0. -1.
        -11    1    3    3    0    0  0.22065278152E+01 -0.91536713489E+01 -0.17232998729E+02  0.19637584109E+02  0.51100000000E-03 0.  1.
         12    1    3    3    0    0 -0.16042777422E+02 -0.17589858977E+02  0.22762238130E+02  0.32937718970E+02  0.00000000000E+00 0. -1.
</event>
<event>
 7    1  0.6672802E-013  0.5930194E+02  0.7816164E-02  0.1266605E+00
        -11   -1    0    0    0    0  0.00000000000E+00  0.00000000000E+00  0.45593999997E+02  0.45594000000E+02  0.51100000000E-03 0.  1.
         11   -1    0    0    0    0 -0.00000000000E+00 -0.00000000000E+00 -0.45593999997E+02  0.45594000000E+02  0.51100000000E-03 0. -1.
    9900012    2    1    2    0    0 -0.23677816722E+02  0.13165890984E+02 -0.16814909777E+02  0.59301939081E+02  0.49999990979E+02 0.  0.
         12    1    1    2    0    0  0.23677816722E+02 -0.13165890984E+02  0.16814909777E+02  0.31886060919E+02  0.00000000000E+00 0. -1.
         11    1    3    3    0    0 -0.68143370846E+01 -0.13928973185E+02 -0.47612607518E+01  0.16221007617E+02  0.51100000000E-03 0. -1.
        -11    1    3    3    0    0 -0.40103551247E+01 -0.51992753715E+01 -0.12636127299E+01  0.66867129449E+01  0.51100000000E-03 0.  1.
        -12    1    3    3    0    0 -0.12853124512E+02  0.32294139541E+02 -0.10790036295E+02  0.36394218519E+02  0.00000000000E+00 0.  1.
</event>
<event>
 7    1  0.6672802E-013  0.5930208E+02  0.7816164E-02  0.1266604E+00
        -11   -1    0    0    0    0  0.00000000000E+00  0.00000000000E+00  0.45593999997E+02  0.45594000000E+02  0.51100000000E-03 0.  1.
         11   -1    0    0    0    0 -0.00000000000E+00 -0.00000000000E+00 -0.45593999997E+02  0.45594000000E+02  0.51100000000E-03 0. -1.
    9900012    2    1    2    0    0 -0.38097759479E+01  0.20340959155E+02  0.24257844328E+02  0.59302077973E+02  0.50000244283E+02 0.  0.
         12    1    1    2    0    0  0.38097759479E+01 -0.20340959155E+02 -0.24257844328E+02  0.31885922027E+02  0.00000000000E+00 0. -1.
         11    1    3    3    0    0  0.19975546582E+01  0.24320271885E+01  0.63509158492E+01  0.70879555051E+01  0.51100000000E-03 0. -1.
        -11    1    3    3    0    0 -0.89940378270E+01  0.22805654885E+02  0.30024543697E+02  0.38761628393E+02  0.51100000000E-03 0.  1.
         12    1    3    3    0    0  0.31867072210E+01 -0.48967229189E+01 -0.12117615219E+02  0.13452494075E+02  0.00000000000E+00 0. -1.
</event>
<event>
 7    1  0.6672802E-013  0.5930196E+02  0.7816164E-02  0.1266605E+00
        -11   -1    0    0    0    0  0.00000000000E+00  0.00000000000E+00  0.45593999997E+02  0.45594000000E+02  0.51100000000E-03 0. -1.
         11   -1    0    0    0    0 -0.00000000000E+00 -0.00000000000E+00 -0.45593999997E+02  0.45594000000E+02  0.51100000000E-03 0.  1.
    9900012    2    1    2    0    0 -0.98466490840E+01 -0.19616958505E+02 -0.23128725728E+02  0.59301960532E+02  0.50000030099E+02 0.  0.
         12    1    1    2    0    0  0.98466490840E+01  0.19616958505E+02  0.23128725728E+02  0.31886039468E+02  0.00000000000E+00 0. -1.
         11    1    3    3    0    0 -0.18820286900E+01 -0.15640917330E+02  0.38112590104E+01  0.16208208489E+02  0.51100000000E-03 0. -1.
        -11    1    3    3    0    0 -0.35703272025E+01  0.98022694154E+01  0.21095266915E+01  0.10643393498E+02  0.51100000000E-03 0.  1.
        -12    1    3    3    0    0 -0.43942931915E+01 -0.13778310590E+02 -0.29049511430E+02  0.32450358545E+02  0.00000000000E+00 0.  1.
</event>
<event>
 7    1  0.6672802E-013  0.5930191E+02  0.7816164E-02  0.1266605E+00
        -11   -1    0    0    0    0  0.00000000000E+00  0.00000000000E+00  0.45593999997E+02  0.45594000000E+02  0.51100000000E-03 0.  1.
         11   -1    0    0    0    0 -0.00000000000E+00 -0.00000000000E+00 -0.45593999997E+02  0.45594000000E+02  0.51100000000E-03 0. -1.
    9900012    2    1    2    0    0 -0.13331183080E-01 -0.22608009089E+02 -0.22485566064E+02  0.59301906889E+02  0.49999932268E+02 0.  0.
         12    1    1    2    0    0  0.13331183080E-01  0.22608009089E+02  0.22485566064E+02  0.31886093111E+02  0.00000000000E+00 0. -1.
         11    1    3    3    0    0  0.12057570379E+00 -0.21507163262E+02 -0.44197424379E+01  0.21956929056E+02  0.51100000000E-03 0. -1.
        -11    1    3    3    0    0  0.10121327880E+02  0.17276923003E+01  0.53849053041E+01  0.11594110752E+02  0.51100000000E-03 0.  1.
         12    1    3    3    0    0 -0.10255234767E+02 -0.28285381269E+01 -0.23450728930E+02  0.25750867081E+02  0.00000000000E+00 0. -1.
</event>
<event>
 7    1  0.6672802E-013  0.5930197E+02  0.7816164E-02  0.1266605E+00
        -11   -1    0    0    0    0  0.00000000000E+00  0.00000000000E+00  0.45593999997E+02  0.45594000000E+02  0.51100000000E-03 0. -1.
         11   -1    0    0    0    0 -0.00000000000E+00 -0.00000000000E+00 -0.45593999997E+02  0.45594000000E+02  0.51100000000E-03 0.  1.
    9900012    2    1    2    0    0 -0.11102229910E+02 -0.16951358945E+02  0.24619320585E+02  0.59301968182E+02  0.50000044052E+02 0.  0.
         12    1    1    2    0    0  0.11102229910E+02  0.16951358945E+02 -0.24619320585E+02  0.31886031818E+02  0.00000000000E+00 0. -1.
         11    1    3    3    0    0 -0.38780462265E+01 -0.59417747126E+01  0.23268728424E+02  0.24326480469E+02  0.51100000000E-03 0. -1.
        -11    1    3    3    0    0 -0.92615051179E+01  0.97321548928E+01 -0.28032712879E+01  0.13724017126E+02  0.51100000000E-03 0.  1.
         12    1    3    3    0    0  0.20373214348E+01 -0.20741739125E+02  0.41538634481E+01  0.21251470587E+02  0.00000000000E+00 0. -1.
</event>
<event>
 7    1  0.6672802E-013  0.5930168E+02  0.7816164E-02  0.1266606E+00
        -11   -1    0    0    0    0  0.00000000000E+00  0.00000000000E+00  0.45593999997E+02  0.45594000000E+02  0.51100000000E-03 0.  1.
         11   -1    0    0    0    0 -0.00000000000E+00 -0.00000000000E+00 -0.45593999997E+02  0.45594000000E+02  0.51100000000E-03 0. -1.
    9900012    2    1    2    0    0 -0.19389102634E+02  0.11389977743E+02  0.22606817904E+02  0.59301684601E+02  0.49999526866E+02 0.  0.
         12    1    1    2    0    0  0.19389102634E+02 -0.11389977743E+02 -0.22606817904E+02  0.31886315399E+02  0.00000000000E+00 0. -1.
         11    1    3    3    0    0 -0.36085387037E+01 -0.86138906333E-01 -0.69824123328E+01  0.78602197001E+01  0.51100000000E-03 0. -1.
        -11    1    3    3    0    0 -0.26287647802E+02  0.15516495910E+02  0.18808759397E+02  0.35854867210E+02  0.51100000000E-03 0.  1.
         12    1    3    3    0    0  0.10507083872E+02 -0.40403792610E+01  0.10780470840E+02  0.15586597691E+02  0.00000000000E+00 0. -1.
</event>
<event>
 7    1  0.6672802E-013  0.5930196E+02  0.7816164E-02  0.1266605E+00
        -11   -1    0    0    0    0  0.00000000000E+00  0.00000000000E+00  0.45593999997E+02  0.45594000000E+02  0.51100000000E-03 0. -1.
         11   -1    0    0    0    0 -0.00000000000E+00 -0.00000000000E+00 -0.45593999997E+02  0.45594000000E+02  0.51100000000E-03 0.  1.
    9900012    2    1    2    0    0  0.29358164733E+02 -0.97223542559E+01  0.77648814842E+01  0.59301962409E+02  0.50000033523E+02 0.  0.
         12    1    1    2    0    0 -0.29358164733E+02  0.97223542559E+01 -0.77648814842E+01  0.31886037591E+02  0.00000000000E+00 0. -1.
         11    1    3    3    0    0  0.68463151559E+01 -0.22826376754E+02  0.16198593302E+01  0.23885967668E+02  0.51100000000E-03 0. -1.
        -11    1    3    3    0    0  0.50256186592E+01 -0.17657202541E+01 -0.71298513838E+01  0.88999658392E+01  0.51100000000E-03 0.  1.
        -12    1    3    3    0    0  0.17486230918E+02  0.14869742753E+02  0.13274873538E+02  0.26516028901E+02  0.00000000000E+00 0.  1.
</event>
<event>
 7    1  0.6672802E-013  0.5930194E+02  0.7816164E-02  0.1266605E+00
        -11   -1    0    0    0    0  0.00000000000E+00  0.00000000000E+00  0.45593999997E+02  0.45594000000E+02  0.51100000000E-03 0. -1.
         11   -1    0    0    0    0 -0.00000000000E+00 -0.00000000000E+00 -0.45593999997E+02  0.45594000000E+02  0.51100000000E-03 0.  1.
    9900012    2    1    2    0    0  0.10519810723E+02  0.11804005108E+02 -0.27689702246E+02  0.59301944040E+02  0.50000000022E+02 0.  0.
         12    1    1    2    0    0 -0.10519810723E+02 -0.11804005108E+02  0.27689702246E+02  0.31886055960E+02  0.00000000000E+00 0. -1.
         11    1    3    3    0    0  0.98121668086E+01  0.78330893961E+01 -0.13115532093E+01  0.12623631769E+02  0.51100000000E-03 0. -1.
        -11    1    3    3    0    0  0.17842199385E+02  0.97513684622E+01 -0.12329804550E+02  0.23779347054E+02  0.51100000000E-03 0.  1.
         12    1    3    3    0    0 -0.17134555471E+02 -0.57804527500E+01 -0.14048344486E+02  0.22898965217E+02  0.00000000000E+00 0. -1.
</event>
<event>
 7    1  0.6672802E-013  0.5930197E+02  0.7816164E-02  0.1266605E+00
        -11   -1    0    0    0    0  0.00000000000E+00  0.00000000000E+00  0.45593999997E+02  0.45594000000E+02  0.51100000000E-03 0.  1.
         11   -1    0    0    0    0 -0.00000000000E+00 -0.00000000000E+00 -0.45593999997E+02  0.45594000000E+02  0.51100000000E-03 0. -1.
    9900012    2    1    2    0    0  0.16641855569E+02 -0.20837348883E+02  0.17480627803E+02  0.59301971497E+02  0.50000050098E+02 0.  0.
         12    1    1    2    0    0 -0.16641855569E+02  0.20837348883E+02 -0.17480627803E+02  0.31886028503E+02  0.00000000000E+00 0. -1.
         11    1    3    3    0    0 -0.15619843685E+01  0.18783203442E+01  0.16760600180E+02  0.16937697634E+02  0.51100000000E-03 0. -1.
        -11    1    3    3    0    0  0.46513934712E+00  0.56822683623E+01  0.62145221236E+01  0.84335528599E+01  0.51100000000E-03 0.  1.
         12    1    3    3    0    0  0.17738700591E+02 -0.28397937590E+02 -0.54944945005E+01  0.33930721003E+02  0.00000000000E+00 0. -1.
</event>
<event>
 7    1  0.6672802E-013  0.5930191E+02  0.7816164E-02  0.1266605E+00
        -11   -1    0    0    0    0  0.00000000000E+00  0.00000000000E+00  0.45593999997E+02  0.45594000000E+02  0.51100000000E-03 0. -1.
         11   -1    0    0    0    0 -0.00000000000E+00 -0.00000000000E+00 -0.45593999997E+02  0.45594000000E+02  0.51100000000E-03 0.  1.
    9900012    2    1    2    0    0  0.30798625748E+02  0.62900038279E+01  0.53482246080E+01  0.59301905812E+02  0.49999930304E+02 0.  0.
         12    1    1    2    0    0 -0.30798625748E+02 -0.62900038279E+01 -0.53482246080E+01  0.31886094188E+02  0.00000000000E+00 0. -1.
         11    1    3    3    0    0  0.65569937290E+01  0.12524535912E+02  0.91923732334E+01  0.16862914710E+02  0.51100000000E-03 0. -1.
        -11    1    3    3    0    0  0.12078702798E+02  0.12873970380E+02 -0.80479350217E+01  0.19401119375E+02  0.51100000000E-03 0.  1.
         12    1    3    3    0    0  0.12162929221E+02 -0.19108502464E+02  0.42037863964E+01  0.23037871728E+02  0.00000000000E+00 0. -1.
</event>
<event>
 7    1  0.6672802E-013  0.5930194E+02  0.7816164E-02  0.1266605E+00
        -11   -1    0    0    0    0  0.00000000000E+00  0.00000000000E+00  0.45593999997E+02  0.45594000000E+02  0.51100000000E-03 0. -1.
         11   -1    0    0    0    0 -0.00000000000E+00 -0.00000000000E+00 -0.45593999997E+02  0.45594000000E+02  0.51100000000E-03 0.  1.
    9900012    2    1    2    0    0  0.19085420528E+02  0.14754193724E+02 -0.20851404204E+02  0.59301944012E+02  0.49999999971E+02 0.  0.
         12    1    1    2    0    0 -0.19085420528E+02 -0.14754193724E+02  0.20851404204E+02  0.31886055988E+02  0.00000000000E+00 0. -1.
         11    1    3    3    0    0  0.11262219181E+02 -0.22205408970E+01 -0.11196894262E+02  0.16035548763E+02  0.51100000000E-03 0. -1.
        -11    1    3    3    0    0  0.54606865363E+01 -0.38677396139E+01 -0.19117414740E+02  0.20254729171E+02  0.51100000000E-03 0.  1.
        -12    1    3    3    0    0  0.23625148103E+01  0.20842474235E+02  0.94629047979E+01  0.23011666078E+02  0.00000000000E+00 0.  1.
</event>
<event>
 7    1  0.6672802E-013  0.5930191E+02  0.7816164E-02  0.1266605E+00
        -11   -1    0    0    0    0  0.00000000000E+00  0.00000000000E+00  0.45593999997E+02  0.45594000000E+02  0.51100000000E-03 0. -1.
         11   -1    0    0    0    0 -0.00000000000E+00 -0.00000000000E+00 -0.45593999997E+02  0.45594000000E+02  0.51100000000E-03 0.  1.
    9900012    2    1    2    0    0 -0.16092455138E+02  0.20288444082E+02  0.18604692607E+02  0.59301911142E+02  0.49999940025E+02 0.  0.
         12    1    1    2    0    0  0.16092455138E+02 -0.20288444082E+02 -0.18604692607E+02  0.31886088858E+02  0.00000000000E+00 0. -1.
         11    1    3    3    0    0 -0.66584060737E+01 -0.51234433751E+01  0.12795816245E+02  0.15307415102E+02  0.51100000000E-03 0. -1.
        -11    1    3    3    0    0  0.54985595666E+01 -0.36615634953E+01 -0.63104738164E+01  0.91358242423E+01  0.51100000000E-03 0.  1.
        -12    1    3    3    0    0 -0.14932608631E+02  0.29073450952E+02  0.12119350179E+02  0.34858671798E+02  0.00000000000E+00 0.  1.
</event>
<event>
 7    1  0.6672802E-013  0.5930193E+02  0.7816164E-02  0.1266605E+00
        -11   -1    0    0    0    0  0.00000000000E+00  0.00000000000E+00  0.45593999997E+02  0.45594000000E+02  0.51100000000E-03 0. -1.
         11   -1    0    0    0    0 -0.00000000000E+00 -0.00000000000E+00 -0.45593999997E+02  0.45594000000E+02  0.51100000000E-03 0.  1.
    9900012    2    1    2    0    0  0.18212489096E+02  0.22408230243E+02 -0.13523979138E+02  0.59301928536E+02  0.49999971747E+02 0.  0.
         12    1    1    2    0    0 -0.18212489096E+02 -0.22408230243E+02  0.13523979138E+02  0.31886071464E+02  0.00000000000E+00 0. -1.
         11    1    3    3    0    0  0.55253301341E+01  0.15689443609E+02 -0.35255575098E+01  0.17003454645E+02  0.51100000000E-03 0. -1.
        -11    1    3    3    0    0  0.16187751085E+02  0.20264038605E+02 -0.11211946423E+02  0.28255659409E+02  0.51100000000E-03 0.  1.
         12    1    3    3    0    0 -0.35005921232E+01 -0.13545251971E+02  0.12135247941E+01  0.14042814483E+02  0.00000000000E+00 0. -1.
</event>
<event>
 7    1  0.6672802E-013  0.5930194E+02  0.7816164E-02  0.1266605E+00
        -11   -1    0    0    0    0  0.00000000000E+00  0.00000000000E+00  0.45593999997E+02  0.45594000000E+02  0.51100000000E-03 0.  1.
         11   -1    0    0    0    0 -0.00000000000E+00 -0.00000000000E+00 -0.45593999997E+02  0.45594000000E+02  0.51100000000E-03 0. -1.
    9900012    2    1    2    0    0 -0.24251786142E+02  0.15328893876E+02  0.13913907723E+02  0.59301938051E+02  0.49999989099E+02 0.  0.
         12    1    1    2    0    0  0.24251786142E+02 -0.15328893876E+02 -0.13913907723E+02  0.31886061949E+02  0.00000000000E+00 0. -1.
         11    1    3    3    0    0 -0.14392154347E+02  0.40032847612E+01 -0.94671167610E+01  0.17685776648E+02  0.51100000000E-03 0. -1.
        -11    1    3    3    0    0  0.52389104225E+01  0.14995347206E+02  0.32961429407E+01  0.16222551550E+02  0.51100000000E-03 0.  1.
         12    1    3    3    0    0 -0.15098542217E+02 -0.36697380914E+01  0.20084881543E+02  0.25393609853E+02  0.00000000000E+00 0. -1.
</event>
<event>
 7    1  0.6672802E-013  0.5930196E+02  0.7816164E-02  0.1266605E+00
        -11   -1    0    0    0    0  0.00000000000E+00  0.00000000000E+00  0.45593999997E+02  0.45594000000E+02  0.51100000000E-03 0. -1.
         11   -1    0    0    0    0 -0.00000000000E+00 -0.00000000000E+00 -0.45593999997E+02  0.45594000000E+02  0.51100000000E-03 0.  1.
    9900012    2    1    2    0    0  0.21045558960E+02 -0.18249966987E+02 -0.15515880850E+02  0.59301962217E+02  0.50000033173E+02 0.  0.
         12    1    1    2    0    0 -0.21045558960E+02  0.18249966987E+02  0.15515880850E+02  0.31886037783E+02  0.00000000000E+00 0. -1.
         11    1    3    3    0    0  0.73704300296E+01 -0.94590931490E+01 -0.79382264862E+01  0.14380998645E+02  0.51100000000E-03 0. -1.
        -11    1    3    3    0    0  0.24045683771E+02 -0.12214194637E+02 -0.15794051270E+02  0.31254335930E+02  0.51100000000E-03 0.  1.
         12    1    3    3    0    0 -0.10370554841E+02  0.34233207989E+01  0.82163969053E+01  0.13666627642E+02  0.00000000000E+00 0. -1.
</event>
<event>
 7    1  0.6672802E-013  0.5930194E+02  0.7816164E-02  0.1266605E+00
        -11   -1    0    0    0    0  0.00000000000E+00  0.00000000000E+00  0.45593999997E+02  0.45594000000E+02  0.51100000000E-03 0. -1.
         11   -1    0    0    0    0 -0.00000000000E+00 -0.00000000000E+00 -0.45593999997E+02  0.45594000000E+02  0.51100000000E-03 0.  1.
    9900012    2    1    2    0    0  0.49077398240E+01  0.13700548296E+02 -0.28371290749E+02  0.59301936076E+02  0.49999985498E+02 0.  0.
         12    1    1    2    0    0 -0.49077398240E+01 -0.13700548296E+02  0.28371290749E+02  0.31886063924E+02  0.00000000000E+00 0. -1.
         11    1    3    3    0    0  0.48580259232E+01  0.34117344631E+01  0.49637404506E+01  0.77381565918E+01  0.51100000000E-03 0. -1.
        -11    1    3    3    0    0  0.20807814031E+01 -0.66358351451E+01 -0.33803305094E+02  0.34511264753E+02  0.51100000000E-03 0.  1.
         12    1    3    3    0    0 -0.20310675023E+01  0.16924648978E+02  0.46827389411E+00  0.17052514731E+02  0.00000000000E+00 0. -1.
</event>
<event>
 7    1  0.6672802E-013  0.5930195E+02  0.7816164E-02  0.1266605E+00
        -11   -1    0    0    0    0  0.00000000000E+00  0.00000000000E+00  0.45593999997E+02  0.45594000000E+02  0.51100000000E-03 0.  1.
         11   -1    0    0    0    0 -0.00000000000E+00 -0.00000000000E+00 -0.45593999997E+02  0.45594000000E+02  0.51100000000E-03 0. -1.
    9900012    2    1    2    0    0  0.78340894326E+01  0.12151774655E+02  0.28419737677E+02  0.59301951732E+02  0.50000014051E+02 0.  0.
         12    1    1    2    0    0 -0.78340894326E+01 -0.12151774655E+02 -0.28419737677E+02  0.31886048268E+02  0.00000000000E+00 0. -1.
         11    1    3    3    0    0 -0.30065477834E+01 -0.77853155632E+01  0.52508055366E+01  0.98600926485E+01  0.51100000000E-03 0. -1.
        -11    1    3    3    0    0 -0.70481411157E+01 -0.78832267658E+01  0.63691695099E+01  0.12344548511E+02  0.51100000000E-03 0.  1.
        -12    1    3    3    0    0  0.17888778332E+02  0.27820316984E+02  0.16799762631E+02  0.37097310573E+02  0.00000000000E+00 0.  1.
</event>
<event>
 7    1  0.6672802E-013  0.5930193E+02  0.7816164E-02  0.1266605E+00
        -11   -1    0    0    0    0  0.00000000000E+00  0.00000000000E+00  0.45593999997E+02  0.45594000000E+02  0.51100000000E-03 0.  1.
         11   -1    0    0    0    0 -0.00000000000E+00 -0.00000000000E+00 -0.45593999997E+02  0.45594000000E+02  0.51100000000E-03 0. -1.
    9900012    2    1    2    0    0 -0.52887778780E+01  0.22519431882E+02  0.21945959985E+02  0.59301934965E+02  0.49999983473E+02 0.  0.
         12    1    1    2    0    0  0.52887778780E+01 -0.22519431882E+02 -0.21945959985E+02  0.31886065035E+02  0.00000000000E+00 0. -1.
         11    1    3    3    0    0 -0.52556351230E+01  0.23625940431E+01  0.22453265607E+02  0.23180869005E+02  0.51100000000E-03 0. -1.
        -11    1    3    3    0    0  0.76622760192E+01 -0.12157293692E+01  0.86585428052E+01  0.11625783219E+02  0.51100000000E-03 0.  1.
        -12    1    3    3    0    0 -0.76954187742E+01  0.21372567208E+02 -0.91658484270E+01  0.24495282741E+02  0.00000000000E+00 0.  1.
</event>
<event>
 7    1  0.6672802E-013  0.5930190E+02  0.7816164E-02  0.1266605E+00
        -11   -1    0    0    0    0  0.00000000000E+00  0.00000000000E+00  0.45593999997E+02  0.45594000000E+02  0.51100000000E-03 0.  1.
         11   -1    0    0    0    0 -0.00000000000E+00 -0.00000000000E+00 -0.45593999997E+02  0.45594000000E+02  0.51100000000E-03 0. -1.
    9900012    2    1    2    0    0 -0.84885205513E+01 -0.29785572861E+02  0.75820715102E+01  0.59301903654E+02  0.49999926368E+02 0.  0.
         12    1    1    2    0    0  0.84885205513E+01  0.29785572861E+02 -0.75820715102E+01  0.31886096346E+02  0.00000000000E+00 0. -1.
         11    1    3    3    0    0 -0.99981474674E+01 -0.47241699518E+01 -0.91557637849E+01  0.14356487915E+02  0.51100000000E-03 0. -1.
        -11    1    3    3    0    0 -0.92136597160E+01 -0.94996666940E+01 -0.67034300500E+01  0.14834795831E+02  0.51100000000E-03 0.  1.
         12    1    3    3    0    0  0.10723286632E+02 -0.15561736215E+02  0.23441265345E+02  0.30110619907E+02  0.00000000000E+00 0. -1.
</event>
<event>
 7    1  0.6672802E-013  0.5930197E+02  0.7816164E-02  0.1266605E+00
        -11   -1    0    0    0    0  0.00000000000E+00  0.00000000000E+00  0.45593999997E+02  0.45594000000E+02  0.51100000000E-03 0.  1.
         11   -1    0    0    0    0 -0.00000000000E+00 -0.00000000000E+00 -0.45593999997E+02  0.45594000000E+02  0.51100000000E-03 0. -1.
    9900012    2    1    2    0    0  0.52207061351E+01 -0.10554924656E+02  0.29632020028E+02  0.59301971430E+02  0.50000049975E+02 0.  0.
         12    1    1    2    0    0 -0.52207061351E+01  0.10554924656E+02 -0.29632020028E+02  0.31886028570E+02  0.00000000000E+00 0. -1.
         11    1    3    3    0    0  0.43766344161E+01 -0.12558672145E+02 -0.25127068060E+01  0.13534728317E+02  0.51100000000E-03 0. -1.
        -11    1    3    3    0    0 -0.66363362808E+01 -0.13131504925E+02  0.20599090883E+02  0.25314026276E+02  0.51100000000E-03 0.  1.
         12    1    3    3    0    0  0.74804079998E+01  0.15135252414E+02  0.11545635951E+02  0.20453216837E+02  0.00000000000E+00 0. -1.
</event>
<event>
 7    1  0.6672802E-013  0.5930195E+02  0.7816164E-02  0.1266605E+00
        -11   -1    0    0    0    0  0.00000000000E+00  0.00000000000E+00  0.45593999997E+02  0.45594000000E+02  0.51100000000E-03 0.  1.
         11   -1    0    0    0    0 -0.00000000000E+00 -0.00000000000E+00 -0.45593999997E+02  0.45594000000E+02  0.51100000000E-03 0. -1.
    9900012    2    1    2    0    0  0.63765419461E+01  0.16299758125E+01  0.31199411282E+02  0.59301947051E+02  0.50000005513E+02 0.  0.
         12    1    1    2    0    0 -0.63765419461E+01 -0.16299758125E+01 -0.31199411282E+02  0.31886052949E+02  0.00000000000E+00 0. -1.
         11    1    3    3    0    0 -0.15195433623E+02 -0.88650097943E+01  0.10307955747E+02  0.20389790425E+02  0.51100000000E-03 0. -1.
        -11    1    3    3    0    0  0.10240044713E+01 -0.17051793090E+01 -0.39623405781E+01  0.44335499040E+01  0.51100000000E-03 0.  1.
        -12    1    3    3    0    0  0.20547971098E+02  0.12200164916E+02  0.24853796113E+02  0.34478606722E+02  0.00000000000E+00 0.  1.
</event>
<event>
 7    1  0.6672802E-013  0.5930195E+02  0.7816164E-02  0.1266605E+00
        -11   -1    0    0    0    0  0.00000000000E+00  0.00000000000E+00  0.45593999997E+02  0.45594000000E+02  0.51100000000E-03 0.  1.
         11   -1    0    0    0    0 -0.00000000000E+00 -0.00000000000E+00 -0.45593999997E+02  0.45594000000E+02  0.51100000000E-03 0. -1.
    9900012    2    1    2    0    0 -0.71666169341E+01  0.40430102958E+01  0.30806068955E+02  0.59301949524E+02  0.50000010023E+02 0.  0.
         12    1    1    2    0    0  0.71666169341E+01 -0.40430102958E+01 -0.30806068955E+02  0.31886050476E+02  0.00000000000E+00 0. -1.
         11    1    3    3    0    0  0.83405342156E+01 -0.33421854689E+01 -0.55820532899E+01  0.10577997632E+02  0.51100000000E-03 0. -1.
        -11    1    3    3    0    0 -0.96421076272E+00  0.91991518763E+01 -0.26089899899E+00  0.92532246373E+01  0.51100000000E-03 0.  1.
        -12    1    3    3    0    0 -0.14542940387E+02 -0.18139561116E+01  0.36649021244E+02  0.39470727254E+02  0.00000000000E+00 0.  1.
</event>
<event>
 7    1  0.6672802E-013  0.5930191E+02  0.7816164E-02  0.1266605E+00
        -11   -1    0    0    0    0  0.00000000000E+00  0.00000000000E+00  0.45593999997E+02  0.45594000000E+02  0.51100000000E-03 0.  1.
         11   -1    0    0    0    0 -0.00000000000E+00 -0.00000000000E+00 -0.45593999997E+02  0.45594000000E+02  0.51100000000E-03 0. -1.
    9900012    2    1    2    0    0 -0.19277508360E+02 -0.99643527866E+01  0.23362616033E+02  0.59301913960E+02  0.49999945163E+02 0.  0.
         12    1    1    2    0    0  0.19277508360E+02  0.99643527866E+01 -0.23362616033E+02  0.31886086040E+02  0.00000000000E+00 0. -1.
         11    1    3    3    0    0 -0.28412708350E+02 -0.62806044656E+01  0.18151934215E+02  0.34296074182E+02  0.51100000000E-03 0. -1.
        -11    1    3    3    0    0 -0.65642164032E+01 -0.30658005927E+01  0.58040698619E+01  0.92830650911E+01  0.51100000000E-03 0.  1.
         12    1    3    3    0    0  0.15699416393E+02 -0.61794772829E+00 -0.59338804416E+00  0.15722774687E+02  0.00000000000E+00 0. -1.
</event>
<event>
 7    1  0.6672802E-013  0.5930193E+02  0.7816164E-02  0.1266605E+00
        -11   -1    0    0    0    0  0.00000000000E+00  0.00000000000E+00  0.45593999997E+02  0.45594000000E+02  0.51100000000E-03 0. -1.
         11   -1    0    0    0    0 -0.00000000000E+00 -0.00000000000E+00 -0.45593999997E+02  0.45594000000E+02  0.51100000000E-03 0.  1.
    9900012    2    1    2    0    0 -0.11476062100E+02  0.14919063451E+02 -0.25737969068E+02  0.59301929259E+02  0.49999973065E+02 0.  0.
         12    1    1    2    0    0  0.11476062100E+02 -0.14919063451E+02  0.25737969068E+02  0.31886070741E+02  0.00000000000E+00 0. -1.
         11    1    3    3    0    0  0.37535699799E+01  0.94650349152E+00 -0.45500042574E+01  0.59739179319E+01  0.51100000000E-03 0. -1.
        -11    1    3    3    0    0 -0.23902094531E+02 -0.40551925779E+01 -0.22770351505E+02  0.33260240794E+02  0.51100000000E-03 0.  1.
         12    1    3    3    0    0  0.86724624507E+01  0.18027752537E+02  0.15823866946E+01  0.20067770533E+02  0.00000000000E+00 0. -1.
</event>
<event>
 7    1  0.6672802E-013  0.5930195E+02  0.7816164E-02  0.1266605E+00
        -11   -1    0    0    0    0  0.00000000000E+00  0.00000000000E+00  0.45593999997E+02  0.45594000000E+02  0.51100000000E-03 0. -1.
         11   -1    0    0    0    0 -0.00000000000E+00 -0.00000000000E+00 -0.45593999997E+02  0.45594000000E+02  0.51100000000E-03 0.  1.
    9900012    2    1    2    0    0  0.77320213711E+01  0.20963785587E+02 -0.22747651720E+02  0.59301951022E+02  0.50000012756E+02 0.  0.
         12    1    1    2    0    0 -0.77320213711E+01 -0.20963785587E+02  0.22747651720E+02  0.31886048978E+02  0.00000000000E+00 0. -1.
         11    1    3    3    0    0 -0.28939630583E+01  0.15727392010E+02 -0.81270657863E+01  0.17938090205E+02  0.51100000000E-03 0.  1.
        -11    1    3    3    0    0  0.15848217649E+02  0.12949927474E+02 -0.21575876742E+02  0.29738612639E+02  0.51100000000E-03 0. -1.
         12    1    3    3    0    0 -0.52222332201E+01 -0.77135338975E+01  0.69552908077E+01  0.11625248179E+02  0.00000000000E+00 0. -1.
</event>
<event>
 7    1  0.6672802E-013  0.5930197E+02  0.7816164E-02  0.1266605E+00
        -11   -1    0    0    0    0  0.00000000000E+00  0.00000000000E+00  0.45593999997E+02  0.45594000000E+02  0.51100000000E-03 0.  1.
         11   -1    0    0    0    0 -0.00000000000E+00 -0.00000000000E+00 -0.45593999997E+02  0.45594000000E+02  0.51100000000E-03 0. -1.
    9900012    2    1    2    0    0 -0.27298677476E+02  0.59253526277E+00  0.16466639190E+02  0.59301967068E+02  0.50000042019E+02 0.  0.
         12    1    1    2    0    0  0.27298677476E+02 -0.59253526277E+00 -0.16466639190E+02  0.31886032932E+02  0.00000000000E+00 0. -1.
         11    1    3    3    0    0  0.51197816383E+00 -0.24326420089E+00 -0.70961150626E+01  0.71187181679E+01  0.51100000000E-03 0. -1.
        -11    1    3    3    0    0  0.44830796082E+00 -0.13204424815E+02  0.72628332151E+00  0.13231980292E+02  0.51100000000E-03 0.  1.
        -12    1    3    3    0    0 -0.28258963600E+02  0.14040224279E+02  0.22836470931E+02  0.38951268608E+02  0.00000000000E+00 0.  1.
</event>
<event>
 7    1  0.6672802E-013  0.5930192E+02  0.7816164E-02  0.1266605E+00
        -11   -1    0    0    0    0  0.00000000000E+00  0.00000000000E+00  0.45593999997E+02  0.45594000000E+02  0.51100000000E-03 0.  1.
         11   -1    0    0    0    0 -0.00000000000E+00 -0.00000000000E+00 -0.45593999997E+02  0.45594000000E+02  0.51100000000E-03 0. -1.
    9900012    2    1    2    0    0  0.28828400195E+02  0.13613810193E+02 -0.55656747928E+00  0.59301917564E+02  0.49999951736E+02 0.  0.
         12    1    1    2    0    0 -0.28828400195E+02 -0.13613810193E+02  0.55656747928E+00  0.31886082436E+02  0.00000000000E+00 0. -1.
         11    1    3    3    0    0  0.29481728536E+02  0.24393970835E+02 -0.11272563836E+02  0.39891212394E+02  0.51100000000E-03 0. -1.
        -11    1    3    3    0    0  0.46355996857E+00  0.16959354424E+01 -0.11948846938E+01  0.21257550569E+01  0.51100000000E-03 0.  1.
        -12    1    3    3    0    0 -0.11168883101E+01 -0.12476096085E+02  0.11910881050E+02  0.17284950113E+02  0.00000000000E+00 0.  1.
</event>
<event>
 7    1  0.6672802E-013  0.5930196E+02  0.7816164E-02  0.1266605E+00
        -11   -1    0    0    0    0  0.00000000000E+00  0.00000000000E+00  0.45593999997E+02  0.45594000000E+02  0.51100000000E-03 0.  1.
         11   -1    0    0    0    0 -0.00000000000E+00 -0.00000000000E+00 -0.45593999997E+02  0.45594000000E+02  0.51100000000E-03 0. -1.
    9900012    2    1    2    0    0 -0.30934128097E+02  0.57683840537E+00  0.77114725687E+01  0.59301955516E+02  0.50000020951E+02 0.  0.
         12    1    1    2    0    0  0.30934128097E+02 -0.57683840537E+00 -0.77114725687E+01  0.31886044484E+02  0.00000000000E+00 0. -1.
         11    1    3    3    0    0  0.47006019545E+01 -0.60610969038E+01  0.11074795516E+01  0.77497784246E+01  0.51100000000E-03 0. -1.
        -11    1    3    3    0    0  0.39603771616E+01 -0.79886631858E+01  0.10522433789E+01  0.89783374379E+01  0.51100000000E-03 0.  1.
        -12    1    3    3    0    0 -0.39595107213E+02  0.14626598495E+02  0.55517496381E+01  0.42573839653E+02  0.00000000000E+00 0.  1.
</event>
<event>
 7    1  0.6672802E-013  0.5930195E+02  0.7816164E-02  0.1266605E+00
        -11   -1    0    0    0    0  0.00000000000E+00  0.00000000000E+00  0.45593999997E+02  0.45594000000E+02  0.51100000000E-03 0. -1.
         11   -1    0    0    0    0 -0.00000000000E+00 -0.00000000000E+00 -0.45593999997E+02  0.45594000000E+02  0.51100000000E-03 0.  1.
    9900012    2    1    2    0    0 -0.29263172117E+02 -0.62657138611E+01 -0.11005813394E+02  0.59301947548E+02  0.50000006419E+02 0.  0.
         12    1    1    2    0    0  0.29263172117E+02  0.62657138611E+01  0.11005813394E+02  0.31886052452E+02  0.00000000000E+00 0. -1.
         11    1    3    3    0    0 -0.15566863250E+01 -0.21019259445E+02  0.31460598492E+01  0.21310331597E+02  0.51100000000E-03 0. -1.
        -11    1    3    3    0    0 -0.17984419706E+01 -0.20025491880E+01  0.18192171924E+01  0.32487148576E+01  0.51100000000E-03 0.  1.
        -12    1    3    3    0    0 -0.25908043822E+02  0.16756094772E+02 -0.15971090435E+02  0.34742901093E+02  0.00000000000E+00 0.  1.
</event>
<event>
 7    1  0.6672802E-013  0.5930194E+02  0.7816164E-02  0.1266605E+00
        -11   -1    0    0    0    0  0.00000000000E+00  0.00000000000E+00  0.45593999997E+02  0.45594000000E+02  0.51100000000E-03 0. -1.
         11   -1    0    0    0    0 -0.00000000000E+00 -0.00000000000E+00 -0.45593999997E+02  0.45594000000E+02  0.51100000000E-03 0.  1.
    9900012    2    1    2    0    0  0.28409196185E+02 -0.10507860319E+02  0.99610881210E+01  0.59301939834E+02  0.49999992352E+02 0.  0.
         12    1    1    2    0    0 -0.28409196185E+02  0.10507860319E+02 -0.99610881210E+01  0.31886060166E+02  0.00000000000E+00 0. -1.
         11    1    3    3    0    0 -0.10187003739E+01  0.11548799017E+01 -0.36085332105E+01  0.39233926940E+01  0.51100000000E-03 0. -1.
        -11    1    3    3    0    0  0.30970518945E+02 -0.20407738558E+02 -0.23346590590E+01  0.37163146664E+02  0.51100000000E-03 0.  1.
        -12    1    3    3    0    0 -0.15426223863E+01  0.87449983377E+01  0.15904280390E+02  0.18215400476E+02  0.00000000000E+00 0.  1.
</event>
<event>
 7    1  0.6672802E-013  0.5930196E+02  0.7816164E-02  0.1266605E+00
        -11   -1    0    0    0    0  0.00000000000E+00  0.00000000000E+00  0.45593999997E+02  0.45594000000E+02  0.51100000000E-03 0. -1.
         11   -1    0    0    0    0 -0.00000000000E+00 -0.00000000000E+00 -0.45593999997E+02  0.45594000000E+02  0.51100000000E-03 0.  1.
    9900012    2    1    2    0    0 -0.10450499774E+02 -0.78867972466E+01 -0.29074125818E+02  0.59301963739E+02  0.50000035950E+02 0.  0.
         12    1    1    2    0    0  0.10450499774E+02  0.78867972466E+01  0.29074125818E+02  0.31886036261E+02  0.00000000000E+00 0. -1.
         11    1    3    3    0    0  0.13398888240E+01 -0.11157090468E+02  0.61857274547E+01  0.12827283195E+02  0.51100000000E-03 0. -1.
        -11    1    3    3    0    0  0.38777552440E+00 -0.59611795104E+01  0.19216723538E+01  0.62752574377E+01  0.51100000000E-03 0.  1.
        -12    1    3    3    0    0 -0.12178164123E+02  0.92314727318E+01 -0.37181525626E+02  0.40199423106E+02  0.00000000000E+00 0.  1.
</event>
<event>
 7    1  0.6672802E-013  0.5930194E+02  0.7816164E-02  0.1266605E+00
        -11   -1    0    0    0    0  0.00000000000E+00  0.00000000000E+00  0.45593999997E+02  0.45594000000E+02  0.51100000000E-03 0.  1.
         11   -1    0    0    0    0 -0.00000000000E+00 -0.00000000000E+00 -0.45593999997E+02  0.45594000000E+02  0.51100000000E-03 0. -1.
    9900012    2    1    2    0    0 -0.18523863021E+02 -0.64657925642E+00  0.25945502823E+02  0.59301942190E+02  0.49999996648E+02 0.  0.
         12    1    1    2    0    0  0.18523863021E+02  0.64657925642E+00 -0.25945502823E+02  0.31886057810E+02  0.00000000000E+00 0. -1.
         11    1    3    3    0    0 -0.87581940087E+01  0.57467699913E+01  0.17658376001E+02  0.20531672384E+02  0.51100000000E-03 0.  1.
        -11    1    3    3    0    0  0.41810868933E+01 -0.15288013754E+02  0.14123485869E+02  0.21229171098E+02  0.51100000000E-03 0. -1.
         12    1    3    3    0    0 -0.13946755905E+02  0.88946645066E+01 -0.58363590462E+01  0.17541098708E+02  0.00000000000E+00 0. -1.
</event>
<event>
 7    1  0.6672802E-013  0.5930193E+02  0.7816164E-02  0.1266605E+00
        -11   -1    0    0    0    0  0.00000000000E+00  0.00000000000E+00  0.45593999997E+02  0.45594000000E+02  0.51100000000E-03 0. -1.
         11   -1    0    0    0    0 -0.00000000000E+00 -0.00000000000E+00 -0.45593999997E+02  0.45594000000E+02  0.51100000000E-03 0.  1.
    9900012    2    1    2    0    0 -0.16814683253E+02  0.21754554175E+02  0.16147047765E+02  0.59301931698E+02  0.49999977513E+02 0.  0.
         12    1    1    2    0    0  0.16814683253E+02 -0.21754554175E+02 -0.16147047765E+02  0.31886068302E+02  0.00000000000E+00 0. -1.
         11    1    3    3    0    0 -0.18693181881E+00  0.16095515906E+02 -0.26878762817E+01  0.16319474715E+02  0.51100000000E-03 0. -1.
        -11    1    3    3    0    0 -0.82790014563E+01 -0.22646900498E+01 -0.92569897456E+01  0.12623887893E+02  0.51100000000E-03 0.  1.
        -12    1    3    3    0    0 -0.83487499776E+01  0.79237283181E+01  0.28091913793E+02  0.30358569090E+02  0.00000000000E+00 0.  1.
</event>
<event>
 7    1  0.6672802E-013  0.5930195E+02  0.7816164E-02  0.1266605E+00
        -11   -1    0    0    0    0  0.00000000000E+00  0.00000000000E+00  0.45593999997E+02  0.45594000000E+02  0.51100000000E-03 0.  1.
         11   -1    0    0    0    0 -0.00000000000E+00 -0.00000000000E+00 -0.45593999997E+02  0.45594000000E+02  0.51100000000E-03 0. -1.
    9900012    2    1    2    0    0 -0.60645434724E+00  0.24548662871E+02 -0.20339993454E+02  0.59301953376E+02  0.50000017048E+02 0.  0.
         12    1    1    2    0    0  0.60645434724E+00 -0.24548662871E+02  0.20339993454E+02  0.31886046624E+02  0.00000000000E+00 0. -1.
         11    1    3    3    0    0  0.15038197299E+02  0.15762980157E+02 -0.20099847629E+01  0.21878275993E+02  0.51100000000E-03 0. -1.
        -11    1    3    3    0    0  0.55264643747E+01  0.98653318085E+01 -0.79305209982E+01  0.13811580060E+02  0.51100000000E-03 0.  1.
         12    1    3    3    0    0 -0.21171116021E+02 -0.10796490938E+01 -0.10399487693E+02  0.23612097323E+02  0.00000000000E+00 0. -1.
</event>
<event>
 7    1  0.6672802E-013  0.5930195E+02  0.7816164E-02  0.1266605E+00
        -11   -1    0    0    0    0  0.00000000000E+00  0.00000000000E+00  0.45593999997E+02  0.45594000000E+02  0.51100000000E-03 0. -1.
         11   -1    0    0    0    0 -0.00000000000E+00 -0.00000000000E+00 -0.45593999997E+02  0.45594000000E+02  0.51100000000E-03 0.  1.
    9900012    2    1    2    0    0  0.19690740214E+02  0.10045605983E+02 -0.22980012102E+02  0.59301946529E+02  0.50000004561E+02 0.  0.
         12    1    1    2    0    0 -0.19690740214E+02 -0.10045605983E+02  0.22980012102E+02  0.31886053471E+02  0.00000000000E+00 0. -1.
         11    1    3    3    0    0  0.54663649649E+01  0.17331813532E+02  0.79318766835E+01  0.19828957971E+02  0.51100000000E-03 0. -1.
        -11    1    3    3    0    0  0.92244536068E+01  0.55390585437E+01 -0.14398018141E+02  0.17974277191E+02  0.51100000000E-03 0.  1.
        -12    1    3    3    0    0  0.49999216420E+01 -0.12825266092E+02 -0.16513870645E+02  0.21498711367E+02  0.00000000000E+00 0.  1.
</event>
<event>
 7    1  0.6672802E-013  0.5930197E+02  0.7816164E-02  0.1266605E+00
        -11   -1    0    0    0    0  0.00000000000E+00  0.00000000000E+00  0.45593999997E+02  0.45594000000E+02  0.51100000000E-03 0. -1.
         11   -1    0    0    0    0 -0.00000000000E+00 -0.00000000000E+00 -0.45593999997E+02  0.45594000000E+02  0.51100000000E-03 0.  1.
    9900012    2    1    2    0    0  0.97434589896E+01 -0.24444624591E+02 -0.18006791404E+02  0.59301965421E+02  0.50000039017E+02 0.  0.
         12    1    1    2    0    0 -0.97434589896E+01  0.24444624591E+02  0.18006791404E+02  0.31886034579E+02  0.00000000000E+00 0. -1.
         11    1    3    3    0    0  0.99308903874E+01  0.41447203915E+01  0.25418332349E+01  0.11057224221E+02  0.51100000000E-03 0. -1.
        -11    1    3    3    0    0  0.23203932797E+01  0.72630126597E+01 -0.24758714528E+01  0.80165776725E+01  0.51100000000E-03 0.  1.
         12    1    3    3    0    0 -0.25078246776E+01 -0.35852357642E+02 -0.18072753186E+02  0.40228163528E+02  0.00000000000E+00 0. -1.
</event>
<event>
 7    1  0.6672802E-013  0.5930196E+02  0.7816164E-02  0.1266605E+00
        -11   -1    0    0    0    0  0.00000000000E+00  0.00000000000E+00  0.45593999997E+02  0.45594000000E+02  0.51100000000E-03 0.  1.
         11   -1    0    0    0    0 -0.00000000000E+00 -0.00000000000E+00 -0.45593999997E+02  0.45594000000E+02  0.51100000000E-03 0. -1.
    9900012    2    1    2    0    0 -0.57396109928E+00 -0.26887656322E+02  0.17130217820E+02  0.59301955147E+02  0.50000020278E+02 0.  0.
         12    1    1    2    0    0  0.57396109928E+00  0.26887656322E+02 -0.17130217820E+02  0.31886044853E+02  0.00000000000E+00 0. -1.
         11    1    3    3    0    0  0.28926406709E+01 -0.42375688337E+01  0.45034250791E+01  0.68267999367E+01  0.51100000000E-03 0.  1.
        -11    1    3    3    0    0 -0.11851082231E+02 -0.34445061190E+02  0.81531402286E+01  0.37328060307E+02  0.51100000000E-03 0. -1.
        -12    1    3    3    0    0  0.83844804606E+01  0.11794973701E+02  0.44736525124E+01  0.15147094903E+02  0.00000000000E+00 0.  1.
</event>
<event>
 7    1  0.6672802E-013  0.5930193E+02  0.7816164E-02  0.1266605E+00
        -11   -1    0    0    0    0  0.00000000000E+00  0.00000000000E+00  0.45593999997E+02  0.45594000000E+02  0.51100000000E-03 0. -1.
         11   -1    0    0    0    0 -0.00000000000E+00 -0.00000000000E+00 -0.45593999997E+02  0.45594000000E+02  0.51100000000E-03 0.  1.
    9900012    2    1    2    0    0  0.10199267276E+02 -0.30160924649E+02  0.17363675951E+01  0.59301930924E+02  0.49999976102E+02 0.  0.
         12    1    1    2    0    0 -0.10199267276E+02  0.30160924649E+02 -0.17363675951E+01  0.31886069076E+02  0.00000000000E+00 0. -1.
         11    1    3    3    0    0  0.39833120765E+01 -0.75146129275E+01  0.31912735145E+00  0.85110531120E+01  0.51100000000E-03 0.  1.
        -11    1    3    3    0    0 -0.10040174278E+01 -0.32799714994E+02 -0.95672267343E+01  0.34181298722E+02  0.51100000000E-03 0. -1.
         12    1    3    3    0    0  0.72199726276E+01  0.10153403272E+02  0.10984466978E+02  0.16609579090E+02  0.00000000000E+00 0. -1.
</event>
<event>
 7    1  0.6672802E-013  0.5930196E+02  0.7816164E-02  0.1266605E+00
        -11   -1    0    0    0    0  0.00000000000E+00  0.00000000000E+00  0.45593999997E+02  0.45594000000E+02  0.51100000000E-03 0.  1.
         11   -1    0    0    0    0 -0.00000000000E+00 -0.00000000000E+00 -0.45593999997E+02  0.45594000000E+02  0.51100000000E-03 0. -1.
    9900012    2    1    2    0    0 -0.22120507303E+02 -0.18294815908E+02 -0.13881728453E+02  0.59301960465E+02  0.50000029977E+02 0.  0.
         12    1    1    2    0    0  0.22120507303E+02  0.18294815908E+02  0.13881728453E+02  0.31886039535E+02  0.00000000000E+00 0. -1.
         11    1    3    3    0    0 -0.22398106589E+02 -0.22618574308E+02 -0.11352664678E+02  0.33795829300E+02  0.51100000000E-03 0. -1.
        -11    1    3    3    0    0 -0.47854252616E+01  0.32697749467E+01  0.10219466285E+02  0.11748583513E+02  0.51100000000E-03 0.  1.
        -12    1    3    3    0    0  0.50630245481E+01  0.10539834540E+01 -0.12748530060E+02  0.13757547652E+02  0.00000000000E+00 0.  1.
</event>
<event>
 7    1  0.6672802E-013  0.5930193E+02  0.7816164E-02  0.1266605E+00
        -11   -1    0    0    0    0  0.00000000000E+00  0.00000000000E+00  0.45593999997E+02  0.45594000000E+02  0.51100000000E-03 0. -1.
         11   -1    0    0    0    0 -0.00000000000E+00 -0.00000000000E+00 -0.45593999997E+02  0.45594000000E+02  0.51100000000E-03 0.  1.
    9900012    2    1    2    0    0 -0.17962020893E+02  0.25272304485E+02 -0.74429755987E+01  0.59301930089E+02  0.49999974580E+02 0.  0.
         12    1    1    2    0    0  0.17962020893E+02 -0.25272304485E+02  0.74429755987E+01  0.31886069911E+02  0.00000000000E+00 0. -1.
         11    1    3    3    0    0  0.56706794569E+01  0.59503450746E+01  0.56800999050E+00  0.82392868393E+01  0.51100000000E-03 0. -1.
        -11    1    3    3    0    0  0.40064831659E+01  0.21137727149E+02 -0.90602208780E+01  0.23344014629E+02  0.51100000000E-03 0.  1.
        -12    1    3    3    0    0 -0.27639183516E+02 -0.18157677384E+01  0.10492352888E+01  0.27718628621E+02  0.00000000000E+00 0.  1.
</event>
<event>
 7    1  0.6672802E-013  0.5930191E+02  0.7816164E-02  0.1266605E+00
        -11   -1    0    0    0    0  0.00000000000E+00  0.00000000000E+00  0.45593999997E+02  0.45594000000E+02  0.51100000000E-03 0. -1.
         11   -1    0    0    0    0 -0.00000000000E+00 -0.00000000000E+00 -0.45593999997E+02  0.45594000000E+02  0.51100000000E-03 0.  1.
    9900012    2    1    2    0    0  0.13730939497E+02 -0.27064878729E+02 -0.97814447456E+01  0.59301905517E+02  0.49999929765E+02 0.  0.
         12    1    1    2    0    0 -0.13730939497E+02  0.27064878729E+02  0.97814447456E+01  0.31886094483E+02  0.00000000000E+00 0. -1.
         11    1    3    3    0    0  0.52550853349E+01  0.38790876712E+01 -0.12116638429E+02  0.13765034330E+02  0.51100000000E-03 0. -1.
        -11    1    3    3    0    0 -0.92144755216E+01 -0.28505995408E+01 -0.59324756548E+01  0.11323724853E+02  0.51100000000E-03 0.  1.
         12    1    3    3    0    0  0.17690329684E+02 -0.28093366859E+02  0.82676693377E+01  0.34213146334E+02  0.00000000000E+00 0. -1.
</event>
<event>
 7    1  0.6672802E-013  0.5930201E+02  0.7816164E-02  0.1266605E+00
        -11   -1    0    0    0    0  0.00000000000E+00  0.00000000000E+00  0.45593999997E+02  0.45594000000E+02  0.51100000000E-03 0.  1.
         11   -1    0    0    0    0 -0.00000000000E+00 -0.00000000000E+00 -0.45593999997E+02  0.45594000000E+02  0.51100000000E-03 0. -1.
    9900012    2    1    2    0    0 -0.35262821245E+01 -0.60477256057E+01  0.31107988161E+02  0.59302006554E+02  0.50000114032E+02 0.  0.
         12    1    1    2    0    0  0.35262821245E+01  0.60477256057E+01 -0.31107988161E+02  0.31885993446E+02  0.00000000000E+00 0. -1.
         11    1    3    3    0    0 -0.15305226885E+02  0.27625328073E+01  0.14560523209E+02  0.21304703562E+02  0.51100000000E-03 0. -1.
        -11    1    3    3    0    0  0.48173593455E+01 -0.11545021094E+02  0.24233975031E+02  0.27272330469E+02  0.51100000000E-03 0.  1.
        -12    1    3    3    0    0  0.69615854147E+01  0.27347626812E+01 -0.76865100788E+01  0.10724972522E+02  0.00000000000E+00 0.  1.
</event>
<event>
 7    1  0.6672802E-013  0.5930194E+02  0.7816164E-02  0.1266605E+00
        -11   -1    0    0    0    0  0.00000000000E+00  0.00000000000E+00  0.45593999997E+02  0.45594000000E+02  0.51100000000E-03 0.  1.
         11   -1    0    0    0    0 -0.00000000000E+00 -0.00000000000E+00 -0.45593999997E+02  0.45594000000E+02  0.51100000000E-03 0. -1.
    9900012    2    1    2    0    0  0.21900504628E+02 -0.21641247757E+00  0.23174160662E+02  0.59301942549E+02  0.49999997304E+02 0.  0.
         12    1    1    2    0    0 -0.21900504628E+02  0.21641247757E+00 -0.23174160662E+02  0.31886057451E+02  0.00000000000E+00 0. -1.
         11    1    3    3    0    0  0.64446345195E+01  0.39133883595E+01 -0.73286850973E+01  0.10514634947E+02  0.51100000000E-03 0. -1.
        -11    1    3    3    0    0  0.18959715857E+02 -0.16552462491E+02  0.20116044539E+02  0.32219715829E+02  0.51100000000E-03 0.  1.
         12    1    3    3    0    0 -0.35038457485E+01  0.12422661654E+02  0.10386801220E+02  0.16567591774E+02  0.00000000000E+00 0. -1.
</event>
<event>
 7    1  0.6672802E-013  0.5930194E+02  0.7816164E-02  0.1266605E+00
        -11   -1    0    0    0    0  0.00000000000E+00  0.00000000000E+00  0.45593999997E+02  0.45594000000E+02  0.51100000000E-03 0.  1.
         11   -1    0    0    0    0 -0.00000000000E+00 -0.00000000000E+00 -0.45593999997E+02  0.45594000000E+02  0.51100000000E-03 0. -1.
    9900012    2    1    2    0    0  0.19424978641E+02  0.15019640699E+02  0.20342115961E+02  0.59301935901E+02  0.49999985179E+02 0.  0.
         12    1    1    2    0    0 -0.19424978641E+02 -0.15019640699E+02 -0.20342115961E+02  0.31886064099E+02  0.00000000000E+00 0. -1.
         11    1    3    3    0    0 -0.77746280434E+01 -0.10479235129E+02 -0.25380322641E+01  0.13292885997E+02  0.51100000000E-03 0. -1.
        -11    1    3    3    0    0  0.54156050771E+00  0.62753343122E+01  0.65319227067E+00  0.63324378337E+01  0.51100000000E-03 0.  1.
        -12    1    3    3    0    0  0.26658046177E+02  0.19223541516E+02  0.22226955954E+02  0.39676612070E+02  0.00000000000E+00 0.  1.
</event>
<event>
 7    1  0.6672802E-013  0.5930197E+02  0.7816164E-02  0.1266605E+00
        -11   -1    0    0    0    0  0.00000000000E+00  0.00000000000E+00  0.45593999997E+02  0.45594000000E+02  0.51100000000E-03 0.  1.
         11   -1    0    0    0    0 -0.00000000000E+00 -0.00000000000E+00 -0.45593999997E+02  0.45594000000E+02  0.51100000000E-03 0. -1.
    9900012    2    1    2    0    0 -0.19357341372E+02 -0.25316491025E+02  0.10427110859E+01  0.59301974389E+02  0.50000055372E+02 0.  0.
         12    1    1    2    0    0  0.19357341372E+02  0.25316491025E+02 -0.10427110859E+01  0.31886025611E+02  0.00000000000E+00 0. -1.
         11    1    3    3    0    0 -0.12650991067E+02 -0.13451957640E+02  0.84321758169E+01  0.20300352918E+02  0.51100000000E-03 0. -1.
        -11    1    3    3    0    0 -0.75807407475E+01 -0.33500631811E+01  0.13828690884E+02  0.16122135262E+02  0.51100000000E-03 0.  1.
         12    1    3    3    0    0  0.87439044213E+00 -0.85144702039E+01 -0.21218155614E+02  0.22879486209E+02  0.00000000000E+00 0. -1.
</event>
<event>
 7    1  0.6672802E-013  0.5930196E+02  0.7816164E-02  0.1266605E+00
        -11   -1    0    0    0    0  0.00000000000E+00  0.00000000000E+00  0.45593999997E+02  0.45594000000E+02  0.51100000000E-03 0.  1.
         11   -1    0    0    0    0 -0.00000000000E+00 -0.00000000000E+00 -0.45593999997E+02  0.45594000000E+02  0.51100000000E-03 0. -1.
    9900012    2    1    2    0    0 -0.24306661392E+02 -0.19284301187E+02  0.73499241604E+01  0.59301961590E+02  0.50000032030E+02 0.  0.
         12    1    1    2    0    0  0.24306661392E+02  0.19284301187E+02 -0.73499241604E+01  0.31886038410E+02  0.00000000000E+00 0. -1.
         11    1    3    3    0    0 -0.31831566412E+02 -0.27152103860E+01 -0.12327016015E+01  0.31970932754E+02  0.51100000000E-03 0.  1.
        -11    1    3    3    0    0 -0.12571620238E+01  0.19093918016E+01 -0.30379063594E+01  0.38019874692E+01  0.51100000000E-03 0. -1.
         12    1    3    3    0    0  0.87820670439E+01 -0.18478482603E+02  0.11620532121E+02  0.23529041367E+02  0.00000000000E+00 0. -1.
</event>
<event>
 7    1  0.6672802E-013  0.5930194E+02  0.7816164E-02  0.1266605E+00
        -11   -1    0    0    0    0  0.00000000000E+00  0.00000000000E+00  0.45593999997E+02  0.45594000000E+02  0.51100000000E-03 0. -1.
         11   -1    0    0    0    0 -0.00000000000E+00 -0.00000000000E+00 -0.45593999997E+02  0.45594000000E+02  0.51100000000E-03 0.  1.
    9900012    2    1    2    0    0 -0.87082612216E+00 -0.91522345416E+01 -0.30531930427E+02  0.59301944884E+02  0.50000001562E+02 0.  0.
         12    1    1    2    0    0  0.87082612216E+00  0.91522345416E+01  0.30531930427E+02  0.31886055116E+02  0.00000000000E+00 0. -1.
         11    1    3    3    0    0  0.52624767445E+01 -0.12359575182E+02  0.57132336755E+01  0.14597732682E+02  0.51100000000E-03 0. -1.
        -11    1    3    3    0    0 -0.56760334612E+01  0.10326705581E+02 -0.52531341089E+01  0.12901690674E+02  0.51100000000E-03 0.  1.
        -12    1    3    3    0    0 -0.45726940543E+00 -0.71193649408E+01 -0.30992029993E+02  0.31802521529E+02  0.00000000000E+00 0.  1.
</event>
<event>
 7    1  0.6672802E-013  0.5930188E+02  0.7816164E-02  0.1266605E+00
        -11   -1    0    0    0    0  0.00000000000E+00  0.00000000000E+00  0.45593999997E+02  0.45594000000E+02  0.51100000000E-03 0. -1.
         11   -1    0    0    0    0 -0.00000000000E+00 -0.00000000000E+00 -0.45593999997E+02  0.45594000000E+02  0.51100000000E-03 0.  1.
    9900012    2    1    2    0    0 -0.13173279368E+02 -0.11528619190E+02 -0.26651078505E+02  0.59301884915E+02  0.49999892193E+02 0.  0.
         12    1    1    2    0    0  0.13173279368E+02  0.11528619190E+02  0.26651078505E+02  0.31886115085E+02  0.00000000000E+00 0. -1.
         11    1    3    3    0    0 -0.22361900761E+02  0.69511130322E+01 -0.56556726223E+01  0.24090645718E+02  0.51100000000E-03 0. -1.
        -11    1    3    3    0    0 -0.24717503215E+01 -0.15820697507E+02 -0.14496505085E+02  0.21599830537E+02  0.51100000000E-03 0.  1.
        -12    1    3    3    0    0  0.11660371715E+02 -0.26590347152E+01 -0.64989007976E+01  0.13611408661E+02  0.00000000000E+00 0.  1.
</event>
<event>
 7    1  0.6672802E-013  0.5930189E+02  0.7816164E-02  0.1266605E+00
        -11   -1    0    0    0    0  0.00000000000E+00  0.00000000000E+00  0.45593999997E+02  0.45594000000E+02  0.51100000000E-03 0.  1.
         11   -1    0    0    0    0 -0.00000000000E+00 -0.00000000000E+00 -0.45593999997E+02  0.45594000000E+02  0.51100000000E-03 0. -1.
    9900012    2    1    2    0    0  0.24561193434E+02 -0.10712510549E+02 -0.17283342403E+02  0.59301889704E+02  0.49999900927E+02 0.  0.
         12    1    1    2    0    0 -0.24561193434E+02  0.10712510549E+02  0.17283342403E+02  0.31886110296E+02  0.00000000000E+00 0. -1.
         11    1    3    3    0    0 -0.56347307979E+01  0.58743245085E+01 -0.16764823051E+02  0.18636447402E+02  0.51100000000E-03 0. -1.
        -11    1    3    3    0    0  0.20913986850E+02 -0.84838327826E+01  0.97895316383E+01  0.24600918573E+02  0.51100000000E-03 0.  1.
        -12    1    3    3    0    0  0.92819373817E+01 -0.81030022749E+01 -0.10308050990E+02  0.16064523729E+02  0.00000000000E+00 0.  1.
</event>
<event>
 7    1  0.6672802E-013  0.5930194E+02  0.7816164E-02  0.1266605E+00
        -11   -1    0    0    0    0  0.00000000000E+00  0.00000000000E+00  0.45593999997E+02  0.45594000000E+02  0.51100000000E-03 0. -1.
         11   -1    0    0    0    0 -0.00000000000E+00 -0.00000000000E+00 -0.45593999997E+02  0.45594000000E+02  0.51100000000E-03 0.  1.
    9900012    2    1    2    0    0 -0.12446000324E+02  0.68666747634E+01 -0.28542369534E+02  0.59301937135E+02  0.49999987430E+02 0.  0.
         12    1    1    2    0    0  0.12446000324E+02 -0.68666747634E+01  0.28542369534E+02  0.31886062865E+02  0.00000000000E+00 0. -1.
         11    1    3    3    0    0  0.73149299749E+01  0.23871210852E+01 -0.14455234315E+01  0.78291816855E+01  0.51100000000E-03 0. -1.
        -11    1    3    3    0    0 -0.53405433572E+01 -0.13366565305E+02 -0.24455574636E+02  0.28377131681E+02  0.51100000000E-03 0.  1.
         12    1    3    3    0    0 -0.14420386942E+02  0.17846118983E+02 -0.26412714662E+01  0.23095623769E+02  0.00000000000E+00 0. -1.
</event>
<event>
 7    1  0.6879418E-013  0.5930191E+02  0.7816164E-02  0.1266605E+00
        -11   -1    0    0    0    0  0.00000000000E+00  0.00000000000E+00  0.45593999997E+02  0.45594000000E+02  0.51100000000E-03 0. -1.
         11   -1    0    0    0    0 -0.00000000000E+00 -0.00000000000E+00 -0.45593999997E+02  0.45594000000E+02  0.51100000000E-03 0.  1.
    9900012    2    1    2    0    0 -0.21330586021E+02 -0.90312481220E+01 -0.21912670748E+02  0.59301913975E+02  0.49999945191E+02 0.  0.
         12    1    1    2    0    0  0.21330586021E+02  0.90312481220E+01  0.21912670748E+02  0.31886086025E+02  0.00000000000E+00 0. -1.
         11    1    3    3    0    0  0.36044849148E+01 -0.80556507167E+01 -0.20073046931E+02  0.21927449312E+02  0.51100000000E-03 0. -1.
        -11    1    3    3    0    0 -0.21522922738E+02 -0.68863123389E+00 -0.13369627789E+02  0.25346742663E+02  0.51100000000E-03 0.  1.
         12    1    3    3    0    0 -0.34121481984E+01 -0.28696617148E+00  0.11530003972E+02  0.12027722000E+02  0.00000000000E+00 0. -1.
</event>
<event>
 7    1  0.6672802E-013  0.5930193E+02  0.7816164E-02  0.1266605E+00
        -11   -1    0    0    0    0  0.00000000000E+00  0.00000000000E+00  0.45593999997E+02  0.45594000000E+02  0.51100000000E-03 0. -1.
         11   -1    0    0    0    0 -0.00000000000E+00 -0.00000000000E+00 -0.45593999997E+02  0.45594000000E+02  0.51100000000E-03 0.  1.
    9900012    2    1    2    0    0 -0.11529389978E+02 -0.17191867321E+02 -0.24253541963E+02  0.59301930424E+02  0.49999975190E+02 0.  0.
         12    1    1    2    0    0  0.11529389978E+02  0.17191867321E+02  0.24253541963E+02  0.31886069576E+02  0.00000000000E+00 0. -1.
         11    1    3    3    0    0 -0.75873905473E+01  0.33772960991E+01  0.70966673371E+00  0.83353615034E+01  0.51100000000E-03 0. -1.
        -11    1    3    3    0    0 -0.13516073764E+02  0.10895324808E+01  0.34373656646E+01  0.13988810314E+02  0.51100000000E-03 0.  1.
        -12    1    3    3    0    0  0.95740743336E+01 -0.21658695901E+02 -0.28400574362E+02  0.36977758607E+02  0.00000000000E+00 0.  1.
</event>
<event>
 7    1  0.6672802E-013  0.5930201E+02  0.7816164E-02  0.1266605E+00
        -11   -1    0    0    0    0  0.00000000000E+00  0.00000000000E+00  0.45593999997E+02  0.45594000000E+02  0.51100000000E-03 0.  1.
         11   -1    0    0    0    0 -0.00000000000E+00 -0.00000000000E+00 -0.45593999997E+02  0.45594000000E+02  0.51100000000E-03 0. -1.
    9900012    2    1    2    0    0 -0.96922249011E+01 -0.14656840113E+02  0.26607408320E+02  0.59302009924E+02  0.50000120179E+02 0.  0.
         12    1    1    2    0    0  0.96922249011E+01  0.14656840113E+02 -0.26607408320E+02  0.31885990076E+02  0.00000000000E+00 0. -1.
         11    1    3    3    0    0 -0.60986752288E+00  0.72924760279E+01 -0.20710489650E+01  0.76053526605E+01  0.51100000000E-03 0. -1.
        -11    1    3    3    0    0 -0.58998969531E+01  0.95739709699E+01  0.61244523971E+01  0.12805413762E+02  0.51100000000E-03 0.  1.
        -12    1    3    3    0    0 -0.31824604250E+01 -0.31523287111E+02  0.22554004887E+02  0.38891243502E+02  0.00000000000E+00 0.  1.
</event>
<event>
 7    1  0.6672802E-013  0.5930195E+02  0.7816164E-02  0.1266605E+00
        -11   -1    0    0    0    0  0.00000000000E+00  0.00000000000E+00  0.45593999997E+02  0.45594000000E+02  0.51100000000E-03 0. -1.
         11   -1    0    0    0    0 -0.00000000000E+00 -0.00000000000E+00 -0.45593999997E+02  0.45594000000E+02  0.51100000000E-03 0.  1.
    9900012    2    1    2    0    0 -0.31771957972E+02  0.26941306114E+01  0.65669966066E-01  0.59301953433E+02  0.50000017152E+02 0.  0.
         12    1    1    2    0    0  0.31771957972E+02 -0.26941306114E+01 -0.65669966066E-01  0.31886046567E+02  0.00000000000E+00 0. -1.
         11    1    3    3    0    0 -0.19842598466E+02  0.18289564149E+02  0.60612538024E+01  0.27658193516E+02  0.51100000000E-03 0. -1.
        -11    1    3    3    0    0 -0.12869669849E+02  0.14322769400E+01 -0.66915851421E+01  0.14575909277E+02  0.51100000000E-03 0.  1.
         12    1    3    3    0    0  0.94031034334E+00 -0.17027710478E+02  0.69600130572E+00  0.17067850640E+02  0.00000000000E+00 0. -1.
</event>
<event>
 7    1  0.6672802E-013  0.5930197E+02  0.7816164E-02  0.1266605E+00
        -11   -1    0    0    0    0  0.00000000000E+00  0.00000000000E+00  0.45593999997E+02  0.45594000000E+02  0.51100000000E-03 0.  1.
         11   -1    0    0    0    0 -0.00000000000E+00 -0.00000000000E+00 -0.45593999997E+02  0.45594000000E+02  0.51100000000E-03 0. -1.
    9900012    2    1    2    0    0  0.16210846959E+02  0.27456638826E+02  0.24625407669E+00  0.59301965191E+02  0.50000038597E+02 0.  0.
         12    1    1    2    0    0 -0.16210846959E+02 -0.27456638826E+02 -0.24625407669E+00  0.31886034809E+02  0.00000000000E+00 0. -1.
         11    1    3    3    0    0  0.12780381114E+02 -0.73822079330E+01 -0.16629394006E+00  0.14760175789E+02  0.51100000000E-03 0. -1.
        -11    1    3    3    0    0  0.11660748749E+02  0.83341775644E+01 -0.68038577627E+01  0.15865814123E+02  0.51100000000E-03 0.  1.
        -12    1    3    3    0    0 -0.82302829042E+01  0.26504669195E+02  0.72164057795E+01  0.28675975279E+02  0.00000000000E+00 0.  1.
</event>
<event>
 7    1  0.6672802E-013  0.5930194E+02  0.7816164E-02  0.1266605E+00
        -11   -1    0    0    0    0  0.00000000000E+00  0.00000000000E+00  0.45593999997E+02  0.45594000000E+02  0.51100000000E-03 0. -1.
         11   -1    0    0    0    0 -0.00000000000E+00 -0.00000000000E+00 -0.45593999997E+02  0.45594000000E+02  0.51100000000E-03 0.  1.
    9900012    2    1    2    0    0 -0.26455910804E+02  0.60657048723E+01 -0.16733589381E+02  0.59301937125E+02  0.49999987412E+02 0.  0.
         12    1    1    2    0    0  0.26455910804E+02 -0.60657048723E+01  0.16733589381E+02  0.31886062875E+02  0.00000000000E+00 0. -1.
         11    1    3    3    0    0 -0.23451105697E+02 -0.25906774808E+01 -0.22845423748E+02  0.32841731908E+02  0.51100000000E-03 0.  1.
        -11    1    3    3    0    0 -0.11627609323E+02  0.11585252790E+02  0.22458514310E+01  0.16566931813E+02  0.51100000000E-03 0. -1.
        -12    1    3    3    0    0  0.86228042168E+01 -0.29288704368E+01  0.38659829355E+01  0.98932734044E+01  0.00000000000E+00 0.  1.
</event>
<event>
 7    1  0.6672802E-013  0.5930184E+02  0.7816164E-02  0.1266605E+00
        -11   -1    0    0    0    0  0.00000000000E+00  0.00000000000E+00  0.45593999997E+02  0.45594000000E+02  0.51100000000E-03 0. -1.
         11   -1    0    0    0    0 -0.00000000000E+00 -0.00000000000E+00 -0.45593999997E+02  0.45594000000E+02  0.51100000000E-03 0.  1.
    9900012    2    1    2    0    0  0.24374875493E+02 -0.35352452582E+01 -0.20250790189E+02  0.59301842853E+02  0.49999815481E+02 0.  0.
         12    1    1    2    0    0 -0.24374875493E+02  0.35352452582E+01  0.20250790189E+02  0.31886157147E+02  0.00000000000E+00 0. -1.
         11    1    3    3    0    0  0.26985921545E+02 -0.76926876891E+01 -0.18510289433E+02  0.33616189860E+02  0.51100000000E-03 0. -1.
        -11    1    3    3    0    0 -0.39323249902E+01 -0.96680307724E+01  0.32442404371E+01  0.10929734449E+02  0.51100000000E-03 0.  1.
        -12    1    3    3    0    0  0.13212789379E+01  0.13825473203E+02 -0.49847411932E+01  0.14755918544E+02  0.00000000000E+00 0.  1.
</event>
<event>
 7    1  0.6672802E-013  0.5930195E+02  0.7816164E-02  0.1266605E+00
        -11   -1    0    0    0    0  0.00000000000E+00  0.00000000000E+00  0.45593999997E+02  0.45594000000E+02  0.51100000000E-03 0. -1.
         11   -1    0    0    0    0 -0.00000000000E+00 -0.00000000000E+00 -0.45593999997E+02  0.45594000000E+02  0.51100000000E-03 0.  1.
    9900012    2    1    2    0    0 -0.14648318227E+02  0.28150662540E+02 -0.31124385022E+01  0.59301948163E+02  0.50000007541E+02 0.  0.
         12    1    1    2    0    0  0.14648318227E+02 -0.28150662540E+02  0.31124385022E+01  0.31886051837E+02  0.00000000000E+00 0. -1.
         11    1    3    3    0    0  0.31484818947E+01  0.27054852577E+01 -0.19225036536E+01  0.45747796975E+01  0.51100000000E-03 0. -1.
        -11    1    3    3    0    0 -0.32777270766E+02  0.17321628314E+02 -0.45716324168E+01  0.37353555514E+02  0.51100000000E-03 0.  1.
         12    1    3    3    0    0  0.14980470644E+02  0.81235489685E+01  0.33816975682E+01  0.17373612952E+02  0.00000000000E+00 0. -1.
</event>
<event>
 7    1  0.6672802E-013  0.5930194E+02  0.7816164E-02  0.1266605E+00
        -11   -1    0    0    0    0  0.00000000000E+00  0.00000000000E+00  0.45593999997E+02  0.45594000000E+02  0.51100000000E-03 0. -1.
         11   -1    0    0    0    0 -0.00000000000E+00 -0.00000000000E+00 -0.45593999997E+02  0.45594000000E+02  0.51100000000E-03 0.  1.
    9900012    2    1    2    0    0  0.19579856594E+02 -0.11180622928E+02  0.22546479006E+02  0.59301939897E+02  0.49999992466E+02 0.  0.
         12    1    1    2    0    0 -0.19579856594E+02  0.11180622928E+02 -0.22546479006E+02  0.31886060103E+02  0.00000000000E+00 0. -1.
         11    1    3    3    0    0 -0.68490913643E+01 -0.39176082882E+01 -0.28795978795E+01  0.83993923247E+01  0.51100000000E-03 0. -1.
        -11    1    3    3    0    0  0.44697606799E+01  0.90279011346E+01 -0.39046051102E+01  0.10804059457E+02  0.51100000000E-03 0.  1.
        -12    1    3    3    0    0  0.21959187279E+02 -0.16290915775E+02  0.29330681996E+02  0.40098488115E+02  0.00000000000E+00 0.  1.
</event>
<event>
 7    1  0.6672802E-013  0.5930186E+02  0.7816164E-02  0.1266605E+00
        -11   -1    0    0    0    0  0.00000000000E+00  0.00000000000E+00  0.45593999997E+02  0.45594000000E+02  0.51100000000E-03 0. -1.
         11   -1    0    0    0    0 -0.00000000000E+00 -0.00000000000E+00 -0.45593999997E+02  0.45594000000E+02  0.51100000000E-03 0.  1.
    9900012    2    1    2    0    0  0.39290067620E+01  0.54450251399E+01 -0.31171151993E+02  0.59301857093E+02  0.49999841451E+02 0.  0.
         12    1    1    2    0    0 -0.39290067620E+01 -0.54450251399E+01  0.31171151993E+02  0.31886142907E+02  0.00000000000E+00 0. -1.
         11    1    3    3    0    0 -0.38741760770E+00  0.13971320233E+01  0.68987584014E+01  0.70494636700E+01  0.51100000000E-03 0. -1.
        -11    1    3    3    0    0  0.10939652292E+02 -0.10609468927E+02 -0.60054954481E+01  0.16379951130E+02  0.51100000000E-03 0.  1.
         12    1    3    3    0    0 -0.66232279219E+01  0.14657362044E+02 -0.32064414947E+02  0.35872442293E+02  0.00000000000E+00 0. -1.
</event>
<event>
 7    1  0.6672802E-013  0.5930195E+02  0.7816164E-02  0.1266605E+00
        -11   -1    0    0    0    0  0.00000000000E+00  0.00000000000E+00  0.45593999997E+02  0.45594000000E+02  0.51100000000E-03 0. -1.
         11   -1    0    0    0    0 -0.00000000000E+00 -0.00000000000E+00 -0.45593999997E+02  0.45594000000E+02  0.51100000000E-03 0.  1.
    9900012    2    1    2    0    0  0.31435164302E+02  0.48298227127E+01  0.22854331836E+01  0.59301953726E+02  0.50000017688E+02 0.  0.
         12    1    1    2    0    0 -0.31435164302E+02 -0.48298227127E+01 -0.22854331836E+01  0.31886046274E+02  0.00000000000E+00 0. -1.
         11    1    3    3    0    0  0.18532821715E+02  0.18404922290E+02  0.18000063516E+02  0.31720796523E+02  0.51100000000E-03 0. -1.
        -11    1    3    3    0    0  0.11102439582E+02 -0.72967166692E+01 -0.35141619631E+01  0.13742473336E+02  0.51100000000E-03 0.  1.
        -12    1    3    3    0    0  0.17999030055E+01 -0.62783829077E+01 -0.12200468369E+02  0.13838683868E+02  0.00000000000E+00 0.  1.
</event>
<event>
 7    1  0.6672802E-013  0.5930205E+02  0.7816164E-02  0.1266604E+00
        -11   -1    0    0    0    0  0.00000000000E+00  0.00000000000E+00  0.45593999997E+02  0.45594000000E+02  0.51100000000E-03 0. -1.
         11   -1    0    0    0    0 -0.00000000000E+00 -0.00000000000E+00 -0.45593999997E+02  0.45594000000E+02  0.51100000000E-03 0.  1.
    9900012    2    1    2    0    0 -0.44633912728E+01 -0.49057390811E+00 -0.31568197223E+02  0.59302053247E+02  0.50000199189E+02 0.  0.
         12    1    1    2    0    0  0.44633912728E+01  0.49057390811E+00  0.31568197223E+02  0.31885946753E+02  0.00000000000E+00 0. -1.
         11    1    3    3    0    0 -0.74778225754E-01  0.29314910709E+01  0.46611275337E+01  0.55068449976E+01  0.51100000000E-03 0. -1.
        -11    1    3    3    0    0 -0.15548232852E+02 -0.16395451187E+02 -0.19169698270E+02  0.29631667123E+02  0.51100000000E-03 0.  1.
         12    1    3    3    0    0  0.11159619805E+02  0.12973386208E+02 -0.17059626487E+02  0.24163541126E+02  0.00000000000E+00 0. -1.
</event>
<event>
 7    1  0.6672802E-013  0.5930196E+02  0.7816164E-02  0.1266605E+00
        -11   -1    0    0    0    0  0.00000000000E+00  0.00000000000E+00  0.45593999997E+02  0.45594000000E+02  0.51100000000E-03 0.  1.
         11   -1    0    0    0    0 -0.00000000000E+00 -0.00000000000E+00 -0.45593999997E+02  0.45594000000E+02  0.51100000000E-03 0. -1.
    9900012    2    1    2    0    0  0.77656544051E+01  0.29337588696E+02  0.97836615612E+01  0.59301960228E+02  0.50000029545E+02 0.  0.
         12    1    1    2    0    0 -0.77656544051E+01 -0.29337588696E+02 -0.97836615612E+01  0.31886039772E+02  0.00000000000E+00 0. -1.
         11    1    3    3    0    0  0.10290570304E+02  0.55066416594E+01  0.14101101630E+02  0.18304644410E+02  0.51100000000E-03 0.  1.
        -11    1    3    3    0    0 -0.80328131790E+00  0.16741884772E+02  0.13643069776E+02  0.21611786593E+02  0.51100000000E-03 0. -1.
         12    1    3    3    0    0 -0.17216345814E+01  0.70890622646E+01 -0.17960509844E+02  0.19385529224E+02  0.00000000000E+00 0. -1.
</event>
<event>
 7    1  0.6672802E-013  0.5930198E+02  0.7816164E-02  0.1266605E+00
        -11   -1    0    0    0    0  0.00000000000E+00  0.00000000000E+00  0.45593999997E+02  0.45594000000E+02  0.51100000000E-03 0.  1.
         11   -1    0    0    0    0 -0.00000000000E+00 -0.00000000000E+00 -0.45593999997E+02  0.45594000000E+02  0.51100000000E-03 0. -1.
    9900012    2    1    2    0    0 -0.15031618455E+02  0.16624686918E+02  0.22680139907E+02  0.59301976185E+02  0.50000058647E+02 0.  0.
         12    1    1    2    0    0  0.15031618455E+02 -0.16624686918E+02 -0.22680139907E+02  0.31886023815E+02  0.00000000000E+00 0. -1.
         11    1    3    3    0    0 -0.19675755014E+00  0.93382722595E+00 -0.40114871515E+01  0.41234422816E+01  0.51100000000E-03 0. -1.
        -11    1    3    3    0    0 -0.14767466673E+01  0.29222934352E+02  0.16917998987E+02  0.33799102989E+02  0.51100000000E-03 0.  1.
         12    1    3    3    0    0 -0.13358114238E+02 -0.13532074659E+02  0.97736280711E+01  0.21379430915E+02  0.00000000000E+00 0. -1.
</event>
<event>
 7    1  0.6672802E-013  0.5930189E+02  0.7816164E-02  0.1266605E+00
        -11   -1    0    0    0    0  0.00000000000E+00  0.00000000000E+00  0.45593999997E+02  0.45594000000E+02  0.51100000000E-03 0. -1.
         11   -1    0    0    0    0 -0.00000000000E+00 -0.00000000000E+00 -0.45593999997E+02  0.45594000000E+02  0.51100000000E-03 0.  1.
    9900012    2    1    2    0    0  0.25901409873E+02  0.17515351933E+02 -0.62492860629E+01  0.59301887614E+02  0.49999897116E+02 0.  0.
         12    1    1    2    0    0 -0.25901409873E+02 -0.17515351933E+02  0.62492860629E+01  0.31886112386E+02  0.00000000000E+00 0. -1.
         11    1    3    3    0    0  0.52028607083E+01 -0.61099698370E+01  0.44399113672E+01  0.91713850736E+01  0.51100000000E-03 0. -1.
        -11    1    3    3    0    0  0.94531945053E+01 -0.98569523148E+01 -0.30134493537E+01  0.13985823986E+02  0.51100000000E-03 0.  1.
        -12    1    3    3    0    0  0.11245354660E+02  0.33482274085E+02 -0.76757480765E+01  0.36144678555E+02  0.00000000000E+00 0.  1.
</event>
<event>
 7    1  0.6672802E-013  0.5930194E+02  0.7816164E-02  0.1266605E+00
        -11   -1    0    0    0    0  0.00000000000E+00  0.00000000000E+00  0.45593999997E+02  0.45594000000E+02  0.51100000000E-03 0. -1.
         11   -1    0    0    0    0 -0.00000000000E+00 -0.00000000000E+00 -0.45593999997E+02  0.45594000000E+02  0.51100000000E-03 0.  1.
    9900012    2    1    2    0    0  0.19326237472E+02 -0.17033766356E+01 -0.25304458483E+02  0.59301944021E+02  0.49999999987E+02 0.  0.
         12    1    1    2    0    0 -0.19326237472E+02  0.17033766356E+01  0.25304458483E+02  0.31886055979E+02  0.00000000000E+00 0. -1.
         11    1    3    3    0    0 -0.62317774400E+01  0.24800798212E+01  0.32296739512E+01  0.74442353586E+01  0.51100000000E-03 0. -1.
        -11    1    3    3    0    0  0.28764879745E+01 -0.11687144539E+02 -0.24947952382E+02  0.27699528134E+02  0.51100000000E-03 0.  1.
         12    1    3    3    0    0  0.22681526937E+02  0.75036880827E+01 -0.35861800526E+01  0.24158180528E+02  0.00000000000E+00 0. -1.
</event>
<event>
 7    1  0.6672802E-013  0.5930198E+02  0.7816164E-02  0.1266605E+00
        -11   -1    0    0    0    0  0.00000000000E+00  0.00000000000E+00  0.45593999997E+02  0.45594000000E+02  0.51100000000E-03 0.  1.
         11   -1    0    0    0    0 -0.00000000000E+00 -0.00000000000E+00 -0.45593999997E+02  0.45594000000E+02  0.51100000000E-03 0. -1.
    9900012    2    1    2    0    0 -0.31563216984E+02  0.33844713490E+01 -0.30044659918E+01  0.59301982240E+02  0.50000069690E+02 0.  0.
         12    1    1    2    0    0  0.31563216984E+02 -0.33844713490E+01  0.30044659918E+01  0.31886017760E+02  0.00000000000E+00 0. -1.
         11    1    3    3    0    0 -0.17835941580E+02 -0.12652718516E+02 -0.19572507316E+02  0.29347830256E+02  0.51100000000E-03 0. -1.
        -11    1    3    3    0    0 -0.10421138222E+02  0.48416833433E+01  0.26570426463E+01  0.11794146655E+02  0.51100000000E-03 0.  1.
        -12    1    3    3    0    0 -0.33061371823E+01  0.11195506521E+02  0.13910998677E+02  0.18160005329E+02  0.00000000000E+00 0.  1.
</event>
<event>
 7    1  0.6672802E-013  0.5930193E+02  0.7816164E-02  0.1266605E+00
        -11   -1    0    0    0    0  0.00000000000E+00  0.00000000000E+00  0.45593999997E+02  0.45594000000E+02  0.51100000000E-03 0.  1.
         11   -1    0    0    0    0 -0.00000000000E+00 -0.00000000000E+00 -0.45593999997E+02  0.45594000000E+02  0.51100000000E-03 0. -1.
    9900012    2    1    2    0    0 -0.17409862553E+02 -0.16231789577E+02  0.21216673648E+02  0.59301928626E+02  0.49999971911E+02 0.  0.
         12    1    1    2    0    0  0.17409862553E+02  0.16231789577E+02 -0.21216673648E+02  0.31886071374E+02  0.00000000000E+00 0. -1.
         11    1    3    3    0    0 -0.10511029588E+02  0.14283934411E+02  0.20121746977E+01  0.17848287664E+02  0.51100000000E-03 0. -1.
        -11    1    3    3    0    0  0.66874407809E+01 -0.86504713637E+01  0.46517478225E+01  0.11882393575E+02  0.51100000000E-03 0.  1.
        -12    1    3    3    0    0 -0.13586273746E+02 -0.21865252624E+02  0.14552751128E+02  0.29571247387E+02  0.00000000000E+00 0.  1.
</event>
<event>
 7    1  0.6672802E-013  0.5930188E+02  0.7816164E-02  0.1266605E+00
        -11   -1    0    0    0    0  0.00000000000E+00  0.00000000000E+00  0.45593999997E+02  0.45594000000E+02  0.51100000000E-03 0.  1.
         11   -1    0    0    0    0 -0.00000000000E+00 -0.00000000000E+00 -0.45593999997E+02  0.45594000000E+02  0.51100000000E-03 0. -1.
    9900012    2    1    2    0    0  0.27283134818E+02  0.11776252393E+02  0.11561799052E+02  0.59301878203E+02  0.49999879951E+02 0.  0.
         12    1    1    2    0    0 -0.27283134818E+02 -0.11776252393E+02 -0.11561799052E+02  0.31886121797E+02  0.00000000000E+00 0. -1.
         11    1    3    3    0    0 -0.25028522136E+01 -0.59378000942E+01  0.38337633729E+01  0.74979651254E+01  0.51100000000E-03 0. -1.
        -11    1    3    3    0    0  0.11426339035E+02  0.11458571425E+02  0.22293749976E+02  0.27547620062E+02  0.51100000000E-03 0.  1.
         12    1    3    3    0    0  0.18359647997E+02  0.62554810624E+01 -0.14565714296E+02  0.24256293015E+02  0.00000000000E+00 0. -1.
</event>
<event>
 7    1  0.6672802E-013  0.5930196E+02  0.7816164E-02  0.1266605E+00
        -11   -1    0    0    0    0  0.00000000000E+00  0.00000000000E+00  0.45593999997E+02  0.45594000000E+02  0.51100000000E-03 0.  1.
         11   -1    0    0    0    0 -0.00000000000E+00 -0.00000000000E+00 -0.45593999997E+02  0.45594000000E+02  0.51100000000E-03 0. -1.
    9900012    2    1    2    0    0 -0.49677308903E+01  0.25074821490E+02  0.19060281686E+02  0.59301962916E+02  0.50000034448E+02 0.  0.
         12    1    1    2    0    0  0.49677308903E+01 -0.25074821490E+02 -0.19060281686E+02  0.31886037084E+02  0.00000000000E+00 0. -1.
         11    1    3    3    0    0  0.47470785627E+01  0.35126184018E+02  0.96727922428E+01  0.36741617664E+02  0.51100000000E-03 0. -1.
        -11    1    3    3    0    0  0.27775993148E+01 -0.32517130936E+01 -0.16223365197E+01  0.45739121156E+01  0.51100000000E-03 0.  1.
        -12    1    3    3    0    0 -0.12492408768E+02 -0.67996494337E+01  0.11009825963E+02  0.17986433137E+02  0.00000000000E+00 0.  1.
</event>
<event>
 7    1  0.6672802E-013  0.5930194E+02  0.7816164E-02  0.1266605E+00
        -11   -1    0    0    0    0  0.00000000000E+00  0.00000000000E+00  0.45593999997E+02  0.45594000000E+02  0.51100000000E-03 0. -1.
         11   -1    0    0    0    0 -0.00000000000E+00 -0.00000000000E+00 -0.45593999997E+02  0.45594000000E+02  0.51100000000E-03 0.  1.
    9900012    2    1    2    0    0  0.23783780415E+02 -0.20840649016E+02 -0.40889890702E+01  0.59301942014E+02  0.49999996328E+02 0.  0.
         12    1    1    2    0    0 -0.23783780415E+02  0.20840649016E+02  0.40889890702E+01  0.31886057986E+02  0.00000000000E+00 0. -1.
         11    1    3    3    0    0  0.21293659023E+02 -0.11404853512E+02  0.62270998328E+01  0.24945287547E+02  0.51100000000E-03 0.  1.
        -11    1    3    3    0    0  0.34607905604E+01 -0.90664016092E+01  0.10046185055E+02  0.13967911220E+02  0.51100000000E-03 0. -1.
        -12    1    3    3    0    0 -0.97066916825E+00 -0.36939389531E+00 -0.20362273958E+02  0.20388743247E+02  0.00000000000E+00 0.  1.
</event>
<event>
 7    1  0.6672802E-013  0.5930200E+02  0.7816164E-02  0.1266605E+00
        -11   -1    0    0    0    0  0.00000000000E+00  0.00000000000E+00  0.45593999997E+02  0.45594000000E+02  0.51100000000E-03 0.  1.
         11   -1    0    0    0    0 -0.00000000000E+00 -0.00000000000E+00 -0.45593999997E+02  0.45594000000E+02  0.51100000000E-03 0. -1.
    9900012    2    1    2    0    0  0.23948932070E+02  0.12421013238E+02  0.16996584715E+02  0.59302002931E+02  0.50000107425E+02 0.  0.
         12    1    1    2    0    0 -0.23948932070E+02 -0.12421013238E+02 -0.16996584715E+02  0.31885997069E+02  0.00000000000E+00 0. -1.
         11    1    3    3    0    0  0.82050532098E+01  0.88823487372E+01  0.27544033892E+01  0.12401844845E+02  0.51100000000E-03 0. -1.
        -11    1    3    3    0    0  0.16225653785E+02  0.19003932441E+02  0.18218447133E+02  0.30924635894E+02  0.51100000000E-03 0.  1.
         12    1    3    3    0    0 -0.48177492489E+00 -0.15465267940E+02 -0.39762658074E+01  0.15975522192E+02  0.00000000000E+00 0. -1.
</event>
<event>
 7    1  0.6672802E-013  0.5930193E+02  0.7816164E-02  0.1266605E+00
        -11   -1    0    0    0    0  0.00000000000E+00  0.00000000000E+00  0.45593999997E+02  0.45594000000E+02  0.51100000000E-03 0. -1.
         11   -1    0    0    0    0 -0.00000000000E+00 -0.00000000000E+00 -0.45593999997E+02  0.45594000000E+02  0.51100000000E-03 0.  1.
    9900012    2    1    2    0    0  0.16064291856E+02 -0.16200139364E+02 -0.22275892732E+02  0.59301931172E+02  0.49999976555E+02 0.  0.
         12    1    1    2    0    0 -0.16064291856E+02  0.16200139364E+02  0.22275892732E+02  0.31886068828E+02  0.00000000000E+00 0. -1.
         11    1    3    3    0    0 -0.13475673417E+02 -0.14840379965E+02 -0.12606569937E+02  0.23680292595E+02  0.51100000000E-03 0. -1.
        -11    1    3    3    0    0  0.80085289430E+01 -0.48087483053E+00 -0.11469687407E+02  0.13997196359E+02  0.51100000000E-03 0.  1.
         12    1    3    3    0    0  0.21531436330E+02 -0.87888456891E+00  0.18003646124E+01  0.21624442218E+02  0.00000000000E+00 0. -1.
</event>
<event>
 7    1  0.6672802E-013  0.5930194E+02  0.7816164E-02  0.1266605E+00
        -11   -1    0    0    0    0  0.00000000000E+00  0.00000000000E+00  0.45593999997E+02  0.45594000000E+02  0.51100000000E-03 0. -1.
         11   -1    0    0    0    0 -0.00000000000E+00 -0.00000000000E+00 -0.45593999997E+02  0.45594000000E+02  0.51100000000E-03 0.  1.
    9900012    2    1    2    0    0 -0.18069187742E+02  0.85543141069E+01 -0.24840474751E+02  0.59301936879E+02  0.49999986962E+02 0.  0.
         12    1    1    2    0    0  0.18069187742E+02 -0.85543141069E+01  0.24840474751E+02  0.31886063121E+02  0.00000000000E+00 0. -1.
         11    1    3    3    0    0  0.35117381706E+01 -0.96989831239E+00 -0.19583177870E+01  0.41361838126E+01  0.51100000000E-03 0. -1.
        -11    1    3    3    0    0  0.92501549571E+01  0.12649896298E+02  0.14885391712E+01  0.15741695976E+02  0.51100000000E-03 0.  1.
         12    1    3    3    0    0 -0.30831080870E+02 -0.31256838785E+01 -0.24370696135E+02  0.39424057090E+02  0.00000000000E+00 0. -1.
</event>
<event>
 7    1  0.6672802E-013  0.5930195E+02  0.7816164E-02  0.1266605E+00
        -11   -1    0    0    0    0  0.00000000000E+00  0.00000000000E+00  0.45593999997E+02  0.45594000000E+02  0.51100000000E-03 0. -1.
         11   -1    0    0    0    0 -0.00000000000E+00 -0.00000000000E+00 -0.45593999997E+02  0.45594000000E+02  0.51100000000E-03 0.  1.
    9900012    2    1    2    0    0 -0.71614904483E+01 -0.23742355754E+02 -0.20043301775E+02  0.59301947434E+02  0.50000006213E+02 0.  0.
         12    1    1    2    0    0  0.71614904483E+01  0.23742355754E+02  0.20043301775E+02  0.31886052566E+02  0.00000000000E+00 0. -1.
         11    1    3    3    0    0  0.98949578515E+01  0.16933855412E+01 -0.67409721894E+01  0.12092082194E+02  0.51100000000E-03 0. -1.
        -11    1    3    3    0    0 -0.54030680841E+01 -0.31307600556E+02 -0.12483774407E+02  0.34135079039E+02  0.51100000000E-03 0.  1.
         12    1    3    3    0    0 -0.11653380216E+02  0.58718592608E+01 -0.81855517898E+00  0.13074786201E+02  0.00000000000E+00 0. -1.
</event>
<event>
 7    1  0.6672802E-013  0.5930190E+02  0.7816164E-02  0.1266605E+00
        -11   -1    0    0    0    0  0.00000000000E+00  0.00000000000E+00  0.45593999997E+02  0.45594000000E+02  0.51100000000E-03 0.  1.
         11   -1    0    0    0    0 -0.00000000000E+00 -0.00000000000E+00 -0.45593999997E+02  0.45594000000E+02  0.51100000000E-03 0. -1.
    9900012    2    1    2    0    0  0.21554647906E+02  0.23480374816E+02 -0.89037514789E+00  0.59301896196E+02  0.49999912767E+02 0.  0.
         12    1    1    2    0    0 -0.21554647906E+02 -0.23480374816E+02  0.89037514789E+00  0.31886103804E+02  0.00000000000E+00 0. -1.
         11    1    3    3    0    0  0.73620502801E+01 -0.80373271015E+01 -0.12204792001E+02  0.16363231933E+02  0.51100000000E-03 0. -1.
        -11    1    3    3    0    0 -0.61555006895E+01  0.10408452085E+02  0.28966266459E+01  0.12434488720E+02  0.51100000000E-03 0.  1.
        -12    1    3    3    0    0  0.20348098316E+02  0.21109249833E+02  0.84177902071E+01  0.30504175543E+02  0.00000000000E+00 0.  1.
</event>
<event>
 7    1  0.6672802E-013  0.5930194E+02  0.7816164E-02  0.1266605E+00
        -11   -1    0    0    0    0  0.00000000000E+00  0.00000000000E+00  0.45593999997E+02  0.45594000000E+02  0.51100000000E-03 0. -1.
         11   -1    0    0    0    0 -0.00000000000E+00 -0.00000000000E+00 -0.45593999997E+02  0.45594000000E+02  0.51100000000E-03 0.  1.
    9900012    2    1    2    0    0 -0.62644723115E+01  0.30110648985E+02 -0.84158145981E+01  0.59301941432E+02  0.49999995267E+02 0.  0.
         12    1    1    2    0    0  0.62644723115E+01 -0.30110648985E+02  0.84158145981E+01  0.31886058568E+02  0.00000000000E+00 0. -1.
         11    1    3    3    0    0 -0.98803035511E+01  0.12587233992E+02  0.30543438177E+01  0.16290729703E+02  0.51100000000E-03 0. -1.
        -11    1    3    3    0    0 -0.58369208510E+00  0.29090572066E+02 -0.70776307779E+01  0.29944864957E+02  0.51100000000E-03 0.  1.
         12    1    3    3    0    0  0.41995233248E+01 -0.11567157074E+02 -0.43925276379E+01  0.13066346773E+02  0.00000000000E+00 0. -1.
</event>
<event>
 7    1  0.6672802E-013  0.5930197E+02  0.7816164E-02  0.1266605E+00
        -11   -1    0    0    0    0  0.00000000000E+00  0.00000000000E+00  0.45593999997E+02  0.45594000000E+02  0.51100000000E-03 0. -1.
         11   -1    0    0    0    0 -0.00000000000E+00 -0.00000000000E+00 -0.45593999997E+02  0.45594000000E+02  0.51100000000E-03 0.  1.
    9900012    2    1    2    0    0  0.22341968074E+01  0.31794595705E+02  0.91140509694E+00  0.59301974681E+02  0.50000055904E+02 0.  0.
         12    1    1    2    0    0 -0.22341968074E+01 -0.31794595705E+02 -0.91140509694E+00  0.31886025319E+02  0.00000000000E+00 0. -1.
         11    1    3    3    0    0  0.33142224336E+01  0.30250897266E+02  0.95109208151E+01  0.31883514090E+02  0.51100000000E-03 0. -1.
        -11    1    3    3    0    0 -0.21682296768E+01  0.13224359580E+02 -0.99441421384E+00  0.13437773853E+02  0.51100000000E-03 0.  1.
         12    1    3    3    0    0  0.10882040506E+01 -0.11680661141E+02 -0.76051015043E+01  0.13980686737E+02  0.00000000000E+00 0. -1.
</event>
<event>
 7    1  0.6672802E-013  0.5930195E+02  0.7816164E-02  0.1266605E+00
        -11   -1    0    0    0    0  0.00000000000E+00  0.00000000000E+00  0.45593999997E+02  0.45594000000E+02  0.51100000000E-03 0. -1.
         11   -1    0    0    0    0 -0.00000000000E+00 -0.00000000000E+00 -0.45593999997E+02  0.45594000000E+02  0.51100000000E-03 0.  1.
    9900012    2    1    2    0    0 -0.11857626458E+02 -0.27613915243E+02 -0.10657795564E+02  0.59301949342E+02  0.50000009692E+02 0.  0.
         12    1    1    2    0    0  0.11857626458E+02  0.27613915243E+02  0.10657795564E+02  0.31886050658E+02  0.00000000000E+00 0. -1.
         11    1    3    3    0    0 -0.28658105386E+01  0.71023313404E+01  0.73563724610E+01  0.10619425434E+02  0.51100000000E-03 0. -1.
        -11    1    3    3    0    0  0.71874811886E+01 -0.24302012643E+02 -0.14257753933E+02  0.29078020081E+02  0.51100000000E-03 0.  1.
         12    1    3    3    0    0 -0.16179297108E+02 -0.10414233940E+02 -0.37564140922E+01  0.19604503827E+02  0.00000000000E+00 0. -1.
</event>
<event>
 7    1  0.6672802E-013  0.5930189E+02  0.7816164E-02  0.1266605E+00
        -11   -1    0    0    0    0  0.00000000000E+00  0.00000000000E+00  0.45593999997E+02  0.45594000000E+02  0.51100000000E-03 0. -1.
         11   -1    0    0    0    0 -0.00000000000E+00 -0.00000000000E+00 -0.45593999997E+02  0.45594000000E+02  0.51100000000E-03 0.  1.
    9900012    2    1    2    0    0 -0.31215333992E+02  0.15123808230E+01 -0.63276635644E+01  0.59301894905E+02  0.49999910411E+02 0.  0.
         12    1    1    2    0    0  0.31215333992E+02 -0.15123808230E+01  0.63276635644E+01  0.31886105095E+02  0.00000000000E+00 0. -1.
         11    1    3    3    0    0  0.20895210998E+01  0.36123049233E+01 -0.56385573071E+01  0.70148538154E+01  0.51100000000E-03 0. -1.
        -11    1    3    3    0    0 -0.32043171914E+02  0.10570377710E+02 -0.11433961455E+02  0.35626299640E+02  0.51100000000E-03 0.  1.
         12    1    3    3    0    0 -0.12616831777E+01 -0.12670301811E+02  0.10744855198E+02  0.16660741449E+02  0.00000000000E+00 0. -1.
</event>
<event>
 7    1  0.6672802E-013  0.5930190E+02  0.7816164E-02  0.1266605E+00
        -11   -1    0    0    0    0  0.00000000000E+00  0.00000000000E+00  0.45593999997E+02  0.45594000000E+02  0.51100000000E-03 0.  1.
         11   -1    0    0    0    0 -0.00000000000E+00 -0.00000000000E+00 -0.45593999997E+02  0.45594000000E+02  0.51100000000E-03 0. -1.
    9900012    2    1    2    0    0 -0.16338664566E+02 -0.80392366547E+01  0.26175222977E+02  0.59301896699E+02  0.49999913684E+02 0.  0.
         12    1    1    2    0    0  0.16338664566E+02  0.80392366547E+01 -0.26175222977E+02  0.31886103301E+02  0.00000000000E+00 0. -1.
         11    1    3    3    0    0  0.12767487683E+01 -0.13878949999E+02  0.18204054650E+02  0.22926904423E+02  0.51100000000E-03 0.  1.
        -11    1    3    3    0    0 -0.60613175155E+00 -0.11144371479E+02  0.37802466688E+00  0.11167242913E+02  0.51100000000E-03 0. -1.
        -12    1    3    3    0    0 -0.17009281583E+02  0.16984084824E+02  0.75931436607E+01  0.25207749363E+02  0.00000000000E+00 0.  1.
</event>
<event>
 7    1  0.6672802E-013  0.5930195E+02  0.7816164E-02  0.1266605E+00
        -11   -1    0    0    0    0  0.00000000000E+00  0.00000000000E+00  0.45593999997E+02  0.45594000000E+02  0.51100000000E-03 0. -1.
         11   -1    0    0    0    0 -0.00000000000E+00 -0.00000000000E+00 -0.45593999997E+02  0.45594000000E+02  0.51100000000E-03 0.  1.
    9900012    2    1    2    0    0  0.22339536141E+02  0.15186719688E+01 -0.22701524416E+02  0.59301945833E+02  0.50000003292E+02 0.  0.
         12    1    1    2    0    0 -0.22339536141E+02 -0.15186719688E+01  0.22701524416E+02  0.31886054167E+02  0.00000000000E+00 0. -1.
         11    1    3    3    0    0  0.15089652566E+02 -0.14438567617E+02 -0.16322205433E+01  0.20948364937E+02  0.51100000000E-03 0.  1.
        -11    1    3    3    0    0  0.50083520193E+01  0.32935341988E+01  0.59399316049E+01  0.84388236858E+01  0.51100000000E-03 0. -1.
        -12    1    3    3    0    0  0.22415315556E+01  0.12663705387E+02 -0.27009235478E+02  0.29914757210E+02  0.00000000000E+00 0.  1.
</event>
<event>
 7    1  0.6672802E-013  0.5930199E+02  0.7816164E-02  0.1266605E+00
        -11   -1    0    0    0    0  0.00000000000E+00  0.00000000000E+00  0.45593999997E+02  0.45594000000E+02  0.51100000000E-03 0. -1.
         11   -1    0    0    0    0 -0.00000000000E+00 -0.00000000000E+00 -0.45593999997E+02  0.45594000000E+02  0.51100000000E-03 0.  1.
    9900012    2    1    2    0    0 -0.14617408150E+02 -0.16682140243E+02 -0.22907529814E+02  0.59301994507E+02  0.50000092063E+02 0.  0.
         12    1    1    2    0    0  0.14617408150E+02  0.16682140243E+02  0.22907529814E+02  0.31886005493E+02  0.00000000000E+00 0. -1.
         11    1    3    3    0    0 -0.94858586615E+01 -0.52968443256E+01  0.37508734334E+01  0.11493786414E+02  0.51100000000E-03 0. -1.
        -11    1    3    3    0    0 -0.20836296707E+02 -0.10060933457E+01 -0.14131035893E+02  0.25196223129E+02  0.51100000000E-03 0.  1.
         12    1    3    3    0    0  0.15704747219E+02 -0.10379202571E+02 -0.12527367354E+02  0.22611984965E+02  0.00000000000E+00 0. -1.
</event>
<event>
 7    1  0.6672802E-013  0.5930193E+02  0.7816164E-02  0.1266605E+00
        -11   -1    0    0    0    0  0.00000000000E+00  0.00000000000E+00  0.45593999997E+02  0.45594000000E+02  0.51100000000E-03 0. -1.
         11   -1    0    0    0    0 -0.00000000000E+00 -0.00000000000E+00 -0.45593999997E+02  0.45594000000E+02  0.51100000000E-03 0.  1.
    9900012    2    1    2    0    0 -0.18044760423E+02  0.22940331905E+02 -0.12839369696E+02  0.59301927479E+02  0.49999969819E+02 0.  0.
         12    1    1    2    0    0  0.18044760423E+02 -0.22940331905E+02  0.12839369696E+02  0.31886072521E+02  0.00000000000E+00 0. -1.
         11    1    3    3    0    0 -0.84947889791E+01 -0.12114329127E+02 -0.27175532983E+01  0.15043387457E+02  0.51100000000E-03 0. -1.
        -11    1    3    3    0    0 -0.11736511666E+02  0.46904237770E+01 -0.32324733918E+01  0.13045867767E+02  0.51100000000E-03 0.  1.
        -12    1    3    3    0    0  0.21865402229E+01  0.30364237255E+02 -0.68893430054E+01  0.31212672255E+02  0.00000000000E+00 0.  1.
</event>
<event>
 7    1  0.6672802E-013  0.5930193E+02  0.7816164E-02  0.1266605E+00
        -11   -1    0    0    0    0  0.00000000000E+00  0.00000000000E+00  0.45593999997E+02  0.45594000000E+02  0.51100000000E-03 0. -1.
         11   -1    0    0    0    0 -0.00000000000E+00 -0.00000000000E+00 -0.45593999997E+02  0.45594000000E+02  0.51100000000E-03 0.  1.
    9900012    2    1    2    0    0  0.26824471338E+02  0.12466701459E+02  0.11905900788E+02  0.59301931233E+02  0.49999976666E+02 0.  0.
         12    1    1    2    0    0 -0.26824471338E+02 -0.12466701459E+02 -0.11905900788E+02  0.31886068767E+02  0.00000000000E+00 0. -1.
         11    1    3    3    0    0  0.12374749906E+02 -0.88418112388E+01  0.15859390685E+02  0.21973446120E+02  0.51100000000E-03 0. -1.
        -11    1    3    3    0    0  0.17945011922E+02  0.52197817585E+01 -0.80714821152E+01  0.20357268930E+02  0.51100000000E-03 0.  1.
        -12    1    3    3    0    0 -0.34952904900E+01  0.16088730939E+02  0.41179922180E+01  0.16971216184E+02  0.00000000000E+00 0.  1.
</event>
<event>
 7    1  0.6672802E-013  0.5930194E+02  0.7816164E-02  0.1266605E+00
        -11   -1    0    0    0    0  0.00000000000E+00  0.00000000000E+00  0.45593999997E+02  0.45594000000E+02  0.51100000000E-03 0. -1.
         11   -1    0    0    0    0 -0.00000000000E+00 -0.00000000000E+00 -0.45593999997E+02  0.45594000000E+02  0.51100000000E-03 0.  1.
    9900012    2    1    2    0    0 -0.26216899144E+02 -0.17676637299E+02  0.41147866232E+01  0.59301940728E+02  0.49999993983E+02 0.  0.
         12    1    1    2    0    0  0.26216899144E+02  0.17676637299E+02 -0.41147866232E+01  0.31886059272E+02  0.00000000000E+00 0. -1.
         11    1    3    3    0    0  0.14917342978E+01 -0.72665340412E+01  0.53050741605E+01  0.91198465062E+01  0.51100000000E-03 0. -1.
        -11    1    3    3    0    0  0.30433444808E+01 -0.10033206682E+02  0.12672769091E+02  0.16447682470E+02  0.51100000000E-03 0.  1.
        -12    1    3    3    0    0 -0.30751977923E+02 -0.37689657561E+00 -0.13863056628E+02  0.33734411752E+02  0.00000000000E+00 0.  1.
</event>
<event>
 7    1  0.6672802E-013  0.5930196E+02  0.7816164E-02  0.1266605E+00
        -11   -1    0    0    0    0  0.00000000000E+00  0.00000000000E+00  0.45593999997E+02  0.45594000000E+02  0.51100000000E-03 0. -1.
         11   -1    0    0    0    0 -0.00000000000E+00 -0.00000000000E+00 -0.45593999997E+02  0.45594000000E+02  0.51100000000E-03 0.  1.
    9900012    2    1    2    0    0  0.12986503261E+02  0.29120476919E+02 -0.26075379590E+00  0.59301961747E+02  0.50000032316E+02 0.  0.
         12    1    1    2    0    0 -0.12986503261E+02 -0.29120476919E+02  0.26075379590E+00  0.31886038253E+02  0.00000000000E+00 0. -1.
         11    1    3    3    0    0  0.18411036511E+02  0.24283016858E+02 -0.42454907495E+01  0.30767765033E+02  0.51100000000E-03 0.  1.
        -11    1    3    3    0    0  0.19323172589E+01 -0.64314386226E+01  0.11353681975E+02  0.13191032840E+02  0.51100000000E-03 0. -1.
        -12    1    3    3    0    0 -0.73568505095E+01  0.11268898683E+02 -0.73689450211E+01  0.15343163874E+02  0.00000000000E+00 0.  1.
</event>
<event>
 7    1  0.6672802E-013  0.5930195E+02  0.7816164E-02  0.1266605E+00
        -11   -1    0    0    0    0  0.00000000000E+00  0.00000000000E+00  0.45593999997E+02  0.45594000000E+02  0.51100000000E-03 0.  1.
         11   -1    0    0    0    0 -0.00000000000E+00 -0.00000000000E+00 -0.45593999997E+02  0.45594000000E+02  0.51100000000E-03 0. -1.
    9900012    2    1    2    0    0  0.56530137849E+01 -0.20853344477E+02  0.23449978817E+02  0.59301952154E+02  0.50000014820E+02 0.  0.
         12    1    1    2    0    0 -0.56530137849E+01  0.20853344477E+02 -0.23449978817E+02  0.31886047846E+02  0.00000000000E+00 0. -1.
         11    1    3    3    0    0 -0.12938013272E+02 -0.18979207995E+02  0.14936781204E+02  0.27399086783E+02  0.51100000000E-03 0. -1.
        -11    1    3    3    0    0 -0.30029888863E+01 -0.72004604371E+01 -0.69154860513E+00  0.78321652493E+01  0.51100000000E-03 0.  1.
         12    1    3    3    0    0  0.21594015943E+02  0.53263239546E+01  0.92047462175E+01  0.24070700122E+02  0.00000000000E+00 0. -1.
</event>
<event>
 7    1  0.6672802E-013  0.5930210E+02  0.7816164E-02  0.1266604E+00
        -11   -1    0    0    0    0  0.00000000000E+00  0.00000000000E+00  0.45593999997E+02  0.45594000000E+02  0.51100000000E-03 0.  1.
         11   -1    0    0    0    0 -0.00000000000E+00 -0.00000000000E+00 -0.45593999997E+02  0.45594000000E+02  0.51100000000E-03 0. -1.
    9900012    2    1    2    0    0  0.95590763592E+01 -0.19923077767E+02  0.22987075324E+02  0.59302100287E+02  0.50000284979E+02 0.  0.
         12    1    1    2    0    0 -0.95590763592E+01  0.19923077767E+02 -0.22987075324E+02  0.31885899713E+02  0.00000000000E+00 0. -1.
         11    1    3    3    0    0 -0.24240945936E+01 -0.12793770295E+02  0.12991309150E+02  0.18393773584E+02  0.51100000000E-03 0. -1.
        -11    1    3    3    0    0 -0.13215919074E+02 -0.37448353793E+01  0.66581535641E+01  0.15264839276E+02  0.51100000000E-03 0.  1.
         12    1    3    3    0    0  0.25199090027E+02 -0.33844720925E+01  0.33376126100E+01  0.25643487428E+02  0.00000000000E+00 0. -1.
</event>
<event>
 7    1  0.6672802E-013  0.5930192E+02  0.7816164E-02  0.1266605E+00
        -11   -1    0    0    0    0  0.00000000000E+00  0.00000000000E+00  0.45593999997E+02  0.45594000000E+02  0.51100000000E-03 0.  1.
         11   -1    0    0    0    0 -0.00000000000E+00 -0.00000000000E+00 -0.45593999997E+02  0.45594000000E+02  0.51100000000E-03 0. -1.
    9900012    2    1    2    0    0  0.15124774546E+02 -0.25707374156E+02  0.11273620701E+02  0.59301915029E+02  0.49999947114E+02 0.  0.
         12    1    1    2    0    0 -0.15124774546E+02  0.25707374156E+02 -0.11273620701E+02  0.31886084971E+02  0.00000000000E+00 0. -1.
         11    1    3    3    0    0  0.70881798414E+01  0.14667445857E+01 -0.14100183419E+02  0.15849568002E+02  0.51100000000E-03 0. -1.
        -11    1    3    3    0    0  0.13410498385E+02 -0.95372889691E+01  0.88028578723E+01  0.18662573638E+02  0.51100000000E-03 0.  1.
        -12    1    3    3    0    0 -0.53739036801E+01 -0.17636829773E+02  0.16570946247E+02  0.24789773390E+02  0.00000000000E+00 0.  1.
</event>
<event>
 7    1  0.6672802E-013  0.5930195E+02  0.7816164E-02  0.1266605E+00
        -11   -1    0    0    0    0  0.00000000000E+00  0.00000000000E+00  0.45593999997E+02  0.45594000000E+02  0.51100000000E-03 0.  1.
         11   -1    0    0    0    0 -0.00000000000E+00 -0.00000000000E+00 -0.45593999997E+02  0.45594000000E+02  0.51100000000E-03 0. -1.
    9900012    2    1    2    0    0 -0.40924299308E+01  0.26534462715E+02  0.17201587643E+02  0.59301948006E+02  0.50000007256E+02 0.  0.
         12    1    1    2    0    0  0.40924299308E+01 -0.26534462715E+02 -0.17201587643E+02  0.31886051994E+02  0.00000000000E+00 0. -1.
         11    1    3    3    0    0 -0.49321650185E+01  0.13269714485E+02 -0.17387041891E+01  0.14263052506E+02  0.51100000000E-03 0. -1.
        -11    1    3    3    0    0  0.27195282684E+01  0.20485826187E+02  0.27035632786E+02  0.34029257249E+02  0.51100000000E-03 0.  1.
         12    1    3    3    0    0 -0.18797931807E+01 -0.72210779570E+01 -0.80953409530E+01  0.11009638251E+02  0.00000000000E+00 0. -1.
</event>
<event>
 7    1  0.6672802E-013  0.5930190E+02  0.7816164E-02  0.1266605E+00
        -11   -1    0    0    0    0  0.00000000000E+00  0.00000000000E+00  0.45593999997E+02  0.45594000000E+02  0.51100000000E-03 0. -1.
         11   -1    0    0    0    0 -0.00000000000E+00 -0.00000000000E+00 -0.45593999997E+02  0.45594000000E+02  0.51100000000E-03 0.  1.
    9900012    2    1    2    0    0 -0.11171968267E+02 -0.10865515797E+02 -0.27818173863E+02  0.59301904197E+02  0.49999927358E+02 0.  0.
         12    1    1    2    0    0  0.11171968267E+02  0.10865515797E+02  0.27818173863E+02  0.31886095803E+02  0.00000000000E+00 0. -1.
         11    1    3    3    0    0 -0.18107183222E+01 -0.91161921396E+00 -0.18910199941E+02  0.19018554428E+02  0.51100000000E-03 0.  1.
        -11    1    3    3    0    0 -0.11839724896E+01  0.13198252889E+02 -0.84674837362E+01  0.15725582701E+02  0.51100000000E-03 0. -1.
         12    1    3    3    0    0 -0.81772774548E+01 -0.23152149473E+02 -0.44049018588E+00  0.24557767068E+02  0.00000000000E+00 0. -1.
</event>
<event>
 7    1  0.6672802E-013  0.5930195E+02  0.7816164E-02  0.1266605E+00
        -11   -1    0    0    0    0  0.00000000000E+00  0.00000000000E+00  0.45593999997E+02  0.45594000000E+02  0.51100000000E-03 0.  1.
         11   -1    0    0    0    0 -0.00000000000E+00 -0.00000000000E+00 -0.45593999997E+02  0.45594000000E+02  0.51100000000E-03 0. -1.
    9900012    2    1    2    0    0  0.96412534445E+01 -0.18103005088E+02 -0.24414084621E+02  0.59301951498E+02  0.50000013624E+02 0.  0.
         12    1    1    2    0    0 -0.96412534445E+01  0.18103005088E+02  0.24414084621E+02  0.31886048502E+02  0.00000000000E+00 0. -1.
         11    1    3    3    0    0  0.44292397132E+01  0.16620643121E+00 -0.19194870251E+01  0.48301366146E+01  0.51100000000E-03 0. -1.
        -11    1    3    3    0    0  0.18152489642E+02 -0.19667569159E+01  0.59692433661E+01  0.19209707952E+02  0.51100000000E-03 0.  1.
         12    1    3    3    0    0 -0.12940475911E+02 -0.16302454603E+02 -0.28463840962E+02  0.35262106931E+02  0.00000000000E+00 0. -1.
</event>
<event>
 7    1  0.6672802E-013  0.5930190E+02  0.7816164E-02  0.1266605E+00
        -11   -1    0    0    0    0  0.00000000000E+00  0.00000000000E+00  0.45593999997E+02  0.45594000000E+02  0.51100000000E-03 0.  1.
         11   -1    0    0    0    0 -0.00000000000E+00 -0.00000000000E+00 -0.45593999997E+02  0.45594000000E+02  0.51100000000E-03 0. -1.
    9900012    2    1    2    0    0  0.64315416487E+01  0.18272887843E+02  0.25327062710E+02  0.59301901719E+02  0.49999922838E+02 0.  0.
         12    1    1    2    0    0 -0.64315416487E+01 -0.18272887843E+02 -0.25327062710E+02  0.31886098281E+02  0.00000000000E+00 0. -1.
         11    1    3    3    0    0  0.40942349577E+01 -0.84093774166E+01 -0.50156094620E+01  0.10613045131E+02  0.51100000000E-03 0. -1.
        -11    1    3    3    0    0  0.49466926725E-01  0.89991404828E+01 -0.41117286351E+01  0.98941037510E+01  0.51100000000E-03 0.  1.
        -12    1    3    3    0    0  0.22878397643E+01  0.17683124776E+02  0.34454400807E+02  0.38794752836E+02  0.00000000000E+00 0.  1.
</event>
<event>
 7    1  0.6672802E-013  0.5930194E+02  0.7816164E-02  0.1266605E+00
        -11   -1    0    0    0    0  0.00000000000E+00  0.00000000000E+00  0.45593999997E+02  0.45594000000E+02  0.51100000000E-03 0.  1.
         11   -1    0    0    0    0 -0.00000000000E+00 -0.00000000000E+00 -0.45593999997E+02  0.45594000000E+02  0.51100000000E-03 0. -1.
    9900012    2    1    2    0    0  0.15641020451E+02 -0.21474834041E+02 -0.17632657025E+02  0.59301943304E+02  0.49999998681E+02 0.  0.
         12    1    1    2    0    0 -0.15641020451E+02  0.21474834041E+02  0.17632657025E+02  0.31886056696E+02  0.00000000000E+00 0. -1.
         11    1    3    3    0    0 -0.86292726447E+01 -0.12917928614E+02  0.22083937585E+01  0.15691215036E+02  0.51100000000E-03 0. -1.
        -11    1    3    3    0    0  0.65666676571E+01 -0.10384685718E+02  0.48198462986E+01  0.13198247618E+02  0.51100000000E-03 0.  1.
         12    1    3    3    0    0  0.17703625438E+02  0.18277802898E+01 -0.24660897082E+02  0.30412480651E+02  0.00000000000E+00 0. -1.
</event>
<event>
 7    1  0.6672802E-013  0.5930196E+02  0.7816164E-02  0.1266605E+00
        -11   -1    0    0    0    0  0.00000000000E+00  0.00000000000E+00  0.45593999997E+02  0.45594000000E+02  0.51100000000E-03 0.  1.
         11   -1    0    0    0    0 -0.00000000000E+00 -0.00000000000E+00 -0.45593999997E+02  0.45594000000E+02  0.51100000000E-03 0. -1.
    9900012    2    1    2    0    0  0.13581593924E+02 -0.26793605815E+02 -0.10694056636E+02  0.59301955193E+02  0.50000020363E+02 0.  0.
         12    1    1    2    0    0 -0.13581593924E+02  0.26793605815E+02  0.10694056636E+02  0.31886044807E+02  0.00000000000E+00 0. -1.
         11    1    3    3    0    0 -0.53695672333E+01 -0.19393533447E+02 -0.24029265915E+02  0.31342415550E+02  0.51100000000E-03 0. -1.
        -11    1    3    3    0    0 -0.81098008758E-01 -0.52843525655E+01  0.41579176534E+01  0.67245251429E+01  0.51100000000E-03 0.  1.
        -12    1    3    3    0    0  0.19032259166E+02 -0.21157198030E+01  0.91772916256E+01  0.21235014500E+02  0.00000000000E+00 0.  1.
</event>
<event>
 7    1  0.6672802E-013  0.5930193E+02  0.7816164E-02  0.1266605E+00
        -11   -1    0    0    0    0  0.00000000000E+00  0.00000000000E+00  0.45593999997E+02  0.45594000000E+02  0.51100000000E-03 0. -1.
         11   -1    0    0    0    0 -0.00000000000E+00 -0.00000000000E+00 -0.45593999997E+02  0.45594000000E+02  0.51100000000E-03 0.  1.
    9900012    2    1    2    0    0 -0.55673450937E+01 -0.31364463254E+02  0.14130667136E+01  0.59301927113E+02  0.49999969152E+02 0.  0.
         12    1    1    2    0    0  0.55673450937E+01  0.31364463254E+02 -0.14130667136E+01  0.31886072887E+02  0.00000000000E+00 0. -1.
         11    1    3    3    0    0  0.54678059237E+01 -0.24647543286E+02  0.12833574346E+02  0.28321350998E+02  0.51100000000E-03 0. -1.
        -11    1    3    3    0    0 -0.18397885014E+02 -0.77719851092E+01 -0.37972743198E+01  0.20329909446E+02  0.51100000000E-03 0.  1.
        -12    1    3    3    0    0  0.73627339970E+01  0.10550651406E+01 -0.76232333122E+01  0.10650666669E+02  0.00000000000E+00 0.  1.
</event>
<event>
 7    1  0.6672802E-013  0.5930195E+02  0.7816164E-02  0.1266605E+00
        -11   -1    0    0    0    0  0.00000000000E+00  0.00000000000E+00  0.45593999997E+02  0.45594000000E+02  0.51100000000E-03 0. -1.
         11   -1    0    0    0    0 -0.00000000000E+00 -0.00000000000E+00 -0.45593999997E+02  0.45594000000E+02  0.51100000000E-03 0.  1.
    9900012    2    1    2    0    0 -0.31559867819E+02 -0.35834837914E+01 -0.28023793891E+01  0.59301953787E+02  0.50000017799E+02 0.  0.
         12    1    1    2    0    0  0.31559867819E+02  0.35834837914E+01  0.28023793891E+01  0.31886046213E+02  0.00000000000E+00 0. -1.
         11    1    3    3    0    0 -0.52774037191E+01 -0.74233687409E+01 -0.10080131172E+02  0.13585523110E+02  0.51100000000E-03 0. -1.
        -11    1    3    3    0    0 -0.69481339023E+01 -0.14180460098E+02  0.10686650770E+02  0.19067420336E+02  0.51100000000E-03 0.  1.
         12    1    3    3    0    0 -0.19334330198E+02  0.18020345048E+02 -0.34088989868E+01  0.26649010341E+02  0.00000000000E+00 0. -1.
</event>
<event>
 7    1  0.6672802E-013  0.5930194E+02  0.7816164E-02  0.1266605E+00
        -11   -1    0    0    0    0  0.00000000000E+00  0.00000000000E+00  0.45593999997E+02  0.45594000000E+02  0.51100000000E-03 0. -1.
         11   -1    0    0    0    0 -0.00000000000E+00 -0.00000000000E+00 -0.45593999997E+02  0.45594000000E+02  0.51100000000E-03 0.  1.
    9900012    2    1    2    0    0 -0.10305814413E+02 -0.28601137529E+02 -0.96169574815E+01  0.59301941136E+02  0.49999994726E+02 0.  0.
         12    1    1    2    0    0  0.10305814413E+02  0.28601137529E+02  0.96169574815E+01  0.31886058864E+02  0.00000000000E+00 0. -1.
         11    1    3    3    0    0  0.11526065436E+02 -0.24489907419E+01  0.90706479417E-01  0.11783716223E+02  0.51100000000E-03 0. -1.
        -11    1    3    3    0    0 -0.24302721836E+02 -0.71002922827E+01  0.13448222125E+01  0.25354387908E+02  0.51100000000E-03 0.  1.
         12    1    3    3    0    0  0.24708419861E+01 -0.19051854505E+02 -0.11052486173E+02  0.22163837005E+02  0.00000000000E+00 0. -1.
</event>
<event>
 7    1  0.6672802E-013  0.5930207E+02  0.7816164E-02  0.1266604E+00
        -11   -1    0    0    0    0  0.00000000000E+00  0.00000000000E+00  0.45593999997E+02  0.45594000000E+02  0.51100000000E-03 0. -1.
         11   -1    0    0    0    0 -0.00000000000E+00 -0.00000000000E+00 -0.45593999997E+02  0.45594000000E+02  0.51100000000E-03 0.  1.
    9900012    2    1    2    0    0  0.28579069149E+02  0.13430125597E+02 -0.44250326287E+01  0.59302072372E+02  0.50000234068E+02 0.  0.
         12    1    1    2    0    0 -0.28579069149E+02 -0.13430125597E+02  0.44250326287E+01  0.31885927628E+02  0.00000000000E+00 0. -1.
         11    1    3    3    0    0 -0.82287891428E+01  0.29572290671E+01 -0.45880225302E+01  0.98746202717E+01  0.51100000000E-03 0. -1.
        -11    1    3    3    0    0  0.22013675234E+02 -0.17293924170E+01 -0.13499602279E+02  0.25881111981E+02  0.51100000000E-03 0.  1.
         12    1    3    3    0    0  0.14794183058E+02  0.12202288947E+02  0.13662592181E+02  0.23546340119E+02  0.00000000000E+00 0. -1.
</event>
<event>
 7    1  0.6672802E-013  0.5930193E+02  0.7816164E-02  0.1266605E+00
        -11   -1    0    0    0    0  0.00000000000E+00  0.00000000000E+00  0.45593999997E+02  0.45594000000E+02  0.51100000000E-03 0. -1.
         11   -1    0    0    0    0 -0.00000000000E+00 -0.00000000000E+00 -0.45593999997E+02  0.45594000000E+02  0.51100000000E-03 0.  1.
    9900012    2    1    2    0    0  0.63548347612E+01  0.27085575503E+02 -0.15579121300E+02  0.59301931794E+02  0.49999977689E+02 0.  0.
         12    1    1    2    0    0 -0.63548347612E+01 -0.27085575503E+02  0.15579121300E+02  0.31886068206E+02  0.00000000000E+00 0. -1.
         11    1    3    3    0    0 -0.15385881740E+02  0.23858844635E+01  0.20724910016E+01  0.15707100967E+02  0.51100000000E-03 0. -1.
        -11    1    3    3    0    0 -0.46113608689E+01  0.57607626741E+01 -0.26153012585E+01  0.78288464402E+01  0.51100000000E-03 0.  1.
        -12    1    3    3    0    0  0.26352077370E+02  0.18938928365E+02 -0.15036311043E+02  0.35765984386E+02  0.00000000000E+00 0.  1.
</event>
<event>
 7    1  0.6672802E-013  0.5930194E+02  0.7816164E-02  0.1266605E+00
        -11   -1    0    0    0    0  0.00000000000E+00  0.00000000000E+00  0.45593999997E+02  0.45594000000E+02  0.51100000000E-03 0.  1.
         11   -1    0    0    0    0 -0.00000000000E+00 -0.00000000000E+00 -0.45593999997E+02  0.45594000000E+02  0.51100000000E-03 0. -1.
    9900012    2    1    2    0    0 -0.12924156447E+02 -0.28725705611E+02 -0.49518406058E+01  0.59301941791E+02  0.49999995921E+02 0.  0.
         12    1    1    2    0    0  0.12924156447E+02  0.28725705611E+02  0.49518406058E+01  0.31886058209E+02  0.00000000000E+00 0. -1.
         11    1    3    3    0    0  0.98726449348E+01 -0.71069641080E+01 -0.51176713170E+01  0.13197295814E+02  0.51100000000E-03 0. -1.
        -11    1    3    3    0    0  0.24907572160E+00 -0.30843791474E+01  0.13365067016E+02  0.13718616914E+02  0.51100000000E-03 0.  1.
        -12    1    3    3    0    0 -0.23045877103E+02 -0.18534362356E+02 -0.13199236305E+02  0.32386029062E+02  0.00000000000E+00 0.  1.
</event>
<event>
 7    1  0.6672802E-013  0.5930217E+02  0.7816164E-02  0.1266604E+00
        -11   -1    0    0    0    0  0.00000000000E+00  0.00000000000E+00  0.45593999997E+02  0.45594000000E+02  0.51100000000E-03 0.  1.
         11   -1    0    0    0    0 -0.00000000000E+00 -0.00000000000E+00 -0.45593999997E+02  0.45594000000E+02  0.51100000000E-03 0. -1.
    9900012    2    1    2    0    0 -0.16221883265E+02 -0.25745316889E+02  0.95255085080E+01  0.59302170064E+02  0.50000412234E+02 0.  0.
         12    1    1    2    0    0  0.16221883265E+02  0.25745316889E+02 -0.95255085080E+01  0.31885829936E+02  0.00000000000E+00 0. -1.
         11    1    3    3    0    0  0.50949898432E+01  0.39515851401E+01  0.28173387859E+01  0.70364298275E+01  0.51100000000E-03 0. -1.
        -11    1    3    3    0    0  0.67513616307E+01 -0.93795757762E+01  0.12623356494E+02  0.17114510073E+02  0.51100000000E-03 0.  1.
         12    1    3    3    0    0 -0.28068234739E+02 -0.20317326253E+02 -0.59151867723E+01  0.35151230163E+02  0.00000000000E+00 0. -1.
</event>
<event>
 7    1  0.6672802E-013  0.5930195E+02  0.7816164E-02  0.1266605E+00
        -11   -1    0    0    0    0  0.00000000000E+00  0.00000000000E+00  0.45593999997E+02  0.45594000000E+02  0.51100000000E-03 0.  1.
         11   -1    0    0    0    0 -0.00000000000E+00 -0.00000000000E+00 -0.45593999997E+02  0.45594000000E+02  0.51100000000E-03 0. -1.
    9900012    2    1    2    0    0  0.28663585240E+02  0.11945990094E+02  0.72396410928E+01  0.59301949738E+02  0.50000010414E+02 0.  0.
         12    1    1    2    0    0 -0.28663585240E+02 -0.11945990094E+02 -0.72396410928E+01  0.31886050262E+02  0.00000000000E+00 0. -1.
         11    1    3    3    0    0  0.14506630948E+02  0.45580932966E+01 -0.15444240844E+02  0.21673558348E+02  0.51100000000E-03 0.  1.
        -11    1    3    3    0    0  0.14762752338E+02 -0.54703173282E+01  0.67114700638E+01  0.17114527716E+02  0.51100000000E-03 0. -1.
        -12    1    3    3    0    0 -0.60579804577E+00  0.12858214125E+02  0.15972411873E+02  0.20513863674E+02  0.00000000000E+00 0.  1.
</event>
<event>
 7    1  0.6672802E-013  0.5930192E+02  0.7816164E-02  0.1266605E+00
        -11   -1    0    0    0    0  0.00000000000E+00  0.00000000000E+00  0.45593999997E+02  0.45594000000E+02  0.51100000000E-03 0.  1.
         11   -1    0    0    0    0 -0.00000000000E+00 -0.00000000000E+00 -0.45593999997E+02  0.45594000000E+02  0.51100000000E-03 0. -1.
    9900012    2    1    2    0    0  0.89290718680E+01  0.27852190596E+02 -0.12698384973E+02  0.59301924256E+02  0.49999963941E+02 0.  0.
         12    1    1    2    0    0 -0.89290718680E+01 -0.27852190596E+02  0.12698384973E+02  0.31886075744E+02  0.00000000000E+00 0. -1.
         11    1    3    3    0    0 -0.88233672613E+01  0.10977958438E+02 -0.15982267635E+02  0.21302588113E+02  0.51100000000E-03 0. -1.
        -11    1    3    3    0    0 -0.28820486078E+01 -0.33867428185E+01  0.75553047384E+01  0.87669185606E+01  0.51100000000E-03 0.  1.
         12    1    3    3    0    0  0.20634487737E+02  0.20260974976E+02 -0.42714220772E+01  0.29232417583E+02  0.00000000000E+00 0. -1.
</event>
<event>
 7    1  0.6672802E-013  0.5930194E+02  0.7816164E-02  0.1266605E+00
        -11   -1    0    0    0    0  0.00000000000E+00  0.00000000000E+00  0.45593999997E+02  0.45594000000E+02  0.51100000000E-03 0.  1.
         11   -1    0    0    0    0 -0.00000000000E+00 -0.00000000000E+00 -0.45593999997E+02  0.45594000000E+02  0.51100000000E-03 0. -1.
    9900012    2    1    2    0    0 -0.87343473216E+01  0.18838841846E+02  0.24197725347E+02  0.59301941962E+02  0.49999996232E+02 0.  0.
         12    1    1    2    0    0  0.87343473216E+01 -0.18838841846E+02 -0.24197725347E+02  0.31886058038E+02  0.00000000000E+00 0. -1.
         11    1    3    3    0    0  0.15205206250E+02  0.11305041739E+02  0.17942921939E+02  0.26095032358E+02  0.51100000000E-03 0. -1.
        -11    1    3    3    0    0 -0.13437713790E+02  0.47687482049E+01  0.13910272886E+02  0.19920060325E+02  0.51100000000E-03 0.  1.
        -12    1    3    3    0    0 -0.10501839782E+02  0.27650519025E+01 -0.76554694774E+01  0.13286849278E+02  0.00000000000E+00 0.  1.
</event>
<event>
 7    1  0.6672802E-013  0.5930195E+02  0.7816164E-02  0.1266605E+00
        -11   -1    0    0    0    0  0.00000000000E+00  0.00000000000E+00  0.45593999997E+02  0.45594000000E+02  0.51100000000E-03 0.  1.
         11   -1    0    0    0    0 -0.00000000000E+00 -0.00000000000E+00 -0.45593999997E+02  0.45594000000E+02  0.51100000000E-03 0. -1.
    9900012    2    1    2    0    0 -0.80485893252E+01  0.77237412750E+00  0.30843863944E+02  0.59301948271E+02  0.50000007738E+02 0.  0.
         12    1    1    2    0    0  0.80485893252E+01 -0.77237412750E+00 -0.30843863944E+02  0.31886051729E+02  0.00000000000E+00 0. -1.
         11    1    3    3    0    0 -0.12796127729E+02  0.10014600884E+02  0.47697419782E+01  0.16934684955E+02  0.51100000000E-03 0.  1.
        -11    1    3    3    0    0 -0.20654507504E+01 -0.40823555940E+01 -0.69136526044E+01  0.82903743338E+01  0.51100000000E-03 0. -1.
         12    1    3    3    0    0  0.68129891540E+01 -0.51598711627E+01  0.32987774570E+02  0.34076888982E+02  0.00000000000E+00 0. -1.
</event>
<event>
 7    1  0.6672802E-013  0.5930196E+02  0.7816164E-02  0.1266605E+00
        -11   -1    0    0    0    0  0.00000000000E+00  0.00000000000E+00  0.45593999997E+02  0.45594000000E+02  0.51100000000E-03 0.  1.
         11   -1    0    0    0    0 -0.00000000000E+00 -0.00000000000E+00 -0.45593999997E+02  0.45594000000E+02  0.51100000000E-03 0. -1.
    9900012    2    1    2    0    0  0.26211414819E+02 -0.13351734006E+02  0.12304976918E+02  0.59301960347E+02  0.50000029762E+02 0.  0.
         12    1    1    2    0    0 -0.26211414819E+02  0.13351734006E+02 -0.12304976918E+02  0.31886039653E+02  0.00000000000E+00 0. -1.
         11    1    3    3    0    0  0.28531932347E+01 -0.90481604963E+01  0.22419839367E+02  0.24344591135E+02  0.51100000000E-03 0.  1.
        -11    1    3    3    0    0  0.11289839641E+02  0.57505652801E+01  0.45557147133E+01  0.13464175318E+02  0.51100000000E-03 0. -1.
        -12    1    3    3    0    0  0.12068381943E+02 -0.10054138790E+02 -0.14670577162E+02  0.21493193895E+02  0.00000000000E+00 0.  1.
</event>
<event>
 7    1  0.6672802E-013  0.5930193E+02  0.7816164E-02  0.1266605E+00
        -11   -1    0    0    0    0  0.00000000000E+00  0.00000000000E+00  0.45593999997E+02  0.45594000000E+02  0.51100000000E-03 0. -1.
         11   -1    0    0    0    0 -0.00000000000E+00 -0.00000000000E+00 -0.45593999997E+02  0.45594000000E+02  0.51100000000E-03 0.  1.
    9900012    2    1    2    0    0  0.45032481219E+01  0.26838402643E+01 -0.31452175370E+02  0.59301928155E+02  0.49999971051E+02 0.  0.
         12    1    1    2    0    0 -0.45032481219E+01 -0.26838402643E+01  0.31452175370E+02  0.31886071845E+02  0.00000000000E+00 0. -1.
         11    1    3    3    0    0 -0.17600631923E+02  0.33368093015E+01  0.13075268730E+00  0.17914620759E+02  0.51100000000E-03 0. -1.
        -11    1    3    3    0    0  0.79513021917E+01 -0.45635091093E+01 -0.22053284043E+02  0.23882967974E+02  0.51100000000E-03 0.  1.
        -12    1    3    3    0    0  0.14152577853E+02  0.39105400721E+01 -0.95296440148E+01  0.17504339422E+02  0.00000000000E+00 0.  1.
</event>
<event>
 7    1  0.6672802E-013  0.5930194E+02  0.7816164E-02  0.1266605E+00
        -11   -1    0    0    0    0  0.00000000000E+00  0.00000000000E+00  0.45593999997E+02  0.45594000000E+02  0.51100000000E-03 0.  1.
         11   -1    0    0    0    0 -0.00000000000E+00 -0.00000000000E+00 -0.45593999997E+02  0.45594000000E+02  0.51100000000E-03 0. -1.
    9900012    2    1    2    0    0  0.64087249734E+01  0.23661764273E+02  0.20390438825E+02  0.59301939727E+02  0.49999992156E+02 0.  0.
         12    1    1    2    0    0 -0.64087249734E+01 -0.23661764273E+02 -0.20390438825E+02  0.31886060273E+02  0.00000000000E+00 0. -1.
         11    1    3    3    0    0  0.52255359915E+00  0.68874991413E+01 -0.10169965281E+02  0.12293856220E+02  0.51100000000E-03 0. -1.
        -11    1    3    3    0    0 -0.21612144511E+01  0.42420488510E+01 -0.59245245301E+01  0.76003827224E+01  0.51100000000E-03 0.  1.
        -12    1    3    3    0    0  0.80473858253E+01  0.12532216280E+02  0.36484928636E+02  0.39407700784E+02  0.00000000000E+00 0.  1.
</event>
<event>
 7    1  0.6672802E-013  0.5930200E+02  0.7816164E-02  0.1266605E+00
        -11   -1    0    0    0    0  0.00000000000E+00  0.00000000000E+00  0.45593999997E+02  0.45594000000E+02  0.51100000000E-03 0.  1.
         11   -1    0    0    0    0 -0.00000000000E+00 -0.00000000000E+00 -0.45593999997E+02  0.45594000000E+02  0.51100000000E-03 0. -1.
    9900012    2    1    2    0    0  0.80170250171E+01 -0.13420371257E+00  0.30861401225E+02  0.59302003288E+02  0.50000108076E+02 0.  0.
         12    1    1    2    0    0 -0.80170250171E+01  0.13420371257E+00 -0.30861401225E+02  0.31885996712E+02  0.00000000000E+00 0. -1.
         11    1    3    3    0    0  0.23057811763E+01  0.38597864135E+01  0.22722390508E+01  0.50376233043E+01  0.51100000000E-03 0. -1.
        -11    1    3    3    0    0  0.14121510939E+02  0.32799298503E+01 -0.76258561991E+01  0.16380741560E+02  0.51100000000E-03 0.  1.
         12    1    3    3    0    0 -0.84102670978E+01 -0.72739199763E+01  0.36215018373E+02  0.37883638424E+02  0.00000000000E+00 0. -1.
</event>
<event>
 7    1  0.6672802E-013  0.5930194E+02  0.7816164E-02  0.1266605E+00
        -11   -1    0    0    0    0  0.00000000000E+00  0.00000000000E+00  0.45593999997E+02  0.45594000000E+02  0.51100000000E-03 0.  1.
         11   -1    0    0    0    0 -0.00000000000E+00 -0.00000000000E+00 -0.45593999997E+02  0.45594000000E+02  0.51100000000E-03 0. -1.
    9900012    2    1    2    0    0 -0.13857283977E+02  0.17759119560E+02 -0.22567900324E+02  0.59301940793E+02  0.49999994100E+02 0.  0.
         12    1    1    2    0    0  0.13857283977E+02 -0.17759119560E+02  0.22567900324E+02  0.31886059207E+02  0.00000000000E+00 0. -1.
         11    1    3    3    0    0 -0.52855556946E+00  0.60768619739E+01 -0.18234674792E+02  0.19227870071E+02  0.51100000000E-03 0. -1.
        -11    1    3    3    0    0  0.90679496965E+01  0.10982923069E+02 -0.94463317431E+01  0.17090508901E+02  0.51100000000E-03 0.  1.
         12    1    3    3    0    0 -0.22396678104E+02  0.69933451691E+00  0.51131062112E+01  0.22983561821E+02  0.00000000000E+00 0. -1.
</event>
<event>
 7    1  0.6672802E-013  0.5930184E+02  0.7816164E-02  0.1266605E+00
        -11   -1    0    0    0    0  0.00000000000E+00  0.00000000000E+00  0.45593999997E+02  0.45594000000E+02  0.51100000000E-03 0.  1.
         11   -1    0    0    0    0 -0.00000000000E+00 -0.00000000000E+00 -0.45593999997E+02  0.45594000000E+02  0.51100000000E-03 0. -1.
    9900012    2    1    2    0    0 -0.46765023132E+01  0.28655515129E+02  0.13180251586E+02  0.59301839161E+02  0.49999808748E+02 0.  0.
         12    1    1    2    0    0  0.46765023132E+01 -0.28655515129E+02 -0.13180251586E+02  0.31886160839E+02  0.00000000000E+00 0. -1.
         11    1    3    3    0    0 -0.62207043217E+01 -0.19235700432E+01 -0.10809025518E+02  0.12618728814E+02  0.51100000000E-03 0. -1.
        -11    1    3    3    0    0 -0.87072946963E+01  0.27554131311E+01  0.11036705072E+02  0.14325436872E+02  0.51100000000E-03 0.  1.
        -12    1    3    3    0    0  0.10251496705E+02  0.27823672041E+02  0.12952572031E+02  0.32357673476E+02  0.00000000000E+00 0.  1.
</event>
<event>
 7    1  0.6672802E-013  0.5930195E+02  0.7816164E-02  0.1266605E+00
        -11   -1    0    0    0    0  0.00000000000E+00  0.00000000000E+00  0.45593999997E+02  0.45594000000E+02  0.51100000000E-03 0. -1.
         11   -1    0    0    0    0 -0.00000000000E+00 -0.00000000000E+00 -0.45593999997E+02  0.45594000000E+02  0.51100000000E-03 0.  1.
    9900012    2    1    2    0    0  0.31833776643E+02  0.35943083457E+00 -0.17893729758E+01  0.59301946912E+02  0.50000005259E+02 0.  0.
         12    1    1    2    0    0 -0.31833776643E+02 -0.35943083457E+00  0.17893729758E+01  0.31886053088E+02  0.00000000000E+00 0. -1.
         11    1    3    3    0    0  0.22646933755E+02 -0.15645626264E+02 -0.15144190066E+02  0.31416806373E+02  0.51100000000E-03 0. -1.
        -11    1    3    3    0    0  0.60398286570E+01 -0.17420338257E+01  0.49336815388E+01  0.79909590065E+01  0.51100000000E-03 0.  1.
        -12    1    3    3    0    0  0.31470142313E+01  0.17747090924E+02  0.84211355510E+01  0.19894181532E+02  0.00000000000E+00 0.  1.
</event>
<event>
 7    1  0.6672802E-013  0.5930195E+02  0.7816164E-02  0.1266605E+00
        -11   -1    0    0    0    0  0.00000000000E+00  0.00000000000E+00  0.45593999997E+02  0.45594000000E+02  0.51100000000E-03 0.  1.
         11   -1    0    0    0    0 -0.00000000000E+00 -0.00000000000E+00 -0.45593999997E+02  0.45594000000E+02  0.51100000000E-03 0. -1.
    9900012    2    1    2    0    0 -0.67589482752E+01 -0.10244966816E+02  0.29429193149E+02  0.59301950758E+02  0.50000012275E+02 0.  0.
         12    1    1    2    0    0  0.67589482752E+01  0.10244966816E+02 -0.29429193149E+02  0.31886049242E+02  0.00000000000E+00 0. -1.
         11    1    3    3    0    0 -0.28798513792E+01 -0.18630436794E+02  0.95858786874E+00  0.18876059177E+02  0.51100000000E-03 0. -1.
        -11    1    3    3    0    0 -0.13824234363E+02 -0.50762268445E+00  0.20966333652E+02  0.25118803386E+02  0.51100000000E-03 0.  1.
        -12    1    3    3    0    0  0.99451374668E+01  0.88930926624E+01  0.75042716282E+01  0.15307088195E+02  0.00000000000E+00 0.  1.
</event>
<event>
 7    1  0.6672802E-013  0.5930192E+02  0.7816164E-02  0.1266605E+00
        -11   -1    0    0    0    0  0.00000000000E+00  0.00000000000E+00  0.45593999997E+02  0.45594000000E+02  0.51100000000E-03 0.  1.
         11   -1    0    0    0    0 -0.00000000000E+00 -0.00000000000E+00 -0.45593999997E+02  0.45594000000E+02  0.51100000000E-03 0. -1.
    9900012    2    1    2    0    0 -0.45497778157E+01  0.11921473129E+02  0.29221570158E+02  0.59301918989E+02  0.49999954335E+02 0.  0.
         12    1    1    2    0    0  0.45497778157E+01 -0.11921473129E+02 -0.29221570158E+02  0.31886081011E+02  0.00000000000E+00 0. -1.
         11    1    3    3    0    0 -0.14973147560E+02 -0.13124590713E+02  0.10992792669E+02  0.22744043619E+02  0.51100000000E-03 0. -1.
        -11    1    3    3    0    0  0.44924896671E+01 -0.94543587154E+00  0.50294360632E+01  0.68096651732E+01  0.51100000000E-03 0.  1.
        -12    1    3    3    0    0  0.59308800767E+01  0.25991499713E+02  0.13199341426E+02  0.29748210197E+02  0.00000000000E+00 0.  1.
</event>
<event>
 7    1  0.6672802E-013  0.5930197E+02  0.7816164E-02  0.1266605E+00
        -11   -1    0    0    0    0  0.00000000000E+00  0.00000000000E+00  0.45593999997E+02  0.45594000000E+02  0.51100000000E-03 0.  1.
         11   -1    0    0    0    0 -0.00000000000E+00 -0.00000000000E+00 -0.45593999997E+02  0.45594000000E+02  0.51100000000E-03 0. -1.
    9900012    2    1    2    0    0 -0.31544127576E+01 -0.25027265649E+02  0.19503960621E+02  0.59301971310E+02  0.50000049756E+02 0.  0.
         12    1    1    2    0    0  0.31544127576E+01  0.25027265649E+02 -0.19503960621E+02  0.31886028690E+02  0.00000000000E+00 0. -1.
         11    1    3    3    0    0  0.15451284364E+02 -0.13926685467E+02  0.24087590457E+01  0.20940317023E+02  0.51100000000E-03 0. -1.
        -11    1    3    3    0    0 -0.87894554082E+01 -0.15683471040E+02  0.20249023319E+02  0.27078565987E+02  0.51100000000E-03 0.  1.
        -12    1    3    3    0    0 -0.98162417138E+01  0.45828908581E+01 -0.31538217441E+01  0.11283088300E+02  0.00000000000E+00 0.  1.
</event>
<event>
 7    1  0.6672802E-013  0.5930203E+02  0.7816164E-02  0.1266604E+00
        -11   -1    0    0    0    0  0.00000000000E+00  0.00000000000E+00  0.45593999997E+02  0.45594000000E+02  0.51100000000E-03 0.  1.
         11   -1    0    0    0    0 -0.00000000000E+00 -0.00000000000E+00 -0.45593999997E+02  0.45594000000E+02  0.51100000000E-03 0. -1.
    9900012    2    1    2    0    0 -0.30193601296E+02  0.51773346780E+01  0.88462733153E+01  0.59302032786E+02  0.50000161874E+02 0.  0.
         12    1    1    2    0    0  0.30193601296E+02 -0.51773346780E+01 -0.88462733153E+01  0.31885967214E+02  0.00000000000E+00 0. -1.
         11    1    3    3    0    0 -0.55719766892E+01 -0.24695978953E+01  0.55161892126E+01  0.82203516762E+01  0.51100000000E-03 0. -1.
        -11    1    3    3    0    0 -0.36275442713E+02  0.82882925168E+01 -0.38013951818E+01  0.37403932179E+02  0.51100000000E-03 0.  1.
        -12    1    3    3    0    0  0.11653818106E+02 -0.64135994347E+00  0.71314792845E+01  0.13677748931E+02  0.00000000000E+00 0.  1.
</event>
<event>
 7    1  0.6672802E-013  0.5930186E+02  0.7816164E-02  0.1266605E+00
        -11   -1    0    0    0    0  0.00000000000E+00  0.00000000000E+00  0.45593999997E+02  0.45594000000E+02  0.51100000000E-03 0.  1.
         11   -1    0    0    0    0 -0.00000000000E+00 -0.00000000000E+00 -0.45593999997E+02  0.45594000000E+02  0.51100000000E-03 0. -1.
    9900012    2    1    2    0    0  0.13901596677E+02  0.54851962591E+01  0.28167078374E+02  0.59301857676E+02  0.49999842516E+02 0.  0.
         12    1    1    2    0    0 -0.13901596677E+02 -0.54851962591E+01 -0.28167078374E+02  0.31886142324E+02  0.00000000000E+00 0. -1.
         11    1    3    3    0    0  0.37828016726E+01  0.66343981438E+00 -0.21063114394E+01  0.43802156365E+01  0.51100000000E-03 0. -1.
        -11    1    3    3    0    0  0.77961734649E+01  0.18681061630E+02 -0.13795322855E+01  0.20289541491E+02  0.51100000000E-03 0.  1.
        -12    1    3    3    0    0  0.23226215392E+01 -0.13859305186E+02  0.31652922099E+02  0.34632100549E+02  0.00000000000E+00 0.  1.
</event>
<event>
 7    1  0.6672802E-013  0.5930195E+02  0.7816164E-02  0.1266605E+00
        -11   -1    0    0    0    0  0.00000000000E+00  0.00000000000E+00  0.45593999997E+02  0.45594000000E+02  0.51100000000E-03 0.  1.
         11   -1    0    0    0    0 -0.00000000000E+00 -0.00000000000E+00 -0.45593999997E+02  0.45594000000E+02  0.51100000000E-03 0. -1.
    9900012    2    1    2    0    0 -0.15142698362E+01  0.19853363456E+02  0.24905248862E+02  0.59301945453E+02  0.50000002600E+02 0.  0.
         12    1    1    2    0    0  0.15142698362E+01 -0.19853363456E+02 -0.24905248862E+02  0.31886054547E+02  0.00000000000E+00 0. -1.
         11    1    3    3    0    0  0.30518315719E+01  0.27773948138E+02  0.25299523837E+02  0.37693126399E+02  0.51100000000E-03 0. -1.
        -11    1    3    3    0    0 -0.98311609899E+00  0.65411238627E+01  0.79641072244E+00  0.66623636159E+01  0.51100000000E-03 0.  1.
         12    1    3    3    0    0 -0.35829853091E+01 -0.14461708544E+02 -0.11906856975E+01  0.14946455438E+02  0.00000000000E+00 0. -1.
</event>
<event>
 7    1  0.6672802E-013  0.5930195E+02  0.7816164E-02  0.1266605E+00
        -11   -1    0    0    0    0  0.00000000000E+00  0.00000000000E+00  0.45593999997E+02  0.45594000000E+02  0.51100000000E-03 0. -1.
         11   -1    0    0    0    0 -0.00000000000E+00 -0.00000000000E+00 -0.45593999997E+02  0.45594000000E+02  0.51100000000E-03 0.  1.
    9900012    2    1    2    0    0  0.16130031228E+02  0.14436030768E+02 -0.23412461783E+02  0.59301948841E+02  0.50000008779E+02 0.  0.
         12    1    1    2    0    0 -0.16130031228E+02 -0.14436030768E+02  0.23412461783E+02  0.31886051159E+02  0.00000000000E+00 0. -1.
         11    1    3    3    0    0  0.21117794072E+02  0.65594601920E+01  0.23673912346E+01  0.22239430883E+02  0.51100000000E-03 0. -1.
        -11    1    3    3    0    0 -0.33189945701E+01  0.38007783750E+01  0.43197375306E+01  0.66424222846E+01  0.51100000000E-03 0.  1.
        -12    1    3    3    0    0 -0.16687682735E+01  0.40757922007E+01 -0.30099590549E+02  0.30420095674E+02  0.00000000000E+00 0.  1.
</event>
<event>
 7    1  0.6672802E-013  0.5930190E+02  0.7816164E-02  0.1266605E+00
        -11   -1    0    0    0    0  0.00000000000E+00  0.00000000000E+00  0.45593999997E+02  0.45594000000E+02  0.51100000000E-03 0.  1.
         11   -1    0    0    0    0 -0.00000000000E+00 -0.00000000000E+00 -0.45593999997E+02  0.45594000000E+02  0.51100000000E-03 0. -1.
    9900012    2    1    2    0    0 -0.17929553724E+02  0.18625000774E+02  0.18664511301E+02  0.59301897499E+02  0.49999915143E+02 0.  0.
         12    1    1    2    0    0  0.17929553724E+02 -0.18625000774E+02 -0.18664511301E+02  0.31886102501E+02  0.00000000000E+00 0. -1.
         11    1    3    3    0    0 -0.38616073176E+01 -0.34370585901E+00 -0.92941583453E+01  0.10070328912E+02  0.51100000000E-03 0. -1.
        -11    1    3    3    0    0  0.10287949659E+02  0.68392262724E+01  0.40218246420E+01  0.12991997456E+02  0.51100000000E-03 0.  1.
         12    1    3    3    0    0 -0.24355896066E+02  0.12129480361E+02  0.23936845004E+02  0.36239571131E+02  0.00000000000E+00 0. -1.
</event>
<event>
 7    1  0.6672802E-013  0.5930198E+02  0.7816164E-02  0.1266605E+00
        -11   -1    0    0    0    0  0.00000000000E+00  0.00000000000E+00  0.45593999997E+02  0.45594000000E+02  0.51100000000E-03 0.  1.
         11   -1    0    0    0    0 -0.00000000000E+00 -0.00000000000E+00 -0.45593999997E+02  0.45594000000E+02  0.51100000000E-03 0. -1.
    9900012    2    1    2    0    0  0.20269023985E+02  0.24506088003E+02  0.23101228470E+01  0.59301978767E+02  0.50000063356E+02 0.  0.
         12    1    1    2    0    0 -0.20269023985E+02 -0.24506088003E+02 -0.23101228470E+01  0.31886021233E+02  0.00000000000E+00 0. -1.
         11    1    3    3    0    0 -0.24209245251E+01  0.11255531729E+02 -0.12337134956E-01  0.11512950210E+02  0.51100000000E-03 0. -1.
        -11    1    3    3    0    0 -0.88177103296E+01  0.13320260917E+02 -0.15260528073E+01  0.16047124471E+02  0.51100000000E-03 0.  1.
         12    1    3    3    0    0  0.31507658840E+02 -0.69704643650E-01  0.38485127893E+01  0.31741904086E+02  0.00000000000E+00 0. -1.
</event>
<event>
 7    1  0.6672802E-013  0.5930192E+02  0.7816164E-02  0.1266605E+00
        -11   -1    0    0    0    0  0.00000000000E+00  0.00000000000E+00  0.45593999997E+02  0.45594000000E+02  0.51100000000E-03 0.  1.
         11   -1    0    0    0    0 -0.00000000000E+00 -0.00000000000E+00 -0.45593999997E+02  0.45594000000E+02  0.51100000000E-03 0. -1.
    9900012    2    1    2    0    0 -0.21691962261E+02  0.56545908769E+01  0.22676116614E+02  0.59301923267E+02  0.49999962137E+02 0.  0.
         12    1    1    2    0    0  0.21691962261E+02 -0.56545908769E+01 -0.22676116614E+02  0.31886076733E+02  0.00000000000E+00 0. -1.
         11    1    3    3    0    0  0.50250677271E+00  0.38660116945E+00 -0.21768201627E+01  0.22672714444E+01  0.51100000000E-03 0. -1.
        -11    1    3    3    0    0 -0.43738040491E+01 -0.62505048568E+01 -0.12169209075E+02  0.14362751220E+02  0.51100000000E-03 0.  1.
        -12    1    3    3    0    0 -0.17820664985E+02  0.11518494564E+02  0.37022145852E+02  0.42671900603E+02  0.00000000000E+00 0.  1.
</event>
<event>
 7    1  0.6672802E-013  0.5930194E+02  0.7816164E-02  0.1266605E+00
        -11   -1    0    0    0    0  0.00000000000E+00  0.00000000000E+00  0.45593999997E+02  0.45594000000E+02  0.51100000000E-03 0. -1.
         11   -1    0    0    0    0 -0.00000000000E+00 -0.00000000000E+00 -0.45593999997E+02  0.45594000000E+02  0.51100000000E-03 0.  1.
    9900012    2    1    2    0    0 -0.15848932160E+02 -0.15388733874E+02 -0.22993891051E+02  0.59301940248E+02  0.49999993106E+02 0.  0.
         12    1    1    2    0    0  0.15848932160E+02  0.15388733874E+02  0.22993891051E+02  0.31886059752E+02  0.00000000000E+00 0. -1.
         11    1    3    3    0    0 -0.94477414599E-02  0.66612259349E+01 -0.44358450757E+01  0.80030457960E+01  0.51100000000E-03 0. -1.
        -11    1    3    3    0    0 -0.11822848601E+02  0.88070886417E+01 -0.13068488743E+02  0.19701014128E+02  0.51100000000E-03 0.  1.
         12    1    3    3    0    0 -0.40166358170E+01 -0.30857048450E+02 -0.54895572328E+01  0.31597880324E+02  0.00000000000E+00 0. -1.
</event>
<event>
 7    1  0.6672802E-013  0.5930194E+02  0.7816164E-02  0.1266605E+00
        -11   -1    0    0    0    0  0.00000000000E+00  0.00000000000E+00  0.45593999997E+02  0.45594000000E+02  0.51100000000E-03 0. -1.
         11   -1    0    0    0    0 -0.00000000000E+00 -0.00000000000E+00 -0.45593999997E+02  0.45594000000E+02  0.51100000000E-03 0.  1.
    9900012    2    1    2    0    0  0.25771774906E+02  0.11757507670E+02 -0.14638906745E+02  0.59301937855E+02  0.49999988743E+02 0.  0.
         12    1    1    2    0    0 -0.25771774906E+02 -0.11757507670E+02  0.14638906745E+02  0.31886062145E+02  0.00000000000E+00 0. -1.
         11    1    3    3    0    0  0.50334769780E+01  0.97296967799E+01 -0.25204843551E+01  0.11240806535E+02  0.51100000000E-03 0. -1.
        -11    1    3    3    0    0  0.25080325273E+02  0.17356565971E+02 -0.66499613467E+01  0.31216903823E+02  0.51100000000E-03 0.  1.
         12    1    3    3    0    0 -0.43420273451E+01 -0.15328755081E+02 -0.54684610429E+01  0.16844227497E+02  0.00000000000E+00 0. -1.
</event>
<event>
 7    1  0.6672802E-013  0.5930195E+02  0.7816164E-02  0.1266605E+00
        -11   -1    0    0    0    0  0.00000000000E+00  0.00000000000E+00  0.45593999997E+02  0.45594000000E+02  0.51100000000E-03 0.  1.
         11   -1    0    0    0    0 -0.00000000000E+00 -0.00000000000E+00 -0.45593999997E+02  0.45594000000E+02  0.51100000000E-03 0. -1.
    9900012    2    1    2    0    0 -0.24205978015E+01  0.17328653263E+01  0.31746778437E+02  0.59301951999E+02  0.50000014538E+02 0.  0.
         12    1    1    2    0    0  0.24205978015E+01 -0.17328653263E+01 -0.31746778437E+02  0.31886048001E+02  0.00000000000E+00 0. -1.
         11    1    3    3    0    0  0.10566459721E+02 -0.12434000057E+02  0.25979974525E+02  0.30679203136E+02  0.51100000000E-03 0. -1.
        -11    1    3    3    0    0 -0.59089717803E+01 -0.46197437484E+00  0.10182876192E+02  0.11782204192E+02  0.51100000000E-03 0.  1.
        -12    1    3    3    0    0 -0.70780857426E+01  0.14628839758E+02 -0.44160722796E+01  0.16840544671E+02  0.00000000000E+00 0.  1.
</event>
<event>
 7    1  0.6672802E-013  0.5930193E+02  0.7816164E-02  0.1266605E+00
        -11   -1    0    0    0    0  0.00000000000E+00  0.00000000000E+00  0.45593999997E+02  0.45594000000E+02  0.51100000000E-03 0.  1.
         11   -1    0    0    0    0 -0.00000000000E+00 -0.00000000000E+00 -0.45593999997E+02  0.45594000000E+02  0.51100000000E-03 0. -1.
    9900012    2    1    2    0    0  0.75578781861E+01  0.18645717049E+02  0.24737358460E+02  0.59301934226E+02  0.49999982124E+02 0.  0.
         12    1    1    2    0    0 -0.75578781861E+01 -0.18645717049E+02 -0.24737358460E+02  0.31886065774E+02  0.00000000000E+00 0. -1.
         11    1    3    3    0    0 -0.48407245638E+01  0.12040524981E+01 -0.54339096531E+00  0.50177316312E+01  0.51100000000E-03 0. -1.
        -11    1    3    3    0    0 -0.11684272992E+02  0.74043996984E+01  0.24555036243E+02  0.28183278294E+02  0.51100000000E-03 0.  1.
         12    1    3    3    0    0  0.24082875742E+02  0.10037264853E+02  0.72571318246E+00  0.26100924300E+02  0.00000000000E+00 0. -1.
</event>
<event>
 7    1  0.6672802E-013  0.5930192E+02  0.7816164E-02  0.1266605E+00
        -11   -1    0    0    0    0  0.00000000000E+00  0.00000000000E+00  0.45593999997E+02  0.45594000000E+02  0.51100000000E-03 0.  1.
         11   -1    0    0    0    0 -0.00000000000E+00 -0.00000000000E+00 -0.45593999997E+02  0.45594000000E+02  0.51100000000E-03 0. -1.
    9900012    2    1    2    0    0 -0.10708054738E+02  0.13519110365E+02 -0.26819641279E+02  0.59301922479E+02  0.49999960701E+02 0.  0.
         12    1    1    2    0    0  0.10708054738E+02 -0.13519110365E+02  0.26819641279E+02  0.31886077521E+02  0.00000000000E+00 0. -1.
         11    1    3    3    0    0  0.31800940341E+01 -0.61107996450E+01 -0.11578911259E+02  0.13473160600E+02  0.51100000000E-03 0. -1.
        -11    1    3    3    0    0 -0.73381281949E+01  0.47878397143E+00  0.10664438758E+02  0.12954057812E+02  0.51100000000E-03 0.  1.
         12    1    3    3    0    0 -0.65500205776E+01  0.19151126038E+02 -0.25905168778E+02  0.32874704068E+02  0.00000000000E+00 0. -1.
</event>
<event>
 7    1  0.6672802E-013  0.5930192E+02  0.7816164E-02  0.1266605E+00
        -11   -1    0    0    0    0  0.00000000000E+00  0.00000000000E+00  0.45593999997E+02  0.45594000000E+02  0.51100000000E-03 0.  1.
         11   -1    0    0    0    0 -0.00000000000E+00 -0.00000000000E+00 -0.45593999997E+02  0.45594000000E+02  0.51100000000E-03 0. -1.
    9900012    2    1    2    0    0 -0.34324399876E+00  0.27249678902E+02  0.16554731343E+02  0.59301922371E+02  0.49999960504E+02 0.  0.
         12    1    1    2    0    0  0.34324399876E+00 -0.27249678902E+02 -0.16554731343E+02  0.31886077629E+02  0.00000000000E+00 0. -1.
         11    1    3    3    0    0  0.29784912078E+01  0.25362179317E+02  0.96417414960E+01  0.27296057021E+02  0.51100000000E-03 0. -1.
        -11    1    3    3    0    0 -0.23794488900E-01  0.10396308698E+02  0.16030168422E+02  0.19106284323E+02  0.51100000000E-03 0.  1.
         12    1    3    3    0    0 -0.32979407177E+01 -0.85088091124E+01 -0.91171785757E+01  0.12899581027E+02  0.00000000000E+00 0. -1.
</event>
<event>
 7    1  0.6672802E-013  0.5930194E+02  0.7816164E-02  0.1266605E+00
        -11   -1    0    0    0    0  0.00000000000E+00  0.00000000000E+00  0.45593999997E+02  0.45594000000E+02  0.51100000000E-03 0.  1.
         11   -1    0    0    0    0 -0.00000000000E+00 -0.00000000000E+00 -0.45593999997E+02  0.45594000000E+02  0.51100000000E-03 0. -1.
    9900012    2    1    2    0    0 -0.25329946408E+02  0.18171471184E+02  0.67016737133E+01  0.59301937518E+02  0.49999988128E+02 0.  0.
         12    1    1    2    0    0  0.25329946408E+02 -0.18171471184E+02 -0.67016737133E+01  0.31886062482E+02  0.00000000000E+00 0. -1.
         11    1    3    3    0    0 -0.16893182738E+01 -0.34998375948E+01 -0.83396122917E+01  0.92006408938E+01  0.51100000000E-03 0. -1.
        -11    1    3    3    0    0 -0.29113241627E+02  0.41440400845E+01  0.99922402891E+01  0.31057990478E+02  0.51100000000E-03 0.  1.
         12    1    3    3    0    0  0.54726134929E+01  0.17527268695E+02  0.50490457159E+01  0.19043306146E+02  0.00000000000E+00 0. -1.
</event>
<event>
 7    1  0.6672802E-013  0.5930192E+02  0.7816164E-02  0.1266605E+00
        -11   -1    0    0    0    0  0.00000000000E+00  0.00000000000E+00  0.45593999997E+02  0.45594000000E+02  0.51100000000E-03 0. -1.
         11   -1    0    0    0    0 -0.00000000000E+00 -0.00000000000E+00 -0.45593999997E+02  0.45594000000E+02  0.51100000000E-03 0.  1.
    9900012    2    1    2    0    0 -0.23898591527E+02 -0.16842100454E+02 -0.12724893864E+02  0.59301922340E+02  0.49999960447E+02 0.  0.
         12    1    1    2    0    0  0.23898591527E+02  0.16842100454E+02  0.12724893864E+02  0.31886077660E+02  0.00000000000E+00 0. -1.
         11    1    3    3    0    0  0.54708240895E+00  0.10744718863E+02 -0.24636864669E+01  0.11037120723E+02  0.51100000000E-03 0. -1.
        -11    1    3    3    0    0 -0.44092710298E+01 -0.20906154445E+01 -0.14742905530E+02  0.15529507645E+02  0.51100000000E-03 0.  1.
        -12    1    3    3    0    0 -0.20036402906E+02 -0.25496203872E+02  0.44816981326E+01  0.32735293972E+02  0.00000000000E+00 0.  1.
</event>
<event>
 7    1  0.6672802E-013  0.5930196E+02  0.7816164E-02  0.1266605E+00
        -11   -1    0    0    0    0  0.00000000000E+00  0.00000000000E+00  0.45593999997E+02  0.45594000000E+02  0.51100000000E-03 0. -1.
         11   -1    0    0    0    0 -0.00000000000E+00 -0.00000000000E+00 -0.45593999997E+02  0.45594000000E+02  0.51100000000E-03 0.  1.
    9900012    2    1    2    0    0 -0.16486673863E+02 -0.13857360562E+02  0.23513456274E+02  0.59301961005E+02  0.50000030963E+02 0.  0.
         12    1    1    2    0    0  0.16486673863E+02  0.13857360562E+02 -0.23513456274E+02  0.31886038995E+02  0.00000000000E+00 0. -1.
         11    1    3    3    0    0 -0.21905414203E+02 -0.16148585570E+02  0.71184406044E+01  0.28129987277E+02  0.51100000000E-03 0. -1.
        -11    1    3    3    0    0  0.38541758682E+01 -0.92095213815E+01 -0.12399586319E+01  0.10060191518E+02  0.51100000000E-03 0.  1.
        -12    1    3    3    0    0  0.15645644713E+01  0.11500746389E+02  0.17634974302E+02  0.21111782211E+02  0.00000000000E+00 0.  1.
</event>
<event>
 7    1  0.6672802E-013  0.5930193E+02  0.7816164E-02  0.1266605E+00
        -11   -1    0    0    0    0  0.00000000000E+00  0.00000000000E+00  0.45593999997E+02  0.45594000000E+02  0.51100000000E-03 0. -1.
         11   -1    0    0    0    0 -0.00000000000E+00 -0.00000000000E+00 -0.45593999997E+02  0.45594000000E+02  0.51100000000E-03 0.  1.
    9900012    2    1    2    0    0 -0.18851255519E+01  0.15684110106E+02 -0.27697947882E+02  0.59301932117E+02  0.49999978278E+02 0.  0.
         12    1    1    2    0    0  0.18851255519E+01 -0.15684110106E+02  0.27697947882E+02  0.31886067883E+02  0.00000000000E+00 0. -1.
         11    1    3    3    0    0  0.74259176777E+01  0.37009417556E+01 -0.45363804541E+01  0.94562133605E+01  0.51100000000E-03 0. -1.
        -11    1    3    3    0    0  0.12723252201E+02  0.86170176071E+01 -0.22871003121E+02  0.27553891251E+02  0.51100000000E-03 0.  1.
         12    1    3    3    0    0 -0.22034295431E+02  0.33661507429E+01 -0.29056430673E+00  0.22291827506E+02  0.00000000000E+00 0. -1.
</event>
<event>
 7    1  0.6672802E-013  0.5930195E+02  0.7816164E-02  0.1266605E+00
        -11   -1    0    0    0    0  0.00000000000E+00  0.00000000000E+00  0.45593999997E+02  0.45594000000E+02  0.51100000000E-03 0.  1.
         11   -1    0    0    0    0 -0.00000000000E+00 -0.00000000000E+00 -0.45593999997E+02  0.45594000000E+02  0.51100000000E-03 0. -1.
    9900012    2    1    2    0    0  0.15846545633E+02 -0.83965857382E+01  0.26364837030E+02  0.59301948314E+02  0.50000007816E+02 0.  0.
         12    1    1    2    0    0 -0.15846545633E+02  0.83965857382E+01 -0.26364837030E+02  0.31886051686E+02  0.00000000000E+00 0. -1.
         11    1    3    3    0    0 -0.16716191462E+01  0.31480646359E+01  0.91713156604E+01  0.98395961667E+01  0.51100000000E-03 0. -1.
        -11    1    3    3    0    0  0.25519581373E+01  0.14028126383E+02  0.13441812851E+02  0.19595488081E+02  0.51100000000E-03 0.  1.
         12    1    3    3    0    0  0.14966206642E+02 -0.25572776757E+02  0.37517085181E+01  0.29866864066E+02  0.00000000000E+00 0. -1.
</event>
<event>
 7    1  0.6672802E-013  0.5930196E+02  0.7816164E-02  0.1266605E+00
        -11   -1    0    0    0    0  0.00000000000E+00  0.00000000000E+00  0.45593999997E+02  0.45594000000E+02  0.51100000000E-03 0.  1.
         11   -1    0    0    0    0 -0.00000000000E+00 -0.00000000000E+00 -0.45593999997E+02  0.45594000000E+02  0.51100000000E-03 0. -1.
    9900012    2    1    2    0    0  0.87784887768E+01  0.39710736229E+01  0.30395532496E+02  0.59301957809E+02  0.50000025134E+02 0.  0.
         12    1    1    2    0    0 -0.87784887768E+01 -0.39710736229E+01 -0.30395532496E+02  0.31886042191E+02  0.00000000000E+00 0. -1.
         11    1    3    3    0    0 -0.10917709765E+02  0.58021481892E+01  0.86713968493E+01  0.15101471243E+02  0.51100000000E-03 0. -1.
        -11    1    3    3    0    0 -0.53147066876E+01  0.94915118141E+01  0.43827946289E+01  0.11727906578E+02  0.51100000000E-03 0.  1.
        -12    1    3    3    0    0  0.25010905230E+02 -0.11322586380E+02  0.17341341017E+02  0.32472579987E+02  0.00000000000E+00 0.  1.
</event>
<event>
 7    1  0.6672802E-013  0.5930192E+02  0.7816164E-02  0.1266605E+00
        -11   -1    0    0    0    0  0.00000000000E+00  0.00000000000E+00  0.45593999997E+02  0.45594000000E+02  0.51100000000E-03 0. -1.
         11   -1    0    0    0    0 -0.00000000000E+00 -0.00000000000E+00 -0.45593999997E+02  0.45594000000E+02  0.51100000000E-03 0.  1.
    9900012    2    1    2    0    0  0.22227366046E+01  0.26775225033E+02 -0.17171744896E+02  0.59301920649E+02  0.49999957363E+02 0.  0.
         12    1    1    2    0    0 -0.22227366046E+01 -0.26775225033E+02  0.17171744896E+02  0.31886079351E+02  0.00000000000E+00 0. -1.
         11    1    3    3    0    0 -0.53829901850E+01  0.21780328917E+02  0.99043016434E+01  0.24524569361E+02  0.51100000000E-03 0. -1.
        -11    1    3    3    0    0 -0.25381649604E+00  0.12604318591E+01  0.31083215109E+01  0.33637440689E+01  0.51100000000E-03 0.  1.
        -12    1    3    3    0    0  0.78595432856E+01  0.37344642576E+01 -0.30184368050E+02  0.31413607219E+02  0.00000000000E+00 0.  1.
</event>
<event>
 7    1  0.6672802E-013  0.5930190E+02  0.7816164E-02  0.1266605E+00
        -11   -1    0    0    0    0  0.00000000000E+00  0.00000000000E+00  0.45593999997E+02  0.45594000000E+02  0.51100000000E-03 0.  1.
         11   -1    0    0    0    0 -0.00000000000E+00 -0.00000000000E+00 -0.45593999997E+02  0.45594000000E+02  0.51100000000E-03 0. -1.
    9900012    2    1    2    0    0 -0.22858405934E+02  0.18931179887E+02  0.11654484015E+02  0.59301901283E+02  0.49999922044E+02 0.  0.
         12    1    1    2    0    0  0.22858405934E+02 -0.18931179887E+02 -0.11654484015E+02  0.31886098717E+02  0.00000000000E+00 0. -1.
         11    1    3    3    0    0 -0.47162174935E+01  0.10100725353E+01  0.14424378769E+01  0.50342408825E+01  0.51100000000E-03 0. -1.
        -11    1    3    3    0    0 -0.29996464203E+02  0.43119481235E+01 -0.49371255314E+01  0.30704331455E+02  0.51100000000E-03 0.  1.
        -12    1    3    3    0    0  0.11854275762E+02  0.13609159228E+02  0.15149171669E+02  0.23563328946E+02  0.00000000000E+00 0.  1.
</event>
<event>
 7    1  0.6672802E-013  0.5930196E+02  0.7816164E-02  0.1266605E+00
        -11   -1    0    0    0    0  0.00000000000E+00  0.00000000000E+00  0.45593999997E+02  0.45594000000E+02  0.51100000000E-03 0. -1.
         11   -1    0    0    0    0 -0.00000000000E+00 -0.00000000000E+00 -0.45593999997E+02  0.45594000000E+02  0.51100000000E-03 0.  1.
    9900012    2    1    2    0    0  0.87065545271E+01  0.13353959998E+02 -0.27614984868E+02  0.59301957150E+02  0.50000023932E+02 0.  0.
         12    1    1    2    0    0 -0.87065545271E+01 -0.13353959998E+02  0.27614984868E+02  0.31886042850E+02  0.00000000000E+00 0. -1.
         11    1    3    3    0    0  0.57377136999E+01 -0.56048651658E+01 -0.18069811052E+00  0.80229996944E+01  0.51100000000E-03 0. -1.
        -11    1    3    3    0    0  0.63110751290E+01 -0.10348845936E+02 -0.19093630552E+01  0.12270857714E+02  0.51100000000E-03 0.  1.
        -12    1    3    3    0    0 -0.33422343018E+01  0.29307671100E+02 -0.25524923703E+02  0.39008099742E+02  0.00000000000E+00 0.  1.
</event>
<event>
 7    1  0.6672802E-013  0.5930192E+02  0.7816164E-02  0.1266605E+00
        -11   -1    0    0    0    0  0.00000000000E+00  0.00000000000E+00  0.45593999997E+02  0.45594000000E+02  0.51100000000E-03 0.  1.
         11   -1    0    0    0    0 -0.00000000000E+00 -0.00000000000E+00 -0.45593999997E+02  0.45594000000E+02  0.51100000000E-03 0. -1.
    9900012    2    1    2    0    0 -0.13882008535E+02  0.28687241148E+02  0.10266479222E+01  0.59301921978E+02  0.49999959787E+02 0.  0.
         12    1    1    2    0    0  0.13882008535E+02 -0.28687241148E+02 -0.10266479222E+01  0.31886078022E+02  0.00000000000E+00 0. -1.
         11    1    3    3    0    0  0.24951221053E+00  0.13499657912E+02  0.12902007412E+02  0.18675246065E+02  0.51100000000E-03 0. -1.
        -11    1    3    3    0    0  0.34996282815E+01  0.99630886442E+01  0.82239918908E+01  0.13384490140E+02  0.51100000000E-03 0.  1.
         12    1    3    3    0    0 -0.17631149027E+02  0.52244945927E+01 -0.20099351380E+02  0.27242185773E+02  0.00000000000E+00 0. -1.
</event>
<event>
 7    1  0.6672802E-013  0.5930192E+02  0.7816164E-02  0.1266605E+00
        -11   -1    0    0    0    0  0.00000000000E+00  0.00000000000E+00  0.45593999997E+02  0.45594000000E+02  0.51100000000E-03 0. -1.
         11   -1    0    0    0    0 -0.00000000000E+00 -0.00000000000E+00 -0.45593999997E+02  0.45594000000E+02  0.51100000000E-03 0.  1.
    9900012    2    1    2    0    0  0.16936051910E+02  0.89429775766E+01 -0.25493440249E+02  0.59301918429E+02  0.49999953314E+02 0.  0.
         12    1    1    2    0    0 -0.16936051910E+02 -0.89429775766E+01  0.25493440249E+02  0.31886081571E+02  0.00000000000E+00 0. -1.
         11    1    3    3    0    0  0.10267194039E+02  0.24753626414E+00 -0.19604163800E+00  0.10272048492E+02  0.51100000000E-03 0. -1.
        -11    1    3    3    0    0  0.17932907114E+02  0.95630771955E+01 -0.30452859534E+02  0.36611722946E+02  0.51100000000E-03 0.  1.
         12    1    3    3    0    0 -0.11264049243E+02 -0.86763588296E+00  0.51554609230E+01  0.12418146991E+02  0.00000000000E+00 0. -1.
</event>
<event>
 7    1  0.6672802E-013  0.5930195E+02  0.7816164E-02  0.1266605E+00
        -11   -1    0    0    0    0  0.00000000000E+00  0.00000000000E+00  0.45593999997E+02  0.45594000000E+02  0.51100000000E-03 0.  1.
         11   -1    0    0    0    0 -0.00000000000E+00 -0.00000000000E+00 -0.45593999997E+02  0.45594000000E+02  0.51100000000E-03 0. -1.
    9900012    2    1    2    0    0  0.25040645535E+01 -0.12392950294E+01  0.31763401624E+02  0.59301954868E+02  0.50000019769E+02 0.  0.
         12    1    1    2    0    0 -0.25040645535E+01  0.12392950294E+01 -0.31763401624E+02  0.31886045132E+02  0.00000000000E+00 0. -1.
         11    1    3    3    0    0  0.30562960812E-01 -0.19489673874E+02  0.17988947621E+02  0.26522642375E+02  0.51100000000E-03 0. -1.
        -11    1    3    3    0    0  0.38055274608E+01 -0.38046117990E+01  0.85051158167E+01  0.10064497281E+02  0.51100000000E-03 0.  1.
         12    1    3    3    0    0 -0.13320258680E+01  0.22054990643E+02  0.52693381864E+01  0.22714815212E+02  0.00000000000E+00 0. -1.
</event>
<event>
 7    1  0.6672802E-013  0.5930194E+02  0.7816164E-02  0.1266605E+00
        -11   -1    0    0    0    0  0.00000000000E+00  0.00000000000E+00  0.45593999997E+02  0.45594000000E+02  0.51100000000E-03 0. -1.
         11   -1    0    0    0    0 -0.00000000000E+00 -0.00000000000E+00 -0.45593999997E+02  0.45594000000E+02  0.51100000000E-03 0.  1.
    9900012    2    1    2    0    0  0.28441473309E+02 -0.13307177846E+02 -0.55427914864E+01  0.59301938411E+02  0.49999989756E+02 0.  0.
         12    1    1    2    0    0 -0.28441473309E+02  0.13307177846E+02  0.55427914864E+01  0.31886061589E+02  0.00000000000E+00 0. -1.
         11    1    3    3    0    0  0.63783188149E+01 -0.41619926268E+01 -0.82648357264E+01  0.11238889775E+02  0.51100000000E-03 0. -1.
        -11    1    3    3    0    0  0.31219952630E+01 -0.80651321250E+01 -0.17998838645E+02  0.19968760689E+02  0.51100000000E-03 0.  1.
         12    1    3    3    0    0  0.18941159231E+02 -0.10800530946E+01  0.20720882885E+02  0.28094287947E+02  0.00000000000E+00 0. -1.
</event>
<event>
 7    1  0.6672802E-013  0.5930189E+02  0.7816164E-02  0.1266605E+00
        -11   -1    0    0    0    0  0.00000000000E+00  0.00000000000E+00  0.45593999997E+02  0.45594000000E+02  0.51100000000E-03 0.  1.
         11   -1    0    0    0    0 -0.00000000000E+00 -0.00000000000E+00 -0.45593999997E+02  0.45594000000E+02  0.51100000000E-03 0. -1.
    9900012    2    1    2    0    0 -0.44290926691E+01  0.82595995400E+01  0.30477637908E+02  0.59301886112E+02  0.49999894376E+02 0.  0.
         12    1    1    2    0    0  0.44290926691E+01 -0.82595995400E+01 -0.30477637908E+02  0.31886113888E+02  0.00000000000E+00 0. -1.
         11    1    3    3    0    0 -0.68528834255E+01 -0.11556083039E+01  0.13121306214E+02  0.14848101522E+02  0.51100000000E-03 0. -1.
        -11    1    3    3    0    0 -0.83101409764E+01 -0.12269749627E+02  0.13315451345E+02  0.19922510980E+02  0.51100000000E-03 0.  1.
         12    1    3    3    0    0  0.10733931733E+02  0.21684957471E+02  0.40408803482E+01  0.24531273610E+02  0.00000000000E+00 0. -1.
</event>
<event>
 7    1  0.6672802E-013  0.5930197E+02  0.7816164E-02  0.1266605E+00
        -11   -1    0    0    0    0  0.00000000000E+00  0.00000000000E+00  0.45593999997E+02  0.45594000000E+02  0.51100000000E-03 0.  1.
         11   -1    0    0    0    0 -0.00000000000E+00 -0.00000000000E+00 -0.45593999997E+02  0.45594000000E+02  0.51100000000E-03 0. -1.
    9900012    2    1    2    0    0 -0.45007092260E+01  0.44612866655E+01  0.31249947620E+02  0.59301973460E+02  0.50000053678E+02 0.  0.
         12    1    1    2    0    0  0.45007092260E+01 -0.44612866655E+01 -0.31249947620E+02  0.31886026540E+02  0.00000000000E+00 0. -1.
         11    1    3    3    0    0  0.91044676682E+01 -0.33745813737E+01  0.93061643179E+01  0.13449305764E+02  0.51100000000E-03 0. -1.
        -11    1    3    3    0    0  0.12303726939E+02  0.54257762339E+01  0.11914593364E+02  0.17966031270E+02  0.51100000000E-03 0.  1.
         12    1    3    3    0    0 -0.25908903833E+02  0.24100918052E+01  0.10029189938E+02  0.27886636426E+02  0.00000000000E+00 0. -1.
</event>
<event>
 7    1  0.6672802E-013  0.5930195E+02  0.7816164E-02  0.1266605E+00
        -11   -1    0    0    0    0  0.00000000000E+00  0.00000000000E+00  0.45593999997E+02  0.45594000000E+02  0.51100000000E-03 0. -1.
         11   -1    0    0    0    0 -0.00000000000E+00 -0.00000000000E+00 -0.45593999997E+02  0.45594000000E+02  0.51100000000E-03 0.  1.
    9900012    2    1    2    0    0  0.36195780714E+01  0.29467942117E+02  0.11630089854E+02  0.59301953709E+02  0.50000017657E+02 0.  0.
         12    1    1    2    0    0 -0.36195780714E+01 -0.29467942117E+02 -0.11630089854E+02  0.31886046291E+02  0.00000000000E+00 0. -1.
         11    1    3    3    0    0 -0.34787504280E+01  0.30877124873E+02  0.25755563172E+01  0.31179031986E+02  0.51100000000E-03 0. -1.
        -11    1    3    3    0    0  0.34956529832E+01  0.67648068196E+01 -0.66146288130E+01  0.10086402514E+02  0.51100000000E-03 0.  1.
         12    1    3    3    0    0  0.36026755162E+01 -0.81739895751E+01  0.15669162350E+02  0.18036519209E+02  0.00000000000E+00 0. -1.
</event>
<event>
 7    1  0.6672802E-013  0.5930191E+02  0.7816164E-02  0.1266605E+00
        -11   -1    0    0    0    0  0.00000000000E+00  0.00000000000E+00  0.45593999997E+02  0.45594000000E+02  0.51100000000E-03 0.  1.
         11   -1    0    0    0    0 -0.00000000000E+00 -0.00000000000E+00 -0.45593999997E+02  0.45594000000E+02  0.51100000000E-03 0. -1.
    9900012    2    1    2    0    0  0.11332109649E+02  0.11968527263E+02  0.27295791288E+02  0.59301912501E+02  0.49999942503E+02 0.  0.
         12    1    1    2    0    0 -0.11332109649E+02 -0.11968527263E+02 -0.27295791288E+02  0.31886087499E+02  0.00000000000E+00 0. -1.
         11    1    3    3    0    0  0.18849626960E+02  0.15582770071E+02  0.13040004704E+02  0.27715931926E+02  0.51100000000E-03 0. -1.
        -11    1    3    3    0    0 -0.11471512864E+01  0.78748901041E-01 -0.80317137554E+01  0.81136048445E+01  0.51100000000E-03 0.  1.
        -12    1    3    3    0    0 -0.63703660245E+01 -0.36929917083E+01  0.22287500339E+02  0.23472375730E+02  0.00000000000E+00 0.  1.
</event>
<event>
 7    1  0.6672802E-013  0.5930190E+02  0.7816164E-02  0.1266605E+00
        -11   -1    0    0    0    0  0.00000000000E+00  0.00000000000E+00  0.45593999997E+02  0.45594000000E+02  0.51100000000E-03 0.  1.
         11   -1    0    0    0    0 -0.00000000000E+00 -0.00000000000E+00 -0.45593999997E+02  0.45594000000E+02  0.51100000000E-03 0. -1.
    9900012    2    1    2    0    0  0.16738786143E+02 -0.19717027710E+02  0.18648727337E+02  0.59301903115E+02  0.49999925385E+02 0.  0.
         12    1    1    2    0    0 -0.16738786143E+02  0.19717027710E+02 -0.18648727337E+02  0.31886096885E+02  0.00000000000E+00 0. -1.
         11    1    3    3    0    0  0.20325799796E+02 -0.58443935733E+01  0.14829896544E+02  0.25830619530E+02  0.51100000000E-03 0. -1.
        -11    1    3    3    0    0  0.66826792147E+01  0.65043660534E+01 -0.27562161484E+01  0.97242843933E+01  0.51100000000E-03 0.  1.
        -12    1    3    3    0    0 -0.10269692867E+02 -0.20377000190E+02  0.65750469422E+01  0.23746999192E+02  0.00000000000E+00 0.  1.
</event>
<event>
 7    1  0.6672802E-013  0.5930194E+02  0.7816164E-02  0.1266605E+00
        -11   -1    0    0    0    0  0.00000000000E+00  0.00000000000E+00  0.45593999997E+02  0.45594000000E+02  0.51100000000E-03 0.  1.
         11   -1    0    0    0    0 -0.00000000000E+00 -0.00000000000E+00 -0.45593999997E+02  0.45594000000E+02  0.51100000000E-03 0. -1.
    9900012    2    1    2    0    0  0.22527602613E+02 -0.18416285587E+02  0.13041032657E+02  0.59301937416E+02  0.49999987942E+02 0.  0.
         12    1    1    2    0    0 -0.22527602613E+02  0.18416285587E+02 -0.13041032657E+02  0.31886062584E+02  0.00000000000E+00 0. -1.
         11    1    3    3    0    0 -0.47604684497E+01 -0.22362329540E+00  0.45175875685E+01  0.65666326941E+01  0.51100000000E-03 0.  1.
        -11    1    3    3    0    0 -0.28987690919E+01 -0.18174261051E+02  0.12557680445E+02  0.22280080013E+02  0.51100000000E-03 0. -1.
         12    1    3    3    0    0  0.30186840155E+02 -0.18401241088E-01 -0.40342353561E+01  0.30455224709E+02  0.00000000000E+00 0. -1.
</event>
<event>
 7    1  0.6672802E-013  0.5930210E+02  0.7816164E-02  0.1266604E+00
        -11   -1    0    0    0    0  0.00000000000E+00  0.00000000000E+00  0.45593999997E+02  0.45594000000E+02  0.51100000000E-03 0.  1.
         11   -1    0    0    0    0 -0.00000000000E+00 -0.00000000000E+00 -0.45593999997E+02  0.45594000000E+02  0.51100000000E-03 0. -1.
    9900012    2    1    2    0    0  0.48373547384E+01  0.29191226911E+02  0.11882040949E+02  0.59302099879E+02  0.50000284234E+02 0.  0.
         12    1    1    2    0    0 -0.48373547384E+01 -0.29191226911E+02 -0.11882040949E+02  0.31885900121E+02  0.00000000000E+00 0. -1.
         11    1    3    3    0    0 -0.49828070098E+01  0.28885074053E+01 -0.20729239031E+01  0.61211808090E+01  0.51100000000E-03 0. -1.
        -11    1    3    3    0    0  0.24220569220E+02  0.57056705779E+01  0.99306840978E+00  0.24903349880E+02  0.51100000000E-03 0.  1.
         12    1    3    3    0    0 -0.14400407472E+02  0.20597048928E+02  0.12961896443E+02  0.28277569190E+02  0.00000000000E+00 0. -1.
</event>
<event>
 7    1  0.6672802E-013  0.5930194E+02  0.7816164E-02  0.1266605E+00
        -11   -1    0    0    0    0  0.00000000000E+00  0.00000000000E+00  0.45593999997E+02  0.45594000000E+02  0.51100000000E-03 0.  1.
         11   -1    0    0    0    0 -0.00000000000E+00 -0.00000000000E+00 -0.45593999997E+02  0.45594000000E+02  0.51100000000E-03 0. -1.
    9900012    2    1    2    0    0 -0.13680522928E+02 -0.79500614514E+01  0.27683224471E+02  0.59301935618E+02  0.49999984662E+02 0.  0.
         12    1    1    2    0    0  0.13680522928E+02  0.79500614514E+01 -0.27683224471E+02  0.31886064382E+02  0.00000000000E+00 0. -1.
         11    1    3    3    0    0 -0.78720900266E+01 -0.10088797437E+02 -0.43014501863E+01  0.13500226260E+02  0.51100000000E-03 0. -1.
        -11    1    3    3    0    0  0.24814561359E+01  0.69500767102E+00 -0.61929744703E+01  0.67077263859E+01  0.51100000000E-03 0.  1.
        -12    1    3    3    0    0 -0.82898890376E+01  0.14437283142E+01  0.38177649128E+02  0.39093982972E+02  0.00000000000E+00 0.  1.
</event>
<event>
 7    1  0.6672802E-013  0.5930194E+02  0.7816164E-02  0.1266605E+00
        -11   -1    0    0    0    0  0.00000000000E+00  0.00000000000E+00  0.45593999997E+02  0.45594000000E+02  0.51100000000E-03 0.  1.
         11   -1    0    0    0    0 -0.00000000000E+00 -0.00000000000E+00 -0.45593999997E+02  0.45594000000E+02  0.51100000000E-03 0. -1.
    9900012    2    1    2    0    0 -0.23232271325E+02 -0.14731385373E+01  0.21790184023E+02  0.59301942109E+02  0.49999996501E+02 0.  0.
         12    1    1    2    0    0  0.23232271325E+02  0.14731385373E+01 -0.21790184023E+02  0.31886057891E+02  0.00000000000E+00 0. -1.
         11    1    3    3    0    0 -0.20635547845E+01 -0.12316264404E+02 -0.47603984700E+01  0.13364506017E+02  0.51100000000E-03 0. -1.
        -11    1    3    3    0    0  0.30520341511E+01 -0.43413653656E+01 -0.18701899341E+01  0.56267198569E+01  0.51100000000E-03 0.  1.
        -12    1    3    3    0    0 -0.24220750692E+02  0.15184491233E+02  0.28420772427E+02  0.40310716235E+02  0.00000000000E+00 0.  1.
</event>
<event>
 7    1  0.6672802E-013  0.5930189E+02  0.7816164E-02  0.1266605E+00
        -11   -1    0    0    0    0  0.00000000000E+00  0.00000000000E+00  0.45593999997E+02  0.45594000000E+02  0.51100000000E-03 0.  1.
         11   -1    0    0    0    0 -0.00000000000E+00 -0.00000000000E+00 -0.45593999997E+02  0.45594000000E+02  0.51100000000E-03 0. -1.
    9900012    2    1    2    0    0  0.49054339161E+01  0.13427692089E+02  0.28501891738E+02  0.59301889710E+02  0.49999900938E+02 0.  0.
         12    1    1    2    0    0 -0.49054339161E+01 -0.13427692089E+02 -0.28501891738E+02  0.31886110290E+02  0.00000000000E+00 0. -1.
         11    1    3    3    0    0  0.12776833889E+02  0.17461070584E+02  0.18178691713E+02  0.28259534724E+02  0.51100000000E-03 0. -1.
        -11    1    3    3    0    0  0.64063514320E+01 -0.26142467543E+01  0.14527370424E+02  0.16090994887E+02  0.51100000000E-03 0.  1.
        -12    1    3    3    0    0 -0.14277751405E+02 -0.14191317411E+01 -0.42041703979E+01  0.14951360099E+02  0.00000000000E+00 0.  1.
</event>
<event>
 7    1  0.6672802E-013  0.5930210E+02  0.7816164E-02  0.1266604E+00
        -11   -1    0    0    0    0  0.00000000000E+00  0.00000000000E+00  0.45593999997E+02  0.45594000000E+02  0.51100000000E-03 0.  1.
         11   -1    0    0    0    0 -0.00000000000E+00 -0.00000000000E+00 -0.45593999997E+02  0.45594000000E+02  0.51100000000E-03 0. -1.
    9900012    2    1    2    0    0  0.23884729541E+02 -0.21124155923E+02  0.12863984857E-01  0.59302102895E+02  0.50000289735E+02 0.  0.
         12    1    1    2    0    0 -0.23884729541E+02  0.21124155923E+02 -0.12863984857E-01  0.31885897105E+02  0.00000000000E+00 0. -1.
         11    1    3    3    0    0  0.17449627664E+02 -0.63037306607E+00 -0.31675742023E+01  0.17745996800E+02  0.51100000000E-03 0. -1.
        -11    1    3    3    0    0  0.17191344526E+02  0.42552676834E+00  0.51498700531E+01  0.17951171590E+02  0.51100000000E-03 0.  1.
        -12    1    3    3    0    0 -0.10756242649E+02 -0.20919309625E+02 -0.19694318659E+01  0.23604934505E+02  0.00000000000E+00 0.  1.
</event>
<event>
 7    1  0.6672802E-013  0.5930195E+02  0.7816164E-02  0.1266605E+00
        -11   -1    0    0    0    0  0.00000000000E+00  0.00000000000E+00  0.45593999997E+02  0.45594000000E+02  0.51100000000E-03 0.  1.
         11   -1    0    0    0    0 -0.00000000000E+00 -0.00000000000E+00 -0.45593999997E+02  0.45594000000E+02  0.51100000000E-03 0. -1.
    9900012    2    1    2    0    0  0.31124796725E+02  0.69117316787E+01  0.44200295173E+00  0.59301947053E+02  0.50000005517E+02 0.  0.
         12    1    1    2    0    0 -0.31124796725E+02 -0.69117316787E+01 -0.44200295173E+00  0.31886052947E+02  0.00000000000E+00 0. -1.
         11    1    3    3    0    0 -0.21159774165E+01 -0.82003994017E+01 -0.15541855120E+02  0.17699524615E+02  0.51100000000E-03 0. -1.
        -11    1    3    3    0    0  0.54181491387E+01  0.54681267588E+00  0.71336066683E+01  0.89746135600E+01  0.51100000000E-03 0.  1.
        -12    1    3    3    0    0  0.27822625003E+02  0.14565318405E+02  0.88502514030E+01  0.32627808878E+02  0.00000000000E+00 0.  1.
</event>
<event>
 7    1  0.6672802E-013  0.5930205E+02  0.7816164E-02  0.1266604E+00
        -11   -1    0    0    0    0  0.00000000000E+00  0.00000000000E+00  0.45593999997E+02  0.45594000000E+02  0.51100000000E-03 0.  1.
         11   -1    0    0    0    0 -0.00000000000E+00 -0.00000000000E+00 -0.45593999997E+02  0.45594000000E+02  0.51100000000E-03 0. -1.
    9900012    2    1    2    0    0  0.31318994946E+02  0.53413730432E+01  0.27026611851E+01  0.59302045602E+02  0.50000185246E+02 0.  0.
         12    1    1    2    0    0 -0.31318994946E+02 -0.53413730432E+01 -0.27026611851E+01  0.31885954398E+02  0.00000000000E+00 0. -1.
         11    1    3    3    0    0 -0.26974866640E+01  0.95732444247E+01 -0.83738613958E+01  0.13001730579E+02  0.51100000000E-03 0. -1.
        -11    1    3    3    0    0  0.18899885353E+02 -0.16387169606E+02  0.26612466014E+01  0.25156057477E+02  0.51100000000E-03 0.  1.
         12    1    3    3    0    0  0.15116596257E+02  0.12155298225E+02  0.84152759794E+01  0.21144257546E+02  0.00000000000E+00 0. -1.
</event>
<event>
 7    1  0.6672802E-013  0.5930202E+02  0.7816164E-02  0.1266604E+00
        -11   -1    0    0    0    0  0.00000000000E+00  0.00000000000E+00  0.45593999997E+02  0.45594000000E+02  0.51100000000E-03 0.  1.
         11   -1    0    0    0    0 -0.00000000000E+00 -0.00000000000E+00 -0.45593999997E+02  0.45594000000E+02  0.51100000000E-03 0. -1.
    9900012    2    1    2    0    0 -0.17796977550E+02 -0.23125027225E+01  0.26355939554E+02  0.59302021443E+02  0.50000141187E+02 0.  0.
         12    1    1    2    0    0  0.17796977550E+02  0.23125027225E+01 -0.26355939554E+02  0.31885978557E+02  0.00000000000E+00 0. -1.
         11    1    3    3    0    0 -0.23225630675E+01 -0.12931800928E+02  0.20180467147E+02  0.24080635975E+02  0.51100000000E-03 0. -1.
        -11    1    3    3    0    0 -0.86364269049E+01  0.65043955954E+01  0.17975199230E+02  0.20976244167E+02  0.51100000000E-03 0.  1.
         12    1    3    3    0    0 -0.68379875774E+01  0.41149026097E+01 -0.11799726823E+02  0.14245141301E+02  0.00000000000E+00 0. -1.
</event>
<event>
 7    1  0.6672802E-013  0.5930201E+02  0.7816164E-02  0.1266605E+00
        -11   -1    0    0    0    0  0.00000000000E+00  0.00000000000E+00  0.45593999997E+02  0.45594000000E+02  0.51100000000E-03 0.  1.
         11   -1    0    0    0    0 -0.00000000000E+00 -0.00000000000E+00 -0.45593999997E+02  0.45594000000E+02  0.51100000000E-03 0. -1.
    9900012    2    1    2    0    0 -0.16757646150E+02 -0.23320387535E+02  0.13858471696E+02  0.59302009079E+02  0.50000118638E+02 0.  0.
         12    1    1    2    0    0  0.16757646150E+02  0.23320387535E+02 -0.13858471696E+02  0.31885990921E+02  0.00000000000E+00 0. -1.
         11    1    3    3    0    0  0.12352373566E+01 -0.17091957874E+01 -0.39232794323E+01  0.44541310412E+01  0.51100000000E-03 0. -1.
        -11    1    3    3    0    0  0.14349292324E+02 -0.62122275423E+01  0.86994229705E+01  0.17893404414E+02  0.51100000000E-03 0.  1.
        -12    1    3    3    0    0 -0.32342175831E+02 -0.15398964205E+02  0.90823281580E+01  0.36954473624E+02  0.00000000000E+00 0.  1.
</event>
<event>
 7    1  0.6672802E-013  0.5930195E+02  0.7816164E-02  0.1266605E+00
        -11   -1    0    0    0    0  0.00000000000E+00  0.00000000000E+00  0.45593999997E+02  0.45594000000E+02  0.51100000000E-03 0.  1.
         11   -1    0    0    0    0 -0.00000000000E+00 -0.00000000000E+00 -0.45593999997E+02  0.45594000000E+02  0.51100000000E-03 0. -1.
    9900012    2    1    2    0    0  0.56847809598E+01  0.29413043953E+02  0.10921376169E+02  0.59301947461E+02  0.50000006261E+02 0.  0.
         12    1    1    2    0    0 -0.56847809598E+01 -0.29413043953E+02 -0.10921376169E+02  0.31886052539E+02  0.00000000000E+00 0. -1.
         11    1    3    3    0    0  0.72165511766E+00  0.24243759484E+02 -0.30962427735E+01  0.24451326746E+02  0.51100000000E-03 0. -1.
        -11    1    3    3    0    0  0.83425564639E+01  0.17339493120E+01 -0.83736514270E+01  0.11946667613E+02  0.51100000000E-03 0.  1.
         12    1    3    3    0    0 -0.33794306218E+01  0.34353351562E+01  0.22391270369E+02  0.22903953102E+02  0.00000000000E+00 0. -1.
</event>
<event>
 7    1  0.6672802E-013  0.5930175E+02  0.7816164E-02  0.1266605E+00
        -11   -1    0    0    0    0  0.00000000000E+00  0.00000000000E+00  0.45593999997E+02  0.45594000000E+02  0.51100000000E-03 0.  1.
         11   -1    0    0    0    0 -0.00000000000E+00 -0.00000000000E+00 -0.45593999997E+02  0.45594000000E+02  0.51100000000E-03 0. -1.
    9900012    2    1    2    0    0  0.21007482975E+02  0.95777153827E+01  0.21992854521E+02  0.59301754958E+02  0.49999655182E+02 0.  0.
         12    1    1    2    0    0 -0.21007482975E+02 -0.95777153827E+01 -0.21992854521E+02  0.31886245042E+02  0.00000000000E+00 0. -1.
         11    1    3    3    0    0 -0.46488909137E+01 -0.81252964649E+01  0.61887872171E+01  0.11222019286E+02  0.51100000000E-03 0.  1.
        -11    1    3    3    0    0  0.18898499985E+02  0.23079611265E+02 -0.27185654144E+00  0.29831119055E+02  0.51100000000E-03 0. -1.
         12    1    3    3    0    0  0.67578739028E+01 -0.53765994172E+01  0.16075923845E+02  0.18248616618E+02  0.00000000000E+00 0. -1.
</event>
<event>
 7    1  0.6672802E-013  0.5930194E+02  0.7816164E-02  0.1266605E+00
        -11   -1    0    0    0    0  0.00000000000E+00  0.00000000000E+00  0.45593999997E+02  0.45594000000E+02  0.51100000000E-03 0. -1.
         11   -1    0    0    0    0 -0.00000000000E+00 -0.00000000000E+00 -0.45593999997E+02  0.45594000000E+02  0.51100000000E-03 0.  1.
    9900012    2    1    2    0    0 -0.21643904444E+02  0.16500283624E+02 -0.16613333011E+02  0.59301940460E+02  0.49999993493E+02 0.  0.
         12    1    1    2    0    0  0.21643904444E+02 -0.16500283624E+02  0.16613333011E+02  0.31886059540E+02  0.00000000000E+00 0. -1.
         11    1    3    3    0    0 -0.13337779201E+02  0.52417208483E+00 -0.93342976904E+01  0.16288039294E+02  0.51100000000E-03 0. -1.
        -11    1    3    3    0    0 -0.11294313611E+02 -0.39742284151E+01 -0.16862041164E+02  0.20680532970E+02  0.51100000000E-03 0.  1.
        -12    1    3    3    0    0  0.29881883680E+01  0.19950339954E+02  0.95830058433E+01  0.22333368197E+02  0.00000000000E+00 0.  1.
</event>
<event>
 7    1  0.6672802E-013  0.5930199E+02  0.7816164E-02  0.1266605E+00
        -11   -1    0    0    0    0  0.00000000000E+00  0.00000000000E+00  0.45593999997E+02  0.45594000000E+02  0.51100000000E-03 0.  1.
         11   -1    0    0    0    0 -0.00000000000E+00 -0.00000000000E+00 -0.45593999997E+02  0.45594000000E+02  0.51100000000E-03 0. -1.
    9900012    2    1    2    0    0  0.31817115464E+02  0.20188771909E+01  0.55927961323E+00  0.59301992171E+02  0.50000087802E+02 0.  0.
         12    1    1    2    0    0 -0.31817115464E+02 -0.20188771909E+01 -0.55927961323E+00  0.31886007829E+02  0.00000000000E+00 0. -1.
         11    1    3    3    0    0  0.88267651136E+01  0.34961018160E+01  0.32862074346E+01  0.10046575030E+02  0.51100000000E-03 0. -1.
        -11    1    3    3    0    0  0.85346927289E+01 -0.13069364908E+02 -0.19003467684E+02  0.24592296829E+02  0.51100000000E-03 0.  1.
         12    1    3    3    0    0  0.14455657622E+02  0.11592140283E+02  0.16276539862E+02  0.24663120311E+02  0.00000000000E+00 0. -1.
</event>
<event>
 7    1  0.6672802E-013  0.5930192E+02  0.7816164E-02  0.1266605E+00
        -11   -1    0    0    0    0  0.00000000000E+00  0.00000000000E+00  0.45593999997E+02  0.45594000000E+02  0.51100000000E-03 0. -1.
         11   -1    0    0    0    0 -0.00000000000E+00 -0.00000000000E+00 -0.45593999997E+02  0.45594000000E+02  0.51100000000E-03 0.  1.
    9900012    2    1    2    0    0 -0.18051914383E+02  0.16588778646E+02 -0.20387815295E+02  0.59301918360E+02  0.49999953188E+02 0.  0.
         12    1    1    2    0    0  0.18051914383E+02 -0.16588778646E+02  0.20387815295E+02  0.31886081640E+02  0.00000000000E+00 0. -1.
         11    1    3    3    0    0 -0.31820820586E+01 -0.15311269721E+02  0.25838994303E+01  0.15850462555E+02  0.51100000000E-03 0. -1.
        -11    1    3    3    0    0 -0.71029786684E+00 -0.40365625136E+00 -0.25888554711E+01  0.27147070450E+01  0.51100000000E-03 0.  1.
         12    1    3    3    0    0 -0.14159534458E+02  0.32303704618E+02 -0.20382859254E+02  0.40736748760E+02  0.00000000000E+00 0. -1.
</event>
<event>
 7    1  0.6672802E-013  0.5930191E+02  0.7816164E-02  0.1266605E+00
        -11   -1    0    0    0    0  0.00000000000E+00  0.00000000000E+00  0.45593999997E+02  0.45594000000E+02  0.51100000000E-03 0. -1.
         11   -1    0    0    0    0 -0.00000000000E+00 -0.00000000000E+00 -0.45593999997E+02  0.45594000000E+02  0.51100000000E-03 0.  1.
    9900012    2    1    2    0    0 -0.26984411073E+01  0.31388357421E+02 -0.49205610904E+01  0.59301913890E+02  0.49999945035E+02 0.  0.
         12    1    1    2    0    0  0.26984411073E+01 -0.31388357421E+02  0.49205610904E+01  0.31886086110E+02  0.00000000000E+00 0. -1.
         11    1    3    3    0    0 -0.19942196590E+00 -0.52337257110E+01  0.87230325096E+00  0.53096673306E+01  0.51100000000E-03 0. -1.
        -11    1    3    3    0    0  0.36360304521E+01 -0.62948001073E+01 -0.77100495607E+01  0.10596701861E+02  0.51100000000E-03 0.  1.
        -12    1    3    3    0    0 -0.61350495935E+01  0.42916883239E+02  0.19171852193E+01  0.43395544698E+02  0.00000000000E+00 0.  1.
</event>
<event>
 7    1  0.6672802E-013  0.5930193E+02  0.7816164E-02  0.1266605E+00
        -11   -1    0    0    0    0  0.00000000000E+00  0.00000000000E+00  0.45593999997E+02  0.45594000000E+02  0.51100000000E-03 0. -1.
         11   -1    0    0    0    0 -0.00000000000E+00 -0.00000000000E+00 -0.45593999997E+02  0.45594000000E+02  0.51100000000E-03 0.  1.
    9900012    2    1    2    0    0  0.29790816313E+02 -0.10665266133E+02 -0.39345731698E+01  0.59301929306E+02  0.49999973151E+02 0.  0.
         12    1    1    2    0    0 -0.29790816313E+02  0.10665266133E+02  0.39345731698E+01  0.31886070694E+02  0.00000000000E+00 0. -1.
         11    1    3    3    0    0  0.11701442179E+02  0.10181483743E+02 -0.11853115276E+02  0.19521339664E+02  0.51100000000E-03 0. -1.
        -11    1    3    3    0    0 -0.11907962975E+01 -0.30585846040E+01 -0.83095429436E+01  0.89342845150E+01  0.51100000000E-03 0.  1.
         12    1    3    3    0    0  0.19280170432E+02 -0.17788165272E+02  0.16228085049E+02  0.30846305127E+02  0.00000000000E+00 0. -1.
</event>
<event>
 7    1  0.6672802E-013  0.5930194E+02  0.7816164E-02  0.1266605E+00
        -11   -1    0    0    0    0  0.00000000000E+00  0.00000000000E+00  0.45593999997E+02  0.45594000000E+02  0.51100000000E-03 0.  1.
         11   -1    0    0    0    0 -0.00000000000E+00 -0.00000000000E+00 -0.45593999997E+02  0.45594000000E+02  0.51100000000E-03 0. -1.
    9900012    2    1    2    0    0  0.16291239878E+02  0.13637026291E+02  0.23777042845E+02  0.59301941146E+02  0.49999994744E+02 0.  0.
         12    1    1    2    0    0 -0.16291239878E+02 -0.13637026291E+02 -0.23777042845E+02  0.31886058854E+02  0.00000000000E+00 0. -1.
         11    1    3    3    0    0  0.71401820269E+01 -0.50520435913E+01  0.43106574034E+01  0.97512620381E+01  0.51100000000E-03 0.  1.
        -11    1    3    3    0    0  0.66782059299E+01 -0.83934287511E+01  0.19613854182E+02  0.22355119252E+02  0.51100000000E-03 0. -1.
         12    1    3    3    0    0  0.24728519213E+01  0.27082498633E+02 -0.14746874029E+00  0.27195559856E+02  0.00000000000E+00 0. -1.
</event>
<event>
 7    1  0.6672802E-013  0.5930193E+02  0.7816164E-02  0.1266605E+00
        -11   -1    0    0    0    0  0.00000000000E+00  0.00000000000E+00  0.45593999997E+02  0.45594000000E+02  0.51100000000E-03 0.  1.
         11   -1    0    0    0    0 -0.00000000000E+00 -0.00000000000E+00 -0.45593999997E+02  0.45594000000E+02  0.51100000000E-03 0. -1.
    9900012    2    1    2    0    0  0.25223836460E+02  0.24700141351E+01  0.19348869335E+02  0.59301927176E+02  0.49999969267E+02 0.  0.
         12    1    1    2    0    0 -0.25223836460E+02 -0.24700141351E+01 -0.19348869335E+02  0.31886072824E+02  0.00000000000E+00 0. -1.
         11    1    3    3    0    0  0.12920394124E+02  0.74593950746E+01  0.16446672797E+02  0.22205229239E+02  0.51100000000E-03 0.  1.
        -11    1    3    3    0    0  0.33719457161E+01  0.86800519401E+01  0.14384128285E+02  0.17135240482E+02  0.51100000000E-03 0. -1.
        -12    1    3    3    0    0  0.89314966192E+01 -0.13669432880E+02 -0.11481931747E+02  0.19961457455E+02  0.00000000000E+00 0.  1.
</event>
<event>
 7    1  0.6672802E-013  0.5930191E+02  0.7816164E-02  0.1266605E+00
        -11   -1    0    0    0    0  0.00000000000E+00  0.00000000000E+00  0.45593999997E+02  0.45594000000E+02  0.51100000000E-03 0. -1.
         11   -1    0    0    0    0 -0.00000000000E+00 -0.00000000000E+00 -0.45593999997E+02  0.45594000000E+02  0.51100000000E-03 0.  1.
    9900012    2    1    2    0    0 -0.23776681773E+02  0.10925567859E+02  0.18221536152E+02  0.59301905712E+02  0.49999930121E+02 0.  0.
         12    1    1    2    0    0  0.23776681773E+02 -0.10925567859E+02 -0.18221536152E+02  0.31886094288E+02  0.00000000000E+00 0. -1.
         11    1    3    3    0    0 -0.89559314526E+01 -0.10499881030E+01 -0.50606872647E+01  0.10340296855E+02  0.51100000000E-03 0. -1.
        -11    1    3    3    0    0 -0.27522980407E+02  0.64356374410E+01  0.10634056319E+02  0.30199586649E+02  0.51100000000E-03 0.  1.
         12    1    3    3    0    0  0.12702230086E+02  0.55399185213E+01  0.12648167098E+02  0.18762022208E+02  0.00000000000E+00 0. -1.
</event>
<event>
 7    1  0.6672802E-013  0.5930196E+02  0.7816164E-02  0.1266605E+00
        -11   -1    0    0    0    0  0.00000000000E+00  0.00000000000E+00  0.45593999997E+02  0.45594000000E+02  0.51100000000E-03 0.  1.
         11   -1    0    0    0    0 -0.00000000000E+00 -0.00000000000E+00 -0.45593999997E+02  0.45594000000E+02  0.51100000000E-03 0. -1.
    9900012    2    1    2    0    0  0.30726037629E+02  0.75887464909E+01  0.38782814247E+01  0.59301960289E+02  0.50000029656E+02 0.  0.
         12    1    1    2    0    0 -0.30726037629E+02 -0.75887464909E+01 -0.38782814247E+01  0.31886039711E+02  0.00000000000E+00 0. -1.
         11    1    3    3    0    0 -0.44553923398E+01  0.72369439406E+01 -0.39879269731E+01  0.93876216533E+01  0.51100000000E-03 0. -1.
        -11    1    3    3    0    0  0.14753783263E+02  0.13855623790E+02  0.14073954373E+02  0.24652152505E+02  0.51100000000E-03 0.  1.
         12    1    3    3    0    0  0.20427646705E+02 -0.13503821240E+02 -0.62077459750E+01  0.25262186130E+02  0.00000000000E+00 0. -1.
</event>
<event>
 7    1  0.6672802E-013  0.5930197E+02  0.7816164E-02  0.1266605E+00
        -11   -1    0    0    0    0  0.00000000000E+00  0.00000000000E+00  0.45593999997E+02  0.45594000000E+02  0.51100000000E-03 0.  1.
         11   -1    0    0    0    0 -0.00000000000E+00 -0.00000000000E+00 -0.45593999997E+02  0.45594000000E+02  0.51100000000E-03 0. -1.
    9900012    2    1    2    0    0  0.83190328084E+01 -0.24313406963E+02  0.18877781420E+02  0.59301973337E+02  0.50000053453E+02 0.  0.
         12    1    1    2    0    0 -0.83190328084E+01  0.24313406963E+02 -0.18877781420E+02  0.31886026663E+02  0.00000000000E+00 0. -1.
         11    1    3    3    0    0  0.25084842776E+01 -0.11143859742E+02 -0.90373326979E+01  0.14565420896E+02  0.51100000000E-03 0. -1.
        -11    1    3    3    0    0  0.11040440651E+02 -0.20116669781E+02  0.10425323841E+02  0.25204347052E+02  0.51100000000E-03 0.  1.
         12    1    3    3    0    0 -0.52298921203E+01  0.69471225595E+01  0.17489790277E+02  0.19532205390E+02  0.00000000000E+00 0. -1.
</event>
<event>
 7    1  0.6672802E-013  0.5930195E+02  0.7816164E-02  0.1266605E+00
        -11   -1    0    0    0    0  0.00000000000E+00  0.00000000000E+00  0.45593999997E+02  0.45594000000E+02  0.51100000000E-03 0.  1.
         11   -1    0    0    0    0 -0.00000000000E+00 -0.00000000000E+00 -0.45593999997E+02  0.45594000000E+02  0.51100000000E-03 0. -1.
    9900012    2    1    2    0    0 -0.23047620938E+02  0.14527017022E+02  0.16567829854E+02  0.59301952260E+02  0.50000015013E+02 0.  0.
         12    1    1    2    0    0  0.23047620938E+02 -0.14527017022E+02 -0.16567829854E+02  0.31886047740E+02  0.00000000000E+00 0. -1.
         11    1    3    3    0    0 -0.69424102075E+01 -0.28399554182E+01  0.11448933769E+02  0.13687238252E+02  0.51100000000E-03 0. -1.
        -11    1    3    3    0    0 -0.64637713101E+01  0.58257653282E+01  0.21610049154E+02  0.23296225143E+02  0.51100000000E-03 0.  1.
         12    1    3    3    0    0 -0.96414394199E+01  0.11541207112E+02 -0.16491153069E+02  0.22318488865E+02  0.00000000000E+00 0. -1.
</event>
<event>
 7    1  0.6672802E-013  0.5930193E+02  0.7816164E-02  0.1266605E+00
        -11   -1    0    0    0    0  0.00000000000E+00  0.00000000000E+00  0.45593999997E+02  0.45594000000E+02  0.51100000000E-03 0.  1.
         11   -1    0    0    0    0 -0.00000000000E+00 -0.00000000000E+00 -0.45593999997E+02  0.45594000000E+02  0.51100000000E-03 0. -1.
    9900012    2    1    2    0    0  0.11540862042E+02  0.19627126929E+02  0.22322766257E+02  0.59301929349E+02  0.49999973230E+02 0.  0.
         12    1    1    2    0    0 -0.11540862042E+02 -0.19627126929E+02 -0.22322766257E+02  0.31886070651E+02  0.00000000000E+00 0. -1.
         11    1    3    3    0    0 -0.12926087437E+02  0.15576494623E+02  0.78476722436E+01  0.21709373116E+02  0.51100000000E-03 0. -1.
        -11    1    3    3    0    0 -0.27022941387E+01  0.68657831859E+01  0.31854572408E+01  0.80366977337E+01  0.51100000000E-03 0.  1.
         12    1    3    3    0    0  0.27169243618E+02 -0.28151508792E+01  0.11289636772E+02  0.29555858500E+02  0.00000000000E+00 0. -1.
</event>
<event>
 7    1  0.6672802E-013  0.5930193E+02  0.7816164E-02  0.1266605E+00
        -11   -1    0    0    0    0  0.00000000000E+00  0.00000000000E+00  0.45593999997E+02  0.45594000000E+02  0.51100000000E-03 0.  1.
         11   -1    0    0    0    0 -0.00000000000E+00 -0.00000000000E+00 -0.45593999997E+02  0.45594000000E+02  0.51100000000E-03 0. -1.
    9900012    2    1    2    0    0  0.16756173646E+02  0.19614527942E+02  0.18740936451E+02  0.59301925285E+02  0.49999965818E+02 0.  0.
         12    1    1    2    0    0 -0.16756173646E+02 -0.19614527942E+02 -0.18740936451E+02  0.31886074715E+02  0.00000000000E+00 0. -1.
         11    1    3    3    0    0 -0.48789175673E+01  0.50636988853E+01  0.39314805146E+01  0.80561419009E+01  0.51100000000E-03 0. -1.
        -11    1    3    3    0    0 -0.94769039413E+01  0.14829527161E+02  0.24551346991E+01  0.17769475816E+02  0.51100000000E-03 0.  1.
         12    1    3    3    0    0  0.31111995155E+02 -0.27869810390E+00  0.12354321237E+02  0.33476307568E+02  0.00000000000E+00 0. -1.
</event>
<event>
 7    1  0.6672802E-013  0.5930189E+02  0.7816164E-02  0.1266605E+00
        -11   -1    0    0    0    0  0.00000000000E+00  0.00000000000E+00  0.45593999997E+02  0.45594000000E+02  0.51100000000E-03 0.  1.
         11   -1    0    0    0    0 -0.00000000000E+00 -0.00000000000E+00 -0.45593999997E+02  0.45594000000E+02  0.51100000000E-03 0. -1.
    9900012    2    1    2    0    0  0.21954624454E+02 -0.34005647039E+01  0.22872570271E+02  0.59301892586E+02  0.49999906182E+02 0.  0.
         12    1    1    2    0    0 -0.21954624454E+02  0.34005647039E+01 -0.22872570271E+02  0.31886107414E+02  0.00000000000E+00 0. -1.
         11    1    3    3    0    0 -0.81077850558E+01 -0.33935447464E+01  0.20572894918E+02  0.22371775298E+02  0.51100000000E-03 0. -1.
        -11    1    3    3    0    0  0.86482118503E+00 -0.54377822704E+00  0.72408102752E+01  0.73125196851E+01  0.51100000000E-03 0.  1.
         12    1    3    3    0    0  0.29197588325E+02  0.53675826957E+00 -0.49411349212E+01  0.29617597602E+02  0.00000000000E+00 0. -1.
</event>
<event>
 7    1  0.6672802E-013  0.5930195E+02  0.7816164E-02  0.1266605E+00
        -11   -1    0    0    0    0  0.00000000000E+00  0.00000000000E+00  0.45593999997E+02  0.45594000000E+02  0.51100000000E-03 0. -1.
         11   -1    0    0    0    0 -0.00000000000E+00 -0.00000000000E+00 -0.45593999997E+02  0.45594000000E+02  0.51100000000E-03 0.  1.
    9900012    2    1    2    0    0  0.11123209696E+02 -0.27999171374E+02 -0.10442253737E+02  0.59301952037E+02  0.50000014608E+02 0.  0.
         12    1    1    2    0    0 -0.11123209696E+02  0.27999171374E+02  0.10442253737E+02  0.31886047963E+02  0.00000000000E+00 0. -1.
         11    1    3    3    0    0 -0.56409399002E+01 -0.10666204363E+02 -0.92526443296E+01  0.15205247312E+02  0.51100000000E-03 0. -1.
        -11    1    3    3    0    0 -0.49017142580E+01  0.44170292259E+01 -0.10158850546E+02  0.12113595442E+02  0.51100000000E-03 0.  1.
        -12    1    3    3    0    0  0.21665863854E+02 -0.21749996237E+02  0.89692411384E+01  0.31983109284E+02  0.00000000000E+00 0.  1.
</event>
<event>
 7    1  0.6672802E-013  0.5930196E+02  0.7816164E-02  0.1266605E+00
        -11   -1    0    0    0    0  0.00000000000E+00  0.00000000000E+00  0.45593999997E+02  0.45594000000E+02  0.51100000000E-03 0. -1.
         11   -1    0    0    0    0 -0.00000000000E+00 -0.00000000000E+00 -0.45593999997E+02  0.45594000000E+02  0.51100000000E-03 0.  1.
    9900012    2    1    2    0    0 -0.10799467326E+02 -0.27520262865E+02 -0.11946802713E+02  0.59301961398E+02  0.50000031678E+02 0.  0.
         12    1    1    2    0    0  0.10799467326E+02  0.27520262865E+02  0.11946802713E+02  0.31886038602E+02  0.00000000000E+00 0. -1.
         11    1    3    3    0    0  0.11538952098E+02 -0.18011951505E+01  0.63389234750E+00  0.11695877020E+02  0.51100000000E-03 0. -1.
        -11    1    3    3    0    0 -0.10439155222E+02 -0.13688261991E+02  0.95978564941E+01  0.19709473043E+02  0.51100000000E-03 0.  1.
        -12    1    3    3    0    0 -0.11899264202E+02 -0.12030805724E+02 -0.22178551554E+02  0.27896611335E+02  0.00000000000E+00 0.  1.
</event>
<event>
 7    1  0.6672802E-013  0.5930191E+02  0.7816164E-02  0.1266605E+00
        -11   -1    0    0    0    0  0.00000000000E+00  0.00000000000E+00  0.45593999997E+02  0.45594000000E+02  0.51100000000E-03 0. -1.
         11   -1    0    0    0    0 -0.00000000000E+00 -0.00000000000E+00 -0.45593999997E+02  0.45594000000E+02  0.51100000000E-03 0.  1.
    9900012    2    1    2    0    0  0.30700923740E+01 -0.19335039735E+02 -0.25168499298E+02  0.59301912349E+02  0.49999942226E+02 0.  0.
         12    1    1    2    0    0 -0.30700923740E+01  0.19335039735E+02  0.25168499298E+02  0.31886087651E+02  0.00000000000E+00 0. -1.
         11    1    3    3    0    0  0.94203612875E+01 -0.47852087127E+01  0.10404331429E+01  0.10617152660E+02  0.51100000000E-03 0. -1.
        -11    1    3    3    0    0  0.64406183242E+01 -0.16297839978E+02  0.20234778314E+01  0.17640737375E+02  0.51100000000E-03 0.  1.
        -12    1    3    3    0    0 -0.12790887238E+02  0.17480089554E+01 -0.28232410273E+02  0.31044022314E+02  0.00000000000E+00 0.  1.
</event>
<event>
 7    1  0.6672802E-013  0.5930195E+02  0.7816164E-02  0.1266605E+00
        -11   -1    0    0    0    0  0.00000000000E+00  0.00000000000E+00  0.45593999997E+02  0.45594000000E+02  0.51100000000E-03 0. -1.
         11   -1    0    0    0    0 -0.00000000000E+00 -0.00000000000E+00 -0.45593999997E+02  0.45594000000E+02  0.51100000000E-03 0.  1.
    9900012    2    1    2    0    0  0.79950933231E+01  0.30543393354E+02 -0.44608838726E+01  0.59301954780E+02  0.50000019610E+02 0.  0.
         12    1    1    2    0    0 -0.79950933231E+01 -0.30543393354E+02  0.44608838726E+01  0.31886045220E+02  0.00000000000E+00 0. -1.
         11    1    3    3    0    0 -0.48377765889E+01 -0.30526401015E+00  0.94326775850E+01  0.10605313533E+02  0.51100000000E-03 0. -1.
        -11    1    3    3    0    0 -0.10346122799E+02  0.95489750818E+01  0.48823264918E+00  0.14087709305E+02  0.51100000000E-03 0.  1.
        -12    1    3    3    0    0  0.23178992711E+02  0.21299682283E+02 -0.14381794107E+02  0.34608931942E+02  0.00000000000E+00 0.  1.
</event>
<event>
 7    1  0.6672802E-013  0.5930195E+02  0.7816164E-02  0.1266605E+00
        -11   -1    0    0    0    0  0.00000000000E+00  0.00000000000E+00  0.45593999997E+02  0.45594000000E+02  0.51100000000E-03 0.  1.
         11   -1    0    0    0    0 -0.00000000000E+00 -0.00000000000E+00 -0.45593999997E+02  0.45594000000E+02  0.51100000000E-03 0. -1.
    9900012    2    1    2    0    0  0.93749421437E+00  0.17974972819E+02  0.26319987295E+02  0.59301948591E+02  0.50000008321E+02 0.  0.
         12    1    1    2    0    0 -0.93749421437E+00 -0.17974972819E+02 -0.26319987295E+02  0.31886051409E+02  0.00000000000E+00 0. -1.
         11    1    3    3    0    0 -0.21305724255E+01  0.16881557454E+02 -0.18001698514E+01  0.17110433445E+02  0.51100000000E-03 0. -1.
        -11    1    3    3    0    0 -0.12318952400E+02  0.12123745484E+01  0.22739574358E+02  0.25890436120E+02  0.51100000000E-03 0.  1.
        -12    1    3    3    0    0  0.15387019040E+02 -0.11895918300E+00  0.53805827893E+01  0.16301079025E+02  0.00000000000E+00 0.  1.
</event>
<event>
 7    1  0.6672802E-013  0.5930198E+02  0.7816164E-02  0.1266605E+00
        -11   -1    0    0    0    0  0.00000000000E+00  0.00000000000E+00  0.45593999997E+02  0.45594000000E+02  0.51100000000E-03 0. -1.
         11   -1    0    0    0    0 -0.00000000000E+00 -0.00000000000E+00 -0.45593999997E+02  0.45594000000E+02  0.51100000000E-03 0.  1.
    9900012    2    1    2    0    0 -0.26986367049E+02  0.11465840867E+02  0.12529504907E+02  0.59301984155E+02  0.50000073182E+02 0.  0.
         12    1    1    2    0    0  0.26986367049E+02 -0.11465840867E+02 -0.12529504907E+02  0.31886015845E+02  0.00000000000E+00 0. -1.
         11    1    3    3    0    0 -0.33337260771E+01 -0.64944254955E+01 -0.85663300627E+01  0.11254923504E+02  0.51100000000E-03 0. -1.
        -11    1    3    3    0    0 -0.16768706057E+02  0.41114009432E+00 -0.34227332515E+01  0.17119393744E+02  0.51100000000E-03 0.  1.
         12    1    3    3    0    0 -0.68839349153E+01  0.17549126268E+02  0.24518568221E+02  0.30927666907E+02  0.00000000000E+00 0. -1.
</event>
<event>
 7    1  0.6672802E-013  0.5930196E+02  0.7816164E-02  0.1266605E+00
        -11   -1    0    0    0    0  0.00000000000E+00  0.00000000000E+00  0.45593999997E+02  0.45594000000E+02  0.51100000000E-03 0.  1.
         11   -1    0    0    0    0 -0.00000000000E+00 -0.00000000000E+00 -0.45593999997E+02  0.45594000000E+02  0.51100000000E-03 0. -1.
    9900012    2    1    2    0    0  0.17505351535E+02  0.26461928184E+02  0.31699896822E+01  0.59301955871E+02  0.50000021600E+02 0.  0.
         12    1    1    2    0    0 -0.17505351535E+02 -0.26461928184E+02 -0.31699896822E+01  0.31886044129E+02  0.00000000000E+00 0. -1.
         11    1    3    3    0    0  0.13207794889E+02  0.56611725564E+01  0.10377712379E+02  0.17725451617E+02  0.51100000000E-03 0. -1.
        -11    1    3    3    0    0  0.15671793174E+02  0.20486433035E+02 -0.12915817951E+02  0.28846445074E+02  0.51100000000E-03 0.  1.
         12    1    3    3    0    0 -0.11374236529E+02  0.31432259323E+00  0.57080952545E+01  0.12730059180E+02  0.00000000000E+00 0. -1.
</event>
<event>
 7    1  0.6672802E-013  0.5930206E+02  0.7816164E-02  0.1266604E+00
        -11   -1    0    0    0    0  0.00000000000E+00  0.00000000000E+00  0.45593999997E+02  0.45594000000E+02  0.51100000000E-03 0.  1.
         11   -1    0    0    0    0 -0.00000000000E+00 -0.00000000000E+00 -0.45593999997E+02  0.45594000000E+02  0.51100000000E-03 0. -1.
    9900012    2    1    2    0    0 -0.86688923038E+01  0.22071217925E+02  0.21317238231E+02  0.59302062656E+02  0.50000216350E+02 0.  0.
         12    1    1    2    0    0  0.86688923038E+01 -0.22071217925E+02 -0.21317238231E+02  0.31885937344E+02  0.00000000000E+00 0. -1.
         11    1    3    3    0    0 -0.10260933471E+02  0.95921864591E+00 -0.82537321379E+01  0.13203444648E+02  0.51100000000E-03 0. -1.
        -11    1    3    3    0    0 -0.94110388691E+01  0.23373525583E+01  0.20196891826E+02  0.22404135985E+02  0.51100000000E-03 0.  1.
         12    1    3    3    0    0  0.11003080037E+02  0.18774646721E+02  0.93740785438E+01  0.23694482023E+02  0.00000000000E+00 0. -1.
</event>
<event>
 7    1  0.6672802E-013  0.5930195E+02  0.7816164E-02  0.1266605E+00
        -11   -1    0    0    0    0  0.00000000000E+00  0.00000000000E+00  0.45593999997E+02  0.45594000000E+02  0.51100000000E-03 0. -1.
         11   -1    0    0    0    0 -0.00000000000E+00 -0.00000000000E+00 -0.45593999997E+02  0.45594000000E+02  0.51100000000E-03 0.  1.
    9900012    2    1    2    0    0  0.20758058632E+02  0.23934995589E+02  0.35971427026E+01  0.59301945875E+02  0.50000003369E+02 0.  0.
         12    1    1    2    0    0 -0.20758058632E+02 -0.23934995589E+02 -0.35971427026E+01  0.31886054125E+02  0.00000000000E+00 0. -1.
         11    1    3    3    0    0 -0.96626516109E+01  0.16671099057E+02  0.10630682648E+02  0.22006903320E+02  0.51100000000E-03 0. -1.
        -11    1    3    3    0    0 -0.17322377529E+01  0.36221918708E+01  0.56957658081E+00  0.40552853567E+01  0.51100000000E-03 0.  1.
        -12    1    3    3    0    0  0.32152947996E+02  0.36417046617E+01 -0.76031165263E+01  0.33239757198E+02  0.00000000000E+00 0.  1.
</event>
<event>
 7    1  0.6672802E-013  0.5930195E+02  0.7816164E-02  0.1266605E+00
        -11   -1    0    0    0    0  0.00000000000E+00  0.00000000000E+00  0.45593999997E+02  0.45594000000E+02  0.51100000000E-03 0.  1.
         11   -1    0    0    0    0 -0.00000000000E+00 -0.00000000000E+00 -0.45593999997E+02  0.45594000000E+02  0.51100000000E-03 0. -1.
    9900012    2    1    2    0    0 -0.27007778247E+02 -0.11123342807E+02  0.12789491673E+02  0.59301953862E+02  0.50000017936E+02 0.  0.
         12    1    1    2    0    0  0.27007778247E+02  0.11123342807E+02 -0.12789491673E+02  0.31886046138E+02  0.00000000000E+00 0. -1.
         11    1    3    3    0    0  0.96693003096E+01 -0.21364468262E+01  0.77398296142E+01  0.12568402294E+02  0.51100000000E-03 0. -1.
        -11    1    3    3    0    0  0.12616344080E+01  0.46670439755E+01  0.41992854630E+01  0.64036723456E+01  0.51100000000E-03 0.  1.
        -12    1    3    3    0    0 -0.37938712964E+02 -0.13653939956E+02  0.85037659533E+00  0.40329879222E+02  0.00000000000E+00 0.  1.
</event>
<event>
 7    1  0.6672802E-013  0.5930192E+02  0.7816164E-02  0.1266605E+00
        -11   -1    0    0    0    0  0.00000000000E+00  0.00000000000E+00  0.45593999997E+02  0.45594000000E+02  0.51100000000E-03 0. -1.
         11   -1    0    0    0    0 -0.00000000000E+00 -0.00000000000E+00 -0.45593999997E+02  0.45594000000E+02  0.51100000000E-03 0.  1.
    9900012    2    1    2    0    0  0.30076553499E+01  0.15730416692E+02 -0.27572266315E+02  0.59301923575E+02  0.49999962699E+02 0.  0.
         12    1    1    2    0    0 -0.30076553499E+01 -0.15730416692E+02  0.27572266315E+02  0.31886076425E+02  0.00000000000E+00 0. -1.
         11    1    3    3    0    0  0.74790535345E+01 -0.15010863831E+01 -0.43332299390E+01  0.87730487327E+01  0.51100000000E-03 0. -1.
        -11    1    3    3    0    0  0.11450198876E+02 -0.12572425242E+01 -0.23452350643E+02  0.26128537349E+02  0.51100000000E-03 0.  1.
         12    1    3    3    0    0 -0.15921597061E+02  0.18488745599E+02  0.21331426656E+00  0.24400337493E+02  0.00000000000E+00 0. -1.
</event>
<event>
 7    1  0.6672802E-013  0.5930191E+02  0.7816164E-02  0.1266605E+00
        -11   -1    0    0    0    0  0.00000000000E+00  0.00000000000E+00  0.45593999997E+02  0.45594000000E+02  0.51100000000E-03 0. -1.
         11   -1    0    0    0    0 -0.00000000000E+00 -0.00000000000E+00 -0.45593999997E+02  0.45594000000E+02  0.51100000000E-03 0.  1.
    9900012    2    1    2    0    0 -0.22039381926E+02  0.13290379450E+01 -0.23004832522E+02  0.59301905587E+02  0.49999929893E+02 0.  0.
         12    1    1    2    0    0  0.22039381926E+02 -0.13290379450E+01  0.23004832522E+02  0.31886094413E+02  0.00000000000E+00 0. -1.
         11    1    3    3    0    0 -0.78148403713E+01 -0.15567960667E+02 -0.10518856807E+02  0.20348942925E+02  0.51100000000E-03 0. -1.
        -11    1    3    3    0    0 -0.15614585697E+02  0.22843004447E+02 -0.15944714226E+02  0.31935122525E+02  0.51100000000E-03 0.  1.
         12    1    3    3    0    0  0.13900441428E+01 -0.59460058351E+01  0.34587385111E+01  0.70178401377E+01  0.00000000000E+00 0. -1.
</event>
<event>
 7    1  0.6672802E-013  0.5930195E+02  0.7816164E-02  0.1266605E+00
        -11   -1    0    0    0    0  0.00000000000E+00  0.00000000000E+00  0.45593999997E+02  0.45594000000E+02  0.51100000000E-03 0. -1.
         11   -1    0    0    0    0 -0.00000000000E+00 -0.00000000000E+00 -0.45593999997E+02  0.45594000000E+02  0.51100000000E-03 0.  1.
    9900012    2    1    2    0    0  0.22409289967E+02  0.13094446174E+02 -0.18522409714E+02  0.59301945696E+02  0.50000003043E+02 0.  0.
         12    1    1    2    0    0 -0.22409289967E+02 -0.13094446174E+02  0.18522409714E+02  0.31886054304E+02  0.00000000000E+00 0. -1.
         11    1    3    3    0    0  0.69561601948E+01 -0.71318263579E+01  0.79054844842E+01  0.12718010735E+02  0.51100000000E-03 0. -1.
        -11    1    3    3    0    0 -0.14889487008E+01 -0.63608943794E+01 -0.68878145476E+01  0.94931520078E+01  0.51100000000E-03 0.  1.
        -12    1    3    3    0    0  0.16942078473E+02  0.26587166912E+02 -0.19540079651E+02  0.37090782954E+02  0.00000000000E+00 0.  1.
</event>
<event>
 7    1  0.6672802E-013  0.5930206E+02  0.7816164E-02  0.1266604E+00
        -11   -1    0    0    0    0  0.00000000000E+00  0.00000000000E+00  0.45593999997E+02  0.45594000000E+02  0.51100000000E-03 0. -1.
         11   -1    0    0    0    0 -0.00000000000E+00 -0.00000000000E+00 -0.45593999997E+02  0.45594000000E+02  0.51100000000E-03 0.  1.
    9900012    2    1    2    0    0  0.37069852296E+01  0.10696010575E+02 -0.29808837510E+02  0.59302059910E+02  0.50000211342E+02 0.  0.
         12    1    1    2    0    0 -0.37069852296E+01 -0.10696010575E+02  0.29808837510E+02  0.31885940090E+02  0.00000000000E+00 0. -1.
         11    1    3    3    0    0  0.65475754764E+01 -0.10194102220E+02 -0.43951693146E+00  0.12123680963E+02  0.51100000000E-03 0. -1.
        -11    1    3    3    0    0  0.10304333326E+02  0.70744746357E+01 -0.41210106042E+00  0.12505890781E+02  0.51100000000E-03 0.  1.
        -12    1    3    3    0    0 -0.13144923573E+02  0.13815638159E+02 -0.28957219518E+02  0.34672488167E+02  0.00000000000E+00 0.  1.
</event>
<event>
 7    1  0.6672802E-013  0.5930193E+02  0.7816164E-02  0.1266605E+00
        -11   -1    0    0    0    0  0.00000000000E+00  0.00000000000E+00  0.45593999997E+02  0.45594000000E+02  0.51100000000E-03 0.  1.
         11   -1    0    0    0    0 -0.00000000000E+00 -0.00000000000E+00 -0.45593999997E+02  0.45594000000E+02  0.51100000000E-03 0. -1.
    9900012    2    1    2    0    0  0.22455525064E+02  0.12835637116E+02  0.18647177192E+02  0.59301930890E+02  0.49999976041E+02 0.  0.
         12    1    1    2    0    0 -0.22455525064E+02 -0.12835637116E+02 -0.18647177192E+02  0.31886069110E+02  0.00000000000E+00 0. -1.
         11    1    3    3    0    0 -0.14640495720E+01  0.29834322813E+01 -0.25487198321E+01  0.41881120293E+01  0.51100000000E-03 0. -1.
        -11    1    3    3    0    0 -0.91311966414E+00  0.22250305787E+02  0.44861198213E+01  0.22716407428E+02  0.51100000000E-03 0.  1.
        -12    1    3    3    0    0  0.24832694300E+02 -0.12398100952E+02  0.16709777202E+02  0.32397411433E+02  0.00000000000E+00 0.  1.
</event>
<event>
 7    1  0.6672802E-013  0.5930196E+02  0.7816164E-02  0.1266605E+00
        -11   -1    0    0    0    0  0.00000000000E+00  0.00000000000E+00  0.45593999997E+02  0.45594000000E+02  0.51100000000E-03 0.  1.
         11   -1    0    0    0    0 -0.00000000000E+00 -0.00000000000E+00 -0.45593999997E+02  0.45594000000E+02  0.51100000000E-03 0. -1.
    9900012    2    1    2    0    0  0.99204612246E+01 -0.22278693773E+01  0.30221521680E+02  0.59301963471E+02  0.50000035460E+02 0.  0.
         12    1    1    2    0    0 -0.99204612246E+01  0.22278693773E+01 -0.30221521680E+02  0.31886036529E+02  0.00000000000E+00 0. -1.
         11    1    3    3    0    0 -0.16383181791E+02  0.13091504052E+01  0.32429062746E+01  0.16752282285E+02  0.51100000000E-03 0. -1.
        -11    1    3    3    0    0  0.16818116765E+01 -0.35619777243E+01  0.14344626970E+02  0.14875634406E+02  0.51100000000E-03 0.  1.
         12    1    3    3    0    0  0.24621831339E+02  0.24957941796E-01  0.12633988436E+02  0.27674046780E+02  0.00000000000E+00 0. -1.
</event>
<event>
 7    1  0.6672802E-013  0.5930196E+02  0.7816164E-02  0.1266605E+00
        -11   -1    0    0    0    0  0.00000000000E+00  0.00000000000E+00  0.45593999997E+02  0.45594000000E+02  0.51100000000E-03 0.  1.
         11   -1    0    0    0    0 -0.00000000000E+00 -0.00000000000E+00 -0.45593999997E+02  0.45594000000E+02  0.51100000000E-03 0. -1.
    9900012    2    1    2    0    0  0.18109736308E+02  0.24941586814E+01  0.26125397386E+02  0.59301956575E+02  0.50000022884E+02 0.  0.
         12    1    1    2    0    0 -0.18109736308E+02 -0.24941586814E+01 -0.26125397386E+02  0.31886043425E+02  0.00000000000E+00 0. -1.
         11    1    3    3    0    0  0.31506356481E+01  0.25394714105E+01 -0.38795347218E+01  0.56059084857E+01  0.51100000000E-03 0. -1.
        -11    1    3    3    0    0  0.21125420952E+02  0.10810734267E+02  0.29681807882E+01  0.23915799866E+02  0.51100000000E-03 0.  1.
         12    1    3    3    0    0 -0.61663202914E+01 -0.10856046996E+02  0.27036751320E+02  0.29780248223E+02  0.00000000000E+00 0. -1.
</event>
<event>
 7    1  0.6672802E-013  0.5930173E+02  0.7816164E-02  0.1266606E+00
        -11   -1    0    0    0    0  0.00000000000E+00  0.00000000000E+00  0.45593999997E+02  0.45594000000E+02  0.51100000000E-03 0.  1.
         11   -1    0    0    0    0 -0.00000000000E+00 -0.00000000000E+00 -0.45593999997E+02  0.45594000000E+02  0.51100000000E-03 0. -1.
    9900012    2    1    2    0    0 -0.51007596489E+01 -0.20362973406E+02  0.24001375476E+02  0.59301726156E+02  0.49999602652E+02 0.  0.
         12    1    1    2    0    0  0.51007596489E+01  0.20362973406E+02 -0.24001375476E+02  0.31886273844E+02  0.00000000000E+00 0. -1.
         11    1    3    3    0    0  0.10486838989E+02  0.46373597249E+01  0.15488567384E+02  0.19271082405E+02  0.51100000000E-03 0. -1.
        -11    1    3    3    0    0  0.19188888430E+01  0.20434729224E+01  0.72692966001E+01  0.77910582913E+01  0.51100000000E-03 0.  1.
         12    1    3    3    0    0 -0.17506487481E+02 -0.27043806053E+02  0.12435114925E+01  0.32239585459E+02  0.00000000000E+00 0. -1.
</event>
<event>
 7    1  0.6672802E-013  0.5930199E+02  0.7816164E-02  0.1266605E+00
        -11   -1    0    0    0    0  0.00000000000E+00  0.00000000000E+00  0.45593999997E+02  0.45594000000E+02  0.51100000000E-03 0.  1.
         11   -1    0    0    0    0 -0.00000000000E+00 -0.00000000000E+00 -0.45593999997E+02  0.45594000000E+02  0.51100000000E-03 0. -1.
    9900012    2    1    2    0    0  0.90486148737E+01  0.40135626083E+01  0.30310589236E+02  0.59301985263E+02  0.50000075204E+02 0.  0.
         12    1    1    2    0    0 -0.90486148737E+01 -0.40135626083E+01 -0.30310589236E+02  0.31886014737E+02  0.00000000000E+00 0. -1.
         11    1    3    3    0    0  0.13542539298E+02 -0.36712783907E+01 -0.70077411225E+01  0.15683975630E+02  0.51100000000E-03 0. -1.
        -11    1    3    3    0    0 -0.11106837178E+01 -0.71604323140E+01  0.14093317397E+02  0.15846987246E+02  0.51100000000E-03 0.  1.
        -12    1    3    3    0    0 -0.33832407060E+01  0.14845273313E+02  0.23225012961E+02  0.27771022388E+02  0.00000000000E+00 0.  1.
</event>
<event>
 7    1  0.6672802E-013  0.5930197E+02  0.7816164E-02  0.1266605E+00
        -11   -1    0    0    0    0  0.00000000000E+00  0.00000000000E+00  0.45593999997E+02  0.45594000000E+02  0.51100000000E-03 0. -1.
         11   -1    0    0    0    0 -0.00000000000E+00 -0.00000000000E+00 -0.45593999997E+02  0.45594000000E+02  0.51100000000E-03 0.  1.
    9900012    2    1    2    0    0 -0.20429497543E+01 -0.28531314627E+02 -0.14089328521E+02  0.59301972712E+02  0.50000052313E+02 0.  0.
         12    1    1    2    0    0  0.20429497543E+01  0.28531314627E+02  0.14089328521E+02  0.31886027288E+02  0.00000000000E+00 0. -1.
         11    1    3    3    0    0  0.39711259887E+01  0.33198508229E+01  0.47270376660E+01  0.70097172883E+01  0.51100000000E-03 0.  1.
        -11    1    3    3    0    0 -0.10951605734E+02  0.45206549219E+01 -0.68492542620E+01  0.13685257516E+02  0.51100000000E-03 0. -1.
        -12    1    3    3    0    0  0.49375299914E+01 -0.36371820372E+02 -0.11967111925E+02  0.38606997907E+02  0.00000000000E+00 0.  1.
</event>
<event>
 7    1  0.6672802E-013  0.5930200E+02  0.7816164E-02  0.1266605E+00
        -11   -1    0    0    0    0  0.00000000000E+00  0.00000000000E+00  0.45593999997E+02  0.45594000000E+02  0.51100000000E-03 0. -1.
         11   -1    0    0    0    0 -0.00000000000E+00 -0.00000000000E+00 -0.45593999997E+02  0.45594000000E+02  0.51100000000E-03 0.  1.
    9900012    2    1    2    0    0 -0.26142068371E+02 -0.81823617859E+01  0.16320485254E+02  0.59301999592E+02  0.50000101336E+02 0.  0.
         12    1    1    2    0    0  0.26142068371E+02  0.81823617859E+01 -0.16320485254E+02  0.31886000408E+02  0.00000000000E+00 0. -1.
         11    1    3    3    0    0 -0.18533195423E+02 -0.15488153062E+02 -0.74287332784E+01  0.25269513178E+02  0.51100000000E-03 0. -1.
        -11    1    3    3    0    0 -0.40816502981E+01 -0.51228390028E+01 -0.48668894003E+00  0.65681211157E+01  0.51100000000E-03 0.  1.
         12    1    3    3    0    0 -0.35272226501E+01  0.12428630279E+02  0.24235907472E+02  0.27464365298E+02  0.00000000000E+00 0. -1.
</event>
<event>
 7    1  0.6672802E-013  0.5930194E+02  0.7816164E-02  0.1266605E+00
        -11   -1    0    0    0    0  0.00000000000E+00  0.00000000000E+00  0.45593999997E+02  0.45594000000E+02  0.51100000000E-03 0. -1.
         11   -1    0    0    0    0 -0.00000000000E+00 -0.00000000000E+00 -0.45593999997E+02  0.45594000000E+02  0.51100000000E-03 0.  1.
    9900012    2    1    2    0    0 -0.50620020154E+01 -0.21727426081E+01 -0.31406628503E+02  0.59301937390E+02  0.49999987895E+02 0.  0.
         12    1    1    2    0    0  0.50620020154E+01  0.21727426081E+01  0.31406628503E+02  0.31886062610E+02  0.00000000000E+00 0. -1.
         11    1    3    3    0    0  0.50073480712E+01 -0.16819942173E+02 -0.10910859131E+02  0.20664724451E+02  0.51100000000E-03 0. -1.
        -11    1    3    3    0    0 -0.10524626109E+01 -0.70976235162E+01  0.36409439850E+00  0.71844625490E+01  0.51100000000E-03 0.  1.
        -12    1    3    3    0    0 -0.90168874757E+01  0.21744823081E+02 -0.20859863770E+02  0.31452750390E+02  0.00000000000E+00 0.  1.
</event>
<event>
 7    1  0.6672802E-013  0.5930183E+02  0.7816164E-02  0.1266605E+00
        -11   -1    0    0    0    0  0.00000000000E+00  0.00000000000E+00  0.45593999997E+02  0.45594000000E+02  0.51100000000E-03 0.  1.
         11   -1    0    0    0    0 -0.00000000000E+00 -0.00000000000E+00 -0.45593999997E+02  0.45594000000E+02  0.51100000000E-03 0. -1.
    9900012    2    1    2    0    0  0.31280250864E+01 -0.19389101730E+02  0.25119827360E+02  0.59301834765E+02  0.49999800730E+02 0.  0.
         12    1    1    2    0    0 -0.31280250864E+01  0.19389101730E+02 -0.25119827360E+02  0.31886165235E+02  0.00000000000E+00 0. -1.
         11    1    3    3    0    0  0.12111687493E+01 -0.56993268848E+01 -0.90800501696E+01  0.10788724115E+02  0.51100000000E-03 0. -1.
        -11    1    3    3    0    0  0.14953999863E+02 -0.15027635141E+02  0.22923266919E+02  0.31223838591E+02  0.51100000000E-03 0.  1.
        -12    1    3    3    0    0 -0.13037143526E+02  0.13378602957E+01  0.11276610610E+02  0.17289272059E+02  0.00000000000E+00 0.  1.
</event>
<event>
 7    1  0.6672802E-013  0.5930194E+02  0.7816164E-02  0.1266605E+00
        -11   -1    0    0    0    0  0.00000000000E+00  0.00000000000E+00  0.45593999997E+02  0.45594000000E+02  0.51100000000E-03 0. -1.
         11   -1    0    0    0    0 -0.00000000000E+00 -0.00000000000E+00 -0.45593999997E+02  0.45594000000E+02  0.51100000000E-03 0.  1.
    9900012    2    1    2    0    0  0.25976212802E+02 -0.90715970811E+01  0.16114081312E+02  0.59301935306E+02  0.49999984093E+02 0.  0.
         12    1    1    2    0    0 -0.25976212802E+02  0.90715970811E+01 -0.16114081312E+02  0.31886064694E+02  0.00000000000E+00 0. -1.
         11    1    3    3    0    0 -0.12324611755E+01 -0.13559358327E+01  0.78581402827E+01  0.80689461205E+01  0.51100000000E-03 0. -1.
        -11    1    3    3    0    0  0.11165346884E+02  0.13722652446E+02 -0.85193019464E+01  0.19635546010E+02  0.51100000000E-03 0.  1.
         12    1    3    3    0    0  0.16043327093E+02 -0.21438313695E+02  0.16775242976E+02  0.31597443175E+02  0.00000000000E+00 0. -1.
</event>
<event>
 7    1  0.6672802E-013  0.5930167E+02  0.7816164E-02  0.1266606E+00
        -11   -1    0    0    0    0  0.00000000000E+00  0.00000000000E+00  0.45593999997E+02  0.45594000000E+02  0.51100000000E-03 0. -1.
         11   -1    0    0    0    0 -0.00000000000E+00 -0.00000000000E+00 -0.45593999997E+02  0.45594000000E+02  0.51100000000E-03 0.  1.
    9900012    2    1    2    0    0 -0.25693254836E+02 -0.17555356853E+02  0.69572931204E+01  0.59301673371E+02  0.49999506385E+02 0.  0.
         12    1    1    2    0    0  0.25693254836E+02  0.17555356853E+02 -0.69572931204E+01  0.31886326629E+02  0.00000000000E+00 0. -1.
         11    1    3    3    0    0 -0.28309370677E+02 -0.10258286675E+02  0.33669869035E+01  0.30298341782E+02  0.51100000000E-03 0. -1.
        -11    1    3    3    0    0 -0.62985926458E+01 -0.11820187532E+02 -0.64231263985E+01  0.14854146074E+02  0.51100000000E-03 0.  1.
        -12    1    3    3    0    0  0.89147084868E+01  0.45231173534E+01  0.10013432615E+02  0.14149185515E+02  0.00000000000E+00 0.  1.
</event>
<event>
 7    1  0.6672802E-013  0.5930195E+02  0.7816164E-02  0.1266605E+00
        -11   -1    0    0    0    0  0.00000000000E+00  0.00000000000E+00  0.45593999997E+02  0.45594000000E+02  0.51100000000E-03 0.  1.
         11   -1    0    0    0    0 -0.00000000000E+00 -0.00000000000E+00 -0.45593999997E+02  0.45594000000E+02  0.51100000000E-03 0. -1.
    9900012    2    1    2    0    0  0.27995983576E+02 -0.85237382380E+01  0.12660614932E+02  0.59301946930E+02  0.50000005293E+02 0.  0.
         12    1    1    2    0    0 -0.27995983576E+02  0.85237382380E+01 -0.12660614932E+02  0.31886053070E+02  0.00000000000E+00 0. -1.
         11    1    3    3    0    0 -0.44521030810E+01 -0.42846498656E+01  0.18122855578E+02  0.19147254134E+02  0.51100000000E-03 0. -1.
        -11    1    3    3    0    0  0.18149362423E+02  0.78231966281E+01  0.23083230728E+01  0.19897992801E+02  0.51100000000E-03 0.  1.
        -12    1    3    3    0    0  0.14298724234E+02 -0.12062285001E+02 -0.77705637189E+01  0.20256699994E+02  0.00000000000E+00 0.  1.
</event>
<event>
 7    1  0.6672802E-013  0.5930196E+02  0.7816164E-02  0.1266605E+00
        -11   -1    0    0    0    0  0.00000000000E+00  0.00000000000E+00  0.45593999997E+02  0.45594000000E+02  0.51100000000E-03 0. -1.
         11   -1    0    0    0    0 -0.00000000000E+00 -0.00000000000E+00 -0.45593999997E+02  0.45594000000E+02  0.51100000000E-03 0.  1.
    9900012    2    1    2    0    0 -0.15735360336E+01 -0.17587946142E+02 -0.26550101040E+02  0.59301957123E+02  0.50000023883E+02 0.  0.
         12    1    1    2    0    0  0.15735360336E+01  0.17587946142E+02  0.26550101040E+02  0.31886042877E+02  0.00000000000E+00 0. -1.
         11    1    3    3    0    0 -0.73705882803E+01 -0.12218201701E+02 -0.28628937086E+02  0.31987904954E+02  0.51100000000E-03 0. -1.
        -11    1    3    3    0    0 -0.56833702100E+01 -0.45534995363E+01 -0.88372485605E+01  0.11451288895E+02  0.51100000000E-03 0.  1.
         12    1    3    3    0    0  0.11480422457E+02 -0.81624490405E+00  0.10916084607E+02  0.15862763274E+02  0.00000000000E+00 0. -1.
</event>
<event>
 7    1  0.6672802E-013  0.5930195E+02  0.7816164E-02  0.1266605E+00
        -11   -1    0    0    0    0  0.00000000000E+00  0.00000000000E+00  0.45593999997E+02  0.45594000000E+02  0.51100000000E-03 0.  1.
         11   -1    0    0    0    0 -0.00000000000E+00 -0.00000000000E+00 -0.45593999997E+02  0.45594000000E+02  0.51100000000E-03 0. -1.
    9900012    2    1    2    0    0 -0.16854393131E+02 -0.16628446421E+02  0.21357540798E+02  0.59301947452E+02  0.50000006245E+02 0.  0.
         12    1    1    2    0    0  0.16854393131E+02  0.16628446421E+02 -0.21357540798E+02  0.31886052548E+02  0.00000000000E+00 0. -1.
         11    1    3    3    0    0 -0.49320419359E+01 -0.99341768683E+01 -0.25841632789E+01  0.11388187205E+02  0.51100000000E-03 0. -1.
        -11    1    3    3    0    0 -0.11858082661E+02 -0.21955447551E+02  0.89192120985E+01  0.26499210296E+02  0.51100000000E-03 0.  1.
        -12    1    3    3    0    0 -0.64268533725E-01  0.15261177999E+02  0.15022491978E+02  0.21414549951E+02  0.00000000000E+00 0.  1.
</event>
<event>
 7    1  0.6672802E-013  0.5930195E+02  0.7816164E-02  0.1266605E+00
        -11   -1    0    0    0    0  0.00000000000E+00  0.00000000000E+00  0.45593999997E+02  0.45594000000E+02  0.51100000000E-03 0.  1.
         11   -1    0    0    0    0 -0.00000000000E+00 -0.00000000000E+00 -0.45593999997E+02  0.45594000000E+02  0.51100000000E-03 0. -1.
    9900012    2    1    2    0    0 -0.27845352083E+02 -0.13526992762E+02  0.76404946179E+01  0.59301947817E+02  0.50000006911E+02 0.  0.
         12    1    1    2    0    0  0.27845352083E+02  0.13526992762E+02 -0.76404946179E+01  0.31886052183E+02  0.00000000000E+00 0. -1.
         11    1    3    3    0    0 -0.33146184379E+02 -0.15462103157E+02  0.10003372291E+02  0.37918513030E+02  0.51100000000E-03 0. -1.
        -11    1    3    3    0    0 -0.17414201045E+01 -0.50327806396E+01  0.62816539984E+01  0.82353264758E+01  0.51100000000E-03 0.  1.
         12    1    3    3    0    0  0.70422524002E+01  0.69678910348E+01 -0.86445316719E+01  0.13148108311E+02  0.00000000000E+00 0. -1.
</event>
<event>
 7    1  0.6672802E-013  0.5930181E+02  0.7816164E-02  0.1266605E+00
        -11   -1    0    0    0    0  0.00000000000E+00  0.00000000000E+00  0.45593999997E+02  0.45594000000E+02  0.51100000000E-03 0. -1.
         11   -1    0    0    0    0 -0.00000000000E+00 -0.00000000000E+00 -0.45593999997E+02  0.45594000000E+02  0.51100000000E-03 0.  1.
    9900012    2    1    2    0    0 -0.94149970395E+01 -0.29498117891E+01 -0.30321368255E+02  0.59301812838E+02  0.49999760741E+02 0.  0.
         12    1    1    2    0    0  0.94149970395E+01  0.29498117891E+01  0.30321368255E+02  0.31886187162E+02  0.00000000000E+00 0. -1.
         11    1    3    3    0    0 -0.19521815647E+01  0.34269764513E+01  0.25886134835E+01  0.47176371720E+01  0.51100000000E-03 0. -1.
        -11    1    3    3    0    0 -0.30436450258E+01  0.42566030749E+01  0.93873995158E+01  0.10747358499E+02  0.51100000000E-03 0.  1.
        -12    1    3    3    0    0 -0.44191704491E+01 -0.10633391315E+02 -0.42297381255E+02  0.43836817167E+02  0.00000000000E+00 0.  1.
</event>
<event>
 7    1  0.6672802E-013  0.5930190E+02  0.7816164E-02  0.1266605E+00
        -11   -1    0    0    0    0  0.00000000000E+00  0.00000000000E+00  0.45593999997E+02  0.45594000000E+02  0.51100000000E-03 0.  1.
         11   -1    0    0    0    0 -0.00000000000E+00 -0.00000000000E+00 -0.45593999997E+02  0.45594000000E+02  0.51100000000E-03 0. -1.
    9900012    2    1    2    0    0 -0.18309124825E+02 -0.21432642404E+02  0.14904390820E+02  0.59301904629E+02  0.49999928147E+02 0.  0.
         12    1    1    2    0    0  0.18309124825E+02  0.21432642404E+02 -0.14904390820E+02  0.31886095371E+02  0.00000000000E+00 0. -1.
         11    1    3    3    0    0 -0.18754191212E+02 -0.50378686904E+01  0.13293163911E+01  0.19464503366E+02  0.51100000000E-03 0. -1.
        -11    1    3    3    0    0 -0.15744268137E+02 -0.12408047980E+02  0.34782980167E+01  0.20345520175E+02  0.51100000000E-03 0.  1.
        -12    1    3    3    0    0  0.16189334524E+02 -0.39867257338E+01  0.10096776413E+02  0.19491881088E+02  0.00000000000E+00 0.  1.
</event>
<event>
 7    1  0.6672802E-013  0.5930195E+02  0.7816164E-02  0.1266605E+00
        -11   -1    0    0    0    0  0.00000000000E+00  0.00000000000E+00  0.45593999997E+02  0.45594000000E+02  0.51100000000E-03 0. -1.
         11   -1    0    0    0    0 -0.00000000000E+00 -0.00000000000E+00 -0.45593999997E+02  0.45594000000E+02  0.51100000000E-03 0.  1.
    9900012    2    1    2    0    0 -0.20548586598E+02  0.21824237938E+02 -0.10870992630E+02  0.59301948920E+02  0.50000008922E+02 0.  0.
         12    1    1    2    0    0  0.20548586598E+02 -0.21824237938E+02  0.10870992630E+02  0.31886051080E+02  0.00000000000E+00 0. -1.
         11    1    3    3    0    0 -0.75831554939E+01  0.24190566810E+01 -0.52404520935E+01  0.95298699296E+01  0.51100000000E-03 0. -1.
        -11    1    3    3    0    0 -0.34429544778E+01  0.20920008793E+02 -0.22139316860E+02  0.30653711924E+02  0.51100000000E-03 0.  1.
         12    1    3    3    0    0 -0.95224766266E+01 -0.15148275367E+01  0.16508776323E+02  0.19118367066E+02  0.00000000000E+00 0. -1.
</event>
<event>
 7    1  0.6672802E-013  0.5930190E+02  0.7816164E-02  0.1266605E+00
        -11   -1    0    0    0    0  0.00000000000E+00  0.00000000000E+00  0.45593999997E+02  0.45594000000E+02  0.51100000000E-03 0. -1.
         11   -1    0    0    0    0 -0.00000000000E+00 -0.00000000000E+00 -0.45593999997E+02  0.45594000000E+02  0.51100000000E-03 0.  1.
    9900012    2    1    2    0    0  0.80621094305E+00  0.31525788025E+02 -0.47114822316E+01  0.59301900341E+02  0.49999920325E+02 0.  0.
         12    1    1    2    0    0 -0.80621094305E+00 -0.31525788025E+02  0.47114822316E+01  0.31886099659E+02  0.00000000000E+00 0. -1.
         11    1    3    3    0    0  0.29966720577E+01  0.96780771823E+01 -0.54564434449E+01  0.11507301886E+02  0.51100000000E-03 0. -1.
        -11    1    3    3    0    0  0.86709004197E+01  0.30985336817E+02 -0.48473862770E+01  0.32538788634E+02  0.51100000000E-03 0.  1.
         12    1    3    3    0    0 -0.10861361534E+02 -0.91376259749E+01  0.55923474903E+01  0.15255809821E+02  0.00000000000E+00 0. -1.
</event>
<event>
 7    1  0.6672802E-013  0.5930193E+02  0.7816164E-02  0.1266605E+00
        -11   -1    0    0    0    0  0.00000000000E+00  0.00000000000E+00  0.45593999997E+02  0.45594000000E+02  0.51100000000E-03 0.  1.
         11   -1    0    0    0    0 -0.00000000000E+00 -0.00000000000E+00 -0.45593999997E+02  0.45594000000E+02  0.51100000000E-03 0. -1.
    9900012    2    1    2    0    0  0.23673050173E+02 -0.26309879626E+01  0.21198734305E+02  0.59301925637E+02  0.49999966459E+02 0.  0.
         12    1    1    2    0    0 -0.23673050173E+02  0.26309879626E+01 -0.21198734305E+02  0.31886074363E+02  0.00000000000E+00 0. -1.
         11    1    3    3    0    0  0.10133828576E+02 -0.39104557995E+01 -0.82541596914E+01  0.13642481396E+02  0.51100000000E-03 0. -1.
        -11    1    3    3    0    0  0.91009370864E+00  0.11517747099E+02 -0.51549322926E+00  0.11565141691E+02  0.51100000000E-03 0.  1.
        -12    1    3    3    0    0  0.12629127888E+02 -0.10238279262E+02  0.29968387226E+02  0.34094302550E+02  0.00000000000E+00 0.  1.
</event>
<event>
 7    1  0.6672802E-013  0.5930194E+02  0.7816164E-02  0.1266605E+00
        -11   -1    0    0    0    0  0.00000000000E+00  0.00000000000E+00  0.45593999997E+02  0.45594000000E+02  0.51100000000E-03 0.  1.
         11   -1    0    0    0    0 -0.00000000000E+00 -0.00000000000E+00 -0.45593999997E+02  0.45594000000E+02  0.51100000000E-03 0. -1.
    9900012    2    1    2    0    0  0.10550154458E+02 -0.12064960213E+02  0.27565406356E+02  0.59301942677E+02  0.49999997536E+02 0.  0.
         12    1    1    2    0    0 -0.10550154458E+02  0.12064960213E+02 -0.27565406356E+02  0.31886057323E+02  0.00000000000E+00 0. -1.
         11    1    3    3    0    0 -0.16975779852E+01  0.61860588594E+01 -0.27755458017E+01  0.69894742282E+01  0.51100000000E-03 0. -1.
        -11    1    3    3    0    0 -0.11360814217E+02 -0.14784169629E+02  0.11471446725E+02  0.21891410680E+02  0.51100000000E-03 0.  1.
        -12    1    3    3    0    0  0.23608546661E+02 -0.34668494438E+01  0.18869505433E+02  0.30421057769E+02  0.00000000000E+00 0.  1.
</event>
<event>
 7    1  0.6672802E-013  0.5930196E+02  0.7816164E-02  0.1266605E+00
        -11   -1    0    0    0    0  0.00000000000E+00  0.00000000000E+00  0.45593999997E+02  0.45594000000E+02  0.51100000000E-03 0.  1.
         11   -1    0    0    0    0 -0.00000000000E+00 -0.00000000000E+00 -0.45593999997E+02  0.45594000000E+02  0.51100000000E-03 0. -1.
    9900012    2    1    2    0    0  0.82346124504E+01 -0.26331077106E+02  0.15987035663E+02  0.59301956453E+02  0.50000022662E+02 0.  0.
         12    1    1    2    0    0 -0.82346124504E+01  0.26331077106E+02 -0.15987035663E+02  0.31886043547E+02  0.00000000000E+00 0. -1.
         11    1    3    3    0    0  0.10371383225E+02  0.11541016575E+02  0.26713063835E+01  0.15744730281E+02  0.51100000000E-03 0. -1.
        -11    1    3    3    0    0 -0.37164673811E+01 -0.83869576833E+01 -0.32111362281E+01  0.97192893317E+01  0.51100000000E-03 0.  1.
        -12    1    3    3    0    0  0.15796966068E+01 -0.29485135997E+02  0.16526865508E+02  0.33837936841E+02  0.00000000000E+00 0.  1.
</event>
<event>
 7    1  0.6672802E-013  0.5930193E+02  0.7816164E-02  0.1266605E+00
        -11   -1    0    0    0    0  0.00000000000E+00  0.00000000000E+00  0.45593999997E+02  0.45594000000E+02  0.51100000000E-03 0.  1.
         11   -1    0    0    0    0 -0.00000000000E+00 -0.00000000000E+00 -0.45593999997E+02  0.45594000000E+02  0.51100000000E-03 0. -1.
    9900012    2    1    2    0    0 -0.19292658524E+02  0.84575605268E+01  0.23937089220E+02  0.59301933399E+02  0.49999980615E+02 0.  0.
         12    1    1    2    0    0  0.19292658524E+02 -0.84575605268E+01 -0.23937089220E+02  0.31886066601E+02  0.00000000000E+00 0. -1.
         11    1    3    3    0    0 -0.53108276730E+01 -0.15111084039E+01 -0.87771487675E+01  0.10369507217E+02  0.51100000000E-03 0. -1.
        -11    1    3    3    0    0 -0.94326224586E+01 -0.11199902133E+02  0.11487140529E+02  0.18610926146E+02  0.51100000000E-03 0.  1.
         12    1    3    3    0    0 -0.45492083923E+01  0.21168571064E+02  0.21227097458E+02  0.30321500035E+02  0.00000000000E+00 0. -1.
</event>
<event>
 7    1  0.6672802E-013  0.5930193E+02  0.7816164E-02  0.1266605E+00
        -11   -1    0    0    0    0  0.00000000000E+00  0.00000000000E+00  0.45593999997E+02  0.45594000000E+02  0.51100000000E-03 0. -1.
         11   -1    0    0    0    0 -0.00000000000E+00 -0.00000000000E+00 -0.45593999997E+02  0.45594000000E+02  0.51100000000E-03 0.  1.
    9900012    2    1    2    0    0  0.26644387274E+02 -0.16858983731E+02 -0.47510968172E+01  0.59301927388E+02  0.49999969654E+02 0.  0.
         12    1    1    2    0    0 -0.26644387274E+02  0.16858983731E+02  0.47510968172E+01  0.31886072612E+02  0.00000000000E+00 0. -1.
         11    1    3    3    0    0  0.19982857558E+00 -0.55893707429E+01 -0.14964883512E+02  0.15975879805E+02  0.51100000000E-03 0. -1.
        -11    1    3    3    0    0  0.11526363513E+01 -0.69499613979E+01 -0.88857298925E+01  0.11339608899E+02  0.51100000000E-03 0.  1.
         12    1    3    3    0    0  0.25291922347E+02 -0.43196515899E+01  0.19099516587E+02  0.31986438685E+02  0.00000000000E+00 0. -1.
</event>
<event>
 7    1  0.6672802E-013  0.5930193E+02  0.7816164E-02  0.1266605E+00
        -11   -1    0    0    0    0  0.00000000000E+00  0.00000000000E+00  0.45593999997E+02  0.45594000000E+02  0.51100000000E-03 0. -1.
         11   -1    0    0    0    0 -0.00000000000E+00 -0.00000000000E+00 -0.45593999997E+02  0.45594000000E+02  0.51100000000E-03 0.  1.
    9900012    2    1    2    0    0  0.96666211966E+00 -0.31425069700E+02 -0.53152669170E+01  0.59301929315E+02  0.49999973167E+02 0.  0.
         12    1    1    2    0    0 -0.96666211966E+00  0.31425069700E+02  0.53152669170E+01  0.31886070685E+02  0.00000000000E+00 0. -1.
         11    1    3    3    0    0 -0.21556771003E+01 -0.77432230875E+01  0.72714975711E+01  0.10838778747E+02  0.51100000000E-03 0. -1.
        -11    1    3    3    0    0 -0.13523115599E+02 -0.23820346236E+02 -0.15636294878E+02  0.31540089855E+02  0.51100000000E-03 0.  1.
         12    1    3    3    0    0  0.16645454819E+02  0.13849962302E+00  0.30495303899E+01  0.16923060712E+02  0.00000000000E+00 0. -1.
</event>
<event>
 7    1  0.8105392E-013  0.5930203E+02  0.7816164E-02  0.1266604E+00
        -11   -1    0    0    0    0  0.00000000000E+00  0.00000000000E+00  0.45593999997E+02  0.45594000000E+02  0.51100000000E-03 0. -1.
         11   -1    0    0    0    0 -0.00000000000E+00 -0.00000000000E+00 -0.45593999997E+02  0.45594000000E+02  0.51100000000E-03 0.  1.
    9900012    2    1    2    0    0  0.28895588001E+02 -0.13253099381E+02 -0.24729290736E+01  0.59302030870E+02  0.50000158380E+02 0.  0.
         12    1    1    2    0    0 -0.28895588001E+02  0.13253099381E+02  0.24729290736E+01  0.31885969130E+02  0.00000000000E+00 0. -1.
         11    1    3    3    0    0 -0.27325885577E+01  0.83706753768E+01 -0.21820089583E+01  0.90717368703E+01  0.51100000000E-03 0. -1.
        -11    1    3    3    0    0  0.22732391457E+02 -0.20280710663E+02  0.13854223962E+02  0.33466526085E+02  0.51100000000E-03 0.  1.
         12    1    3    3    0    0  0.88957851014E+01 -0.13430640950E+01 -0.14145144077E+02  0.16763767915E+02  0.00000000000E+00 0. -1.
</event>
<event>
 7    1  0.6672802E-013  0.5930194E+02  0.7816164E-02  0.1266605E+00
        -11   -1    0    0    0    0  0.00000000000E+00  0.00000000000E+00  0.45593999997E+02  0.45594000000E+02  0.51100000000E-03 0.  1.
         11   -1    0    0    0    0 -0.00000000000E+00 -0.00000000000E+00 -0.45593999997E+02  0.45594000000E+02  0.51100000000E-03 0. -1.
    9900012    2    1    2    0    0  0.60159813123E+01 -0.10531857841E+02  0.29489129331E+02  0.59301940202E+02  0.49999993023E+02 0.  0.
         12    1    1    2    0    0 -0.60159813123E+01  0.10531857841E+02 -0.29489129331E+02  0.31886059798E+02  0.00000000000E+00 0. -1.
         11    1    3    3    0    0  0.28200299421E+01 -0.10328316591E+02 -0.85381152161E+01  0.13694017094E+02  0.51100000000E-03 0. -1.
        -11    1    3    3    0    0  0.69645672955E+01 -0.11172059673E+02  0.24300444978E+02  0.27637506063E+02  0.51100000000E-03 0.  1.
        -12    1    3    3    0    0 -0.37686159253E+01  0.10968518423E+02  0.13726799569E+02  0.17970417045E+02  0.00000000000E+00 0.  1.
</event>
<event>
 7    1  0.6672802E-013  0.5930207E+02  0.7816164E-02  0.1266604E+00
        -11   -1    0    0    0    0  0.00000000000E+00  0.00000000000E+00  0.45593999997E+02  0.45594000000E+02  0.51100000000E-03 0. -1.
         11   -1    0    0    0    0 -0.00000000000E+00 -0.00000000000E+00 -0.45593999997E+02  0.45594000000E+02  0.51100000000E-03 0.  1.
    9900012    2    1    2    0    0  0.26169534791E+02  0.10291351851E+02 -0.15031844170E+02  0.59302065589E+02  0.50000221699E+02 0.  0.
         12    1    1    2    0    0 -0.26169534791E+02 -0.10291351851E+02  0.15031844170E+02  0.31885934411E+02  0.00000000000E+00 0. -1.
         11    1    3    3    0    0 -0.63222802249E+01  0.18118314452E+01 -0.27479967717E+01  0.71277939748E+01  0.51100000000E-03 0. -1.
        -11    1    3    3    0    0 -0.45301234682E+01  0.75978551601E+01  0.61832611672E+01  0.10792689220E+02  0.51100000000E-03 0.  1.
         12    1    3    3    0    0  0.37021938484E+02  0.88166524569E+00 -0.18467108565E+02  0.41381582395E+02  0.00000000000E+00 0. -1.
</event>
<event>
 7    1  0.6672802E-013  0.5930195E+02  0.7816164E-02  0.1266605E+00
        -11   -1    0    0    0    0  0.00000000000E+00  0.00000000000E+00  0.45593999997E+02  0.45594000000E+02  0.51100000000E-03 0.  1.
         11   -1    0    0    0    0 -0.00000000000E+00 -0.00000000000E+00 -0.45593999997E+02  0.45594000000E+02  0.51100000000E-03 0. -1.
    9900012    2    1    2    0    0 -0.84745566508E+01 -0.67745040394E+01  0.29983461106E+02  0.59301953596E+02  0.50000017449E+02 0.  0.
         12    1    1    2    0    0  0.84745566508E+01  0.67745040394E+01 -0.29983461106E+02  0.31886046404E+02  0.00000000000E+00 0. -1.
         11    1    3    3    0    0  0.87663936211E+00  0.88191998216E+01 -0.48865327199E+01  0.10120522929E+02  0.51100000000E-03 0. -1.
        -11    1    3    3    0    0 -0.16166558627E+02 -0.15205939972E+02  0.11827257130E+02  0.25148801955E+02  0.51100000000E-03 0.  1.
        -12    1    3    3    0    0  0.68153626143E+01 -0.38776388936E+00  0.23042736696E+02  0.24032628712E+02  0.00000000000E+00 0.  1.
</event>
<event>
 7    1  0.6672802E-013  0.5930194E+02  0.7816164E-02  0.1266605E+00
        -11   -1    0    0    0    0  0.00000000000E+00  0.00000000000E+00  0.45593999997E+02  0.45594000000E+02  0.51100000000E-03 0.  1.
         11   -1    0    0    0    0 -0.00000000000E+00 -0.00000000000E+00 -0.45593999997E+02  0.45594000000E+02  0.51100000000E-03 0. -1.
    9900012    2    1    2    0    0 -0.29462229133E+02  0.87168592277E+01 -0.85272819114E+01  0.59301935378E+02  0.49999984224E+02 0.  0.
         12    1    1    2    0    0  0.29462229133E+02 -0.87168592277E+01  0.85272819114E+01  0.31886064622E+02  0.00000000000E+00 0. -1.
         11    1    3    3    0    0 -0.30924858850E+02 -0.76173785510E+01 -0.26071763227E+01  0.31955730621E+02  0.51100000000E-03 0. -1.
        -11    1    3    3    0    0 -0.61539832988E+01 -0.12380083602E+01  0.20478874216E+01  0.66028795456E+01  0.51100000000E-03 0.  1.
         12    1    3    3    0    0  0.76166130155E+01  0.17572246139E+02 -0.79679930103E+01  0.20743325211E+02  0.00000000000E+00 0. -1.
</event>
<event>
 7    1  0.6672802E-013  0.5930194E+02  0.7816164E-02  0.1266605E+00
        -11   -1    0    0    0    0  0.00000000000E+00  0.00000000000E+00  0.45593999997E+02  0.45594000000E+02  0.51100000000E-03 0. -1.
         11   -1    0    0    0    0 -0.00000000000E+00 -0.00000000000E+00 -0.45593999997E+02  0.45594000000E+02  0.51100000000E-03 0.  1.
    9900012    2    1    2    0    0 -0.20803085491E+02  0.17572667787E+02  0.16587757908E+02  0.59301941424E+02  0.49999995251E+02 0.  0.
         12    1    1    2    0    0  0.20803085491E+02 -0.17572667787E+02 -0.16587757908E+02  0.31886058576E+02  0.00000000000E+00 0. -1.
         11    1    3    3    0    0  0.96068807865E+01  0.54683212948E+01  0.15451937007E+01  0.11161645043E+02  0.51100000000E-03 0. -1.
        -11    1    3    3    0    0 -0.84213513458E+01 -0.72294595099E+01 -0.54864849266E+01  0.12380862668E+02  0.51100000000E-03 0.  1.
         12    1    3    3    0    0 -0.21988614932E+02  0.19333806002E+02  0.20529049134E+02  0.35759433713E+02  0.00000000000E+00 0. -1.
</event>
<event>
 7    1  0.6672802E-013  0.5930194E+02  0.7816164E-02  0.1266605E+00
        -11   -1    0    0    0    0  0.00000000000E+00  0.00000000000E+00  0.45593999997E+02  0.45594000000E+02  0.51100000000E-03 0. -1.
         11   -1    0    0    0    0 -0.00000000000E+00 -0.00000000000E+00 -0.45593999997E+02  0.45594000000E+02  0.51100000000E-03 0.  1.
    9900012    2    1    2    0    0 -0.17197652752E+01  0.12732677065E+02 -0.29182906984E+02  0.59301941638E+02  0.49999995641E+02 0.  0.
         12    1    1    2    0    0  0.17197652752E+01 -0.12732677065E+02  0.29182906984E+02  0.31886058362E+02  0.00000000000E+00 0. -1.
         11    1    3    3    0    0  0.11795675742E+01 -0.17739240404E+02 -0.46522124580E+01  0.18377026713E+02  0.51100000000E-03 0. -1.
        -11    1    3    3    0    0 -0.54881523022E+00 -0.89277089288E-01 -0.39871746242E+01  0.40257583509E+01  0.51100000000E-03 0.  1.
        -12    1    3    3    0    0 -0.23505176191E+01  0.30561194558E+02 -0.20543519902E+02  0.36899156574E+02  0.00000000000E+00 0.  1.
</event>
<event>
 7    1  0.6672802E-013  0.5930191E+02  0.7816164E-02  0.1266605E+00
        -11   -1    0    0    0    0  0.00000000000E+00  0.00000000000E+00  0.45593999997E+02  0.45594000000E+02  0.51100000000E-03 0. -1.
         11   -1    0    0    0    0 -0.00000000000E+00 -0.00000000000E+00 -0.45593999997E+02  0.45594000000E+02  0.51100000000E-03 0.  1.
    9900012    2    1    2    0    0  0.31668020505E+02  0.16543268045E+01 -0.33350171163E+01  0.59301911199E+02  0.49999940128E+02 0.  0.
         12    1    1    2    0    0 -0.31668020505E+02 -0.16543268045E+01  0.33350171163E+01  0.31886088801E+02  0.00000000000E+00 0. -1.
         11    1    3    3    0    0  0.17175090561E+02 -0.78424270414E+01 -0.19195503216E+02  0.26924983597E+02  0.51100000000E-03 0. -1.
        -11    1    3    3    0    0  0.13530968158E+02 -0.44017932137E+01  0.69129295406E+01  0.15819338731E+02  0.51100000000E-03 0.  1.
         12    1    3    3    0    0  0.96196178507E+00  0.13898547060E+02  0.89475565594E+01  0.16557588871E+02  0.00000000000E+00 0. -1.
</event>
<event>
 7    1  0.6672802E-013  0.5930194E+02  0.7816164E-02  0.1266605E+00
        -11   -1    0    0    0    0  0.00000000000E+00  0.00000000000E+00  0.45593999997E+02  0.45594000000E+02  0.51100000000E-03 0.  1.
         11   -1    0    0    0    0 -0.00000000000E+00 -0.00000000000E+00 -0.45593999997E+02  0.45594000000E+02  0.51100000000E-03 0. -1.
    9900012    2    1    2    0    0 -0.13858746628E+02  0.90200862512E+01  0.27263420172E+02  0.59301938883E+02  0.49999990617E+02 0.  0.
         12    1    1    2    0    0  0.13858746628E+02 -0.90200862512E+01 -0.27263420172E+02  0.31886061117E+02  0.00000000000E+00 0. -1.
         11    1    3    3    0    0  0.71533581064E+01 -0.66902551759E+01  0.86723025896E+01  0.13082005924E+02  0.51100000000E-03 0. -1.
        -11    1    3    3    0    0 -0.30476815185E+01  0.16199116660E+02  0.22437982380E+02  0.27841745577E+02  0.51100000000E-03 0.  1.
         12    1    3    3    0    0 -0.17964423216E+02 -0.48877523259E+00 -0.38468647980E+01  0.18378187383E+02  0.00000000000E+00 0. -1.
</event>
<event>
 7    1  0.6672802E-013  0.5930197E+02  0.7816164E-02  0.1266605E+00
        -11   -1    0    0    0    0  0.00000000000E+00  0.00000000000E+00  0.45593999997E+02  0.45594000000E+02  0.51100000000E-03 0. -1.
         11   -1    0    0    0    0 -0.00000000000E+00 -0.00000000000E+00 -0.45593999997E+02  0.45594000000E+02  0.51100000000E-03 0.  1.
    9900012    2    1    2    0    0  0.17588973860E+02 -0.22166174280E+02 -0.14697207728E+02  0.59301965461E+02  0.50000039088E+02 0.  0.
         12    1    1    2    0    0 -0.17588973860E+02  0.22166174280E+02  0.14697207728E+02  0.31886034539E+02  0.00000000000E+00 0. -1.
         11    1    3    3    0    0  0.92026195824E+01  0.19256037699E+01  0.11211559888E+02  0.14631993454E+02  0.51100000000E-03 0. -1.
        -11    1    3    3    0    0 -0.59745894885E+01  0.11216966136E+01 -0.96604194299E+01  0.11413922493E+02  0.51100000000E-03 0.  1.
        -12    1    3    3    0    0  0.14360943766E+02 -0.25213474664E+02 -0.16248348186E+02  0.33256049513E+02  0.00000000000E+00 0.  1.
</event>
<event>
 7    1  0.6672802E-013  0.5930196E+02  0.7816164E-02  0.1266605E+00
        -11   -1    0    0    0    0  0.00000000000E+00  0.00000000000E+00  0.45593999997E+02  0.45594000000E+02  0.51100000000E-03 0.  1.
         11   -1    0    0    0    0 -0.00000000000E+00 -0.00000000000E+00 -0.45593999997E+02  0.45594000000E+02  0.51100000000E-03 0. -1.
    9900012    2    1    2    0    0  0.24421481689E+02 -0.98636152840E+01  0.17972752645E+02  0.59301960547E+02  0.50000030128E+02 0.  0.
         12    1    1    2    0    0 -0.24421481689E+02  0.98636152840E+01 -0.17972752645E+02  0.31886039453E+02  0.00000000000E+00 0. -1.
         11    1    3    3    0    0  0.29076049800E+01  0.28595237330E+01 -0.12212419949E+02  0.12875334713E+02  0.51100000000E-03 0. -1.
        -11    1    3    3    0    0  0.56413828733E+01 -0.17559623410E+02  0.13191446286E+02  0.22675533740E+02  0.51100000000E-03 0.  1.
        -12    1    3    3    0    0  0.15872493835E+02  0.48364843933E+01  0.16993726308E+02  0.23751092094E+02  0.00000000000E+00 0.  1.
</event>
<event>
 7    1  0.6672802E-013  0.5930194E+02  0.7816164E-02  0.1266605E+00
        -11   -1    0    0    0    0  0.00000000000E+00  0.00000000000E+00  0.45593999997E+02  0.45594000000E+02  0.51100000000E-03 0.  1.
         11   -1    0    0    0    0 -0.00000000000E+00 -0.00000000000E+00 -0.45593999997E+02  0.45594000000E+02  0.51100000000E-03 0. -1.
    9900012    2    1    2    0    0 -0.22044026732E+02 -0.22975838230E+02 -0.17006748994E+01  0.59301944238E+02  0.50000000384E+02 0.  0.
         12    1    1    2    0    0  0.22044026732E+02  0.22975838230E+02  0.17006748994E+01  0.31886055762E+02  0.00000000000E+00 0. -1.
         11    1    3    3    0    0  0.10230315163E+02  0.18894623572E+01  0.32404767331E+01  0.10896334524E+02  0.51100000000E-03 0. -1.
        -11    1    3    3    0    0 -0.18883186782E+01 -0.13192138294E+02 -0.82710321797E+01  0.15684649623E+02  0.51100000000E-03 0.  1.
        -12    1    3    3    0    0 -0.30386023217E+02 -0.11673162293E+02  0.33298805472E+01  0.32720960092E+02  0.00000000000E+00 0.  1.
</event>
<event>
 7    1  0.6672802E-013  0.5930197E+02  0.7816164E-02  0.1266605E+00
        -11   -1    0    0    0    0  0.00000000000E+00  0.00000000000E+00  0.45593999997E+02  0.45594000000E+02  0.51100000000E-03 0.  1.
         11   -1    0    0    0    0 -0.00000000000E+00 -0.00000000000E+00 -0.45593999997E+02  0.45594000000E+02  0.51100000000E-03 0. -1.
    9900012    2    1    2    0    0 -0.19584017663E+02 -0.24953203416E+02  0.32439233769E+01  0.59301966264E+02  0.50000040553E+02 0.  0.
         12    1    1    2    0    0  0.19584017663E+02  0.24953203416E+02 -0.32439233769E+01  0.31886033736E+02  0.00000000000E+00 0. -1.
         11    1    3    3    0    0  0.64190243475E+01 -0.10746167997E+02 -0.14216300354E+02  0.18941678812E+02  0.51100000000E-03 0. -1.
        -11    1    3    3    0    0 -0.15906174401E+01 -0.33073612357E+01 -0.44684150738E+01  0.57823382569E+01  0.51100000000E-03 0.  1.
        -12    1    3    3    0    0 -0.24412424570E+02 -0.10899674184E+02  0.21928638805E+02  0.34577949195E+02  0.00000000000E+00 0.  1.
</event>
<event>
 7    1  0.6672802E-013  0.5930196E+02  0.7816164E-02  0.1266605E+00
        -11   -1    0    0    0    0  0.00000000000E+00  0.00000000000E+00  0.45593999997E+02  0.45594000000E+02  0.51100000000E-03 0.  1.
         11   -1    0    0    0    0 -0.00000000000E+00 -0.00000000000E+00 -0.45593999997E+02  0.45594000000E+02  0.51100000000E-03 0. -1.
    9900012    2    1    2    0    0  0.20992468316E+02 -0.33877283745E+01 -0.23760455131E+02  0.59301958264E+02  0.50000025964E+02 0.  0.
         12    1    1    2    0    0 -0.20992468316E+02  0.33877283745E+01  0.23760455131E+02  0.31886041736E+02  0.00000000000E+00 0. -1.
         11    1    3    3    0    0  0.14094180137E+02  0.11823775286E+02 -0.24763481402E+02  0.30849272068E+02  0.51100000000E-03 0. -1.
        -11    1    3    3    0    0  0.97644434945E+01 -0.17184697572E+01  0.82252883742E+01  0.12882269372E+02  0.51100000000E-03 0.  1.
        -12    1    3    3    0    0 -0.28661553160E+01 -0.13493033903E+02 -0.72222621035E+01  0.15570416825E+02  0.00000000000E+00 0.  1.
</event>
<event>
 7    1  0.6672802E-013  0.5930195E+02  0.7816164E-02  0.1266605E+00
        -11   -1    0    0    0    0  0.00000000000E+00  0.00000000000E+00  0.45593999997E+02  0.45594000000E+02  0.51100000000E-03 0. -1.
         11   -1    0    0    0    0 -0.00000000000E+00 -0.00000000000E+00 -0.45593999997E+02  0.45594000000E+02  0.51100000000E-03 0.  1.
    9900012    2    1    2    0    0  0.20636743638E+02 -0.24023618317E+02  0.37027959983E+01  0.59301950963E+02  0.50000012648E+02 0.  0.
         12    1    1    2    0    0 -0.20636743638E+02  0.24023618317E+02 -0.37027959983E+01  0.31886049037E+02  0.00000000000E+00 0. -1.
         11    1    3    3    0    0 -0.54310260287E+01  0.23598765076E+01  0.69329006044E+01  0.91175748918E+01  0.51100000000E-03 0. -1.
        -11    1    3    3    0    0  0.18982083004E+02  0.34282591106E+01  0.63304966270E+00  0.19299564447E+02  0.51100000000E-03 0.  1.
        -12    1    3    3    0    0  0.70856866626E+01 -0.29811753935E+02 -0.38631542688E+01  0.30884811624E+02  0.00000000000E+00 0.  1.
</event>
<event>
 7    1  0.6672802E-013  0.5930195E+02  0.7816164E-02  0.1266605E+00
        -11   -1    0    0    0    0  0.00000000000E+00  0.00000000000E+00  0.45593999997E+02  0.45594000000E+02  0.51100000000E-03 0. -1.
         11   -1    0    0    0    0 -0.00000000000E+00 -0.00000000000E+00 -0.45593999997E+02  0.45594000000E+02  0.51100000000E-03 0.  1.
    9900012    2    1    2    0    0  0.21415654725E+02  0.23484204591E+02 -0.25655235740E+01  0.59301952208E+02  0.50000014919E+02 0.  0.
         12    1    1    2    0    0 -0.21415654725E+02 -0.23484204591E+02  0.25655235740E+01  0.31886047792E+02  0.00000000000E+00 0. -1.
         11    1    3    3    0    0  0.17035871719E+02  0.12661386686E+02  0.12801896021E+02  0.24787500480E+02  0.51100000000E-03 0.  1.
        -11    1    3    3    0    0 -0.47868385803E+01  0.15177727706E+02  0.21794443094E+00  0.15916178623E+02  0.51100000000E-03 0. -1.
        -12    1    3    3    0    0  0.91666215867E+01 -0.43549098013E+01 -0.15585364026E+02  0.18598273106E+02  0.00000000000E+00 0.  1.
</event>
<event>
 7    1  0.6672802E-013  0.5930194E+02  0.7816164E-02  0.1266605E+00
        -11   -1    0    0    0    0  0.00000000000E+00  0.00000000000E+00  0.45593999997E+02  0.45594000000E+02  0.51100000000E-03 0.  1.
         11   -1    0    0    0    0 -0.00000000000E+00 -0.00000000000E+00 -0.45593999997E+02  0.45594000000E+02  0.51100000000E-03 0. -1.
    9900012    2    1    2    0    0  0.85739060418E+01 -0.14029376469E+02  0.27320061970E+02  0.59301936352E+02  0.49999986001E+02 0.  0.
         12    1    1    2    0    0 -0.85739060418E+01  0.14029376469E+02 -0.27320061970E+02  0.31886063648E+02  0.00000000000E+00 0. -1.
         11    1    3    3    0    0  0.12676726909E+00  0.10588242732E+02  0.43001880142E+01  0.11428848206E+02  0.51100000000E-03 0. -1.
        -11    1    3    3    0    0  0.12347855843E+01  0.62311261394E+01 -0.28591000611E+01  0.69660664528E+01  0.51100000000E-03 0.  1.
        -12    1    3    3    0    0  0.72123531884E+01 -0.30848745341E+02  0.25878974017E+02  0.40907021693E+02  0.00000000000E+00 0.  1.
</event>
<event>
 7    1  0.6672802E-013  0.5930194E+02  0.7816164E-02  0.1266605E+00
        -11   -1    0    0    0    0  0.00000000000E+00  0.00000000000E+00  0.45593999997E+02  0.45594000000E+02  0.51100000000E-03 0.  1.
         11   -1    0    0    0    0 -0.00000000000E+00 -0.00000000000E+00 -0.45593999997E+02  0.45594000000E+02  0.51100000000E-03 0. -1.
    9900012    2    1    2    0    0 -0.18917275700E+02 -0.90421232241E+01  0.24022852755E+02  0.59301940871E+02  0.49999994243E+02 0.  0.
         12    1    1    2    0    0  0.18917275700E+02  0.90421232241E+01 -0.24022852755E+02  0.31886059129E+02  0.00000000000E+00 0. -1.
         11    1    3    3    0    0  0.37557282573E+01  0.43260903244E+01  0.12847880250E+02  0.14067287564E+02  0.51100000000E-03 0. -1.
        -11    1    3    3    0    0  0.12280631337E+01  0.57343103257E+01 -0.73991469339E+01  0.94412832593E+01  0.51100000000E-03 0.  1.
        -12    1    3    3    0    0 -0.23901067091E+02 -0.19102523874E+02  0.18574119438E+02  0.35793370047E+02  0.00000000000E+00 0.  1.
</event>
<event>
 7    1  0.6672802E-013  0.5930195E+02  0.7816164E-02  0.1266605E+00
        -11   -1    0    0    0    0  0.00000000000E+00  0.00000000000E+00  0.45593999997E+02  0.45594000000E+02  0.51100000000E-03 0. -1.
         11   -1    0    0    0    0 -0.00000000000E+00 -0.00000000000E+00 -0.45593999997E+02  0.45594000000E+02  0.51100000000E-03 0.  1.
    9900012    2    1    2    0    0 -0.17630180784E+02  0.26270523771E+02 -0.39694421541E+01  0.59301950312E+02  0.50000011462E+02 0.  0.
         12    1    1    2    0    0  0.17630180784E+02 -0.26270523771E+02  0.39694421541E+01  0.31886049688E+02  0.00000000000E+00 0. -1.
         11    1    3    3    0    0 -0.19294095309E+02  0.22253603072E+02  0.53239803435E+01  0.29930414806E+02  0.51100000000E-03 0. -1.
        -11    1    3    3    0    0 -0.82633570064E+01  0.12376171490E+02 -0.47403595003E+01  0.15618056800E+02  0.51100000000E-03 0.  1.
        -12    1    3    3    0    0  0.99272715319E+01 -0.83592507913E+01 -0.45530629973E+01  0.13753478706E+02  0.00000000000E+00 0.  1.
</event>
<event>
 7    1  0.6672802E-013  0.5930195E+02  0.7816164E-02  0.1266605E+00
        -11   -1    0    0    0    0  0.00000000000E+00  0.00000000000E+00  0.45593999997E+02  0.45594000000E+02  0.51100000000E-03 0.  1.
         11   -1    0    0    0    0 -0.00000000000E+00 -0.00000000000E+00 -0.45593999997E+02  0.45594000000E+02  0.51100000000E-03 0. -1.
    9900012    2    1    2    0    0  0.11019634947E+02  0.29089189170E+02  0.70076437571E+01  0.59301947376E+02  0.50000006107E+02 0.  0.
         12    1    1    2    0    0 -0.11019634947E+02 -0.29089189170E+02 -0.70076437571E+01  0.31886052624E+02  0.00000000000E+00 0. -1.
         11    1    3    3    0    0  0.22841676463E+02  0.11299444354E+02  0.15394977485E+01  0.25530171953E+02  0.51100000000E-03 0. -1.
        -11    1    3    3    0    0  0.67727752852E+01  0.24428662774E+01  0.64150067514E+01  0.96431526274E+01  0.51100000000E-03 0.  1.
         12    1    3    3    0    0 -0.18594816802E+02  0.15346878538E+02 -0.94686074286E+00  0.24128622796E+02  0.00000000000E+00 0. -1.
</event>
<event>
 7    1  0.6672802E-013  0.5930194E+02  0.7816164E-02  0.1266605E+00
        -11   -1    0    0    0    0  0.00000000000E+00  0.00000000000E+00  0.45593999997E+02  0.45594000000E+02  0.51100000000E-03 0. -1.
         11   -1    0    0    0    0 -0.00000000000E+00 -0.00000000000E+00 -0.45593999997E+02  0.45594000000E+02  0.51100000000E-03 0.  1.
    9900012    2    1    2    0    0 -0.24098863069E+02 -0.35580331022E+01 -0.20574399790E+02  0.59301941487E+02  0.49999995366E+02 0.  0.
         12    1    1    2    0    0  0.24098863069E+02  0.35580331022E+01  0.20574399790E+02  0.31886058513E+02  0.00000000000E+00 0. -1.
         11    1    3    3    0    0 -0.29502488988E+00 -0.13762664849E+02 -0.12229845092E+02  0.18413774590E+02  0.51100000000E-03 0. -1.
        -11    1    3    3    0    0  0.60061795627E+01 -0.33760635348E+01 -0.36457621860E+01  0.77950997498E+01  0.51100000000E-03 0.  1.
         12    1    3    3    0    0 -0.29810017742E+02  0.13580695282E+02 -0.46987925125E+01  0.33093067147E+02  0.00000000000E+00 0. -1.
</event>
<event>
 7    1  0.6672802E-013  0.5930193E+02  0.7816164E-02  0.1266605E+00
        -11   -1    0    0    0    0  0.00000000000E+00  0.00000000000E+00  0.45593999997E+02  0.45594000000E+02  0.51100000000E-03 0. -1.
         11   -1    0    0    0    0 -0.00000000000E+00 -0.00000000000E+00 -0.45593999997E+02  0.45594000000E+02  0.51100000000E-03 0.  1.
    9900012    2    1    2    0    0  0.58542698591E+01 -0.11422016232E+02 -0.29188803341E+02  0.59301934535E+02  0.49999982687E+02 0.  0.
         12    1    1    2    0    0 -0.58542698591E+01  0.11422016232E+02  0.29188803341E+02  0.31886065465E+02  0.00000000000E+00 0. -1.
         11    1    3    3    0    0  0.99206103000E+01 -0.16364456099E+02 -0.24673165944E+02  0.31224654523E+02  0.51100000000E-03 0.  1.
        -11    1    3    3    0    0 -0.12702365970E+02 -0.35612822228E+01 -0.80477109665E+01  0.15453105978E+02  0.51100000000E-03 0. -1.
        -12    1    3    3    0    0  0.86360255292E+01  0.85037220902E+01  0.35320735691E+01  0.12624174033E+02  0.00000000000E+00 0.  1.
</event>
<event>
 7    1  0.6672802E-013  0.5930196E+02  0.7816164E-02  0.1266605E+00
        -11   -1    0    0    0    0  0.00000000000E+00  0.00000000000E+00  0.45593999997E+02  0.45594000000E+02  0.51100000000E-03 0.  1.
         11   -1    0    0    0    0 -0.00000000000E+00 -0.00000000000E+00 -0.45593999997E+02  0.45594000000E+02  0.51100000000E-03 0. -1.
    9900012    2    1    2    0    0 -0.17143875825E+02  0.25718994739E+02  0.78320169545E+01  0.59301958254E+02  0.50000025944E+02 0.  0.
         12    1    1    2    0    0  0.17143875825E+02 -0.25718994739E+02 -0.78320169545E+01  0.31886041746E+02  0.00000000000E+00 0. -1.
         11    1    3    3    0    0  0.85191737043E+01 -0.11024792476E+01 -0.11061692172E+02  0.14005456617E+02  0.51100000000E-03 0.  1.
        -11    1    3    3    0    0 -0.75017217435E+01  0.14239870001E+02 -0.19880599894E+00  0.16096249589E+02  0.51100000000E-03 0. -1.
        -12    1    3    3    0    0 -0.18161327786E+02  0.12581603986E+02  0.19092515125E+02  0.29200252047E+02  0.00000000000E+00 0.  1.
</event>
<event>
 7    1  0.6672802E-013  0.5930199E+02  0.7816164E-02  0.1266605E+00
        -11   -1    0    0    0    0  0.00000000000E+00  0.00000000000E+00  0.45593999997E+02  0.45594000000E+02  0.51100000000E-03 0.  1.
         11   -1    0    0    0    0 -0.00000000000E+00 -0.00000000000E+00 -0.45593999997E+02  0.45594000000E+02  0.51100000000E-03 0. -1.
    9900012    2    1    2    0    0 -0.17725539307E+02  0.13429383675E+02  0.22851132013E+02  0.59301994858E+02  0.50000092702E+02 0.  0.
         12    1    1    2    0    0  0.17725539307E+02 -0.13429383675E+02 -0.22851132013E+02  0.31886005142E+02  0.00000000000E+00 0. -1.
         11    1    3    3    0    0  0.86483437766E+00  0.48321146561E+01 -0.68740471836E+01  0.84468808144E+01  0.51100000000E-03 0. -1.
        -11    1    3    3    0    0  0.72571350857E+01 -0.29670673358E+01  0.19037493697E+02  0.20588726642E+02  0.51100000000E-03 0.  1.
        -12    1    3    3    0    0 -0.25847508771E+02  0.11564336355E+02  0.10687685500E+02  0.30266387401E+02  0.00000000000E+00 0.  1.
</event>
<event>
 7    1  0.6672802E-013  0.5930195E+02  0.7816164E-02  0.1266605E+00
        -11   -1    0    0    0    0  0.00000000000E+00  0.00000000000E+00  0.45593999997E+02  0.45594000000E+02  0.51100000000E-03 0.  1.
         11   -1    0    0    0    0 -0.00000000000E+00 -0.00000000000E+00 -0.45593999997E+02  0.45594000000E+02  0.51100000000E-03 0. -1.
    9900012    2    1    2    0    0  0.62442791000E+01 -0.33267744629E+01  0.31091186364E+02  0.59301947888E+02  0.50000007039E+02 0.  0.
         12    1    1    2    0    0 -0.62442791000E+01  0.33267744629E+01 -0.31091186364E+02  0.31886052112E+02  0.00000000000E+00 0. -1.
         11    1    3    3    0    0 -0.39389470047E+01  0.13207061593E+02 -0.20992806536E+01  0.13940902372E+02  0.51100000000E-03 0. -1.
        -11    1    3    3    0    0 -0.31294444785E+01 -0.15659502875E+01  0.22275592621E+02  0.22548783779E+02  0.51100000000E-03 0.  1.
        -12    1    3    3    0    0  0.13312670583E+02 -0.14967885768E+02  0.10914874397E+02  0.22812261736E+02  0.00000000000E+00 0.  1.
</event>
<event>
 7    1  0.6672802E-013  0.5930195E+02  0.7816164E-02  0.1266605E+00
        -11   -1    0    0    0    0  0.00000000000E+00  0.00000000000E+00  0.45593999997E+02  0.45594000000E+02  0.51100000000E-03 0. -1.
         11   -1    0    0    0    0 -0.00000000000E+00 -0.00000000000E+00 -0.45593999997E+02  0.45594000000E+02  0.51100000000E-03 0.  1.
    9900012    2    1    2    0    0 -0.18483658020E+02 -0.23017247123E+02 -0.12053244129E+02  0.59301953319E+02  0.50000016944E+02 0.  0.
         12    1    1    2    0    0  0.18483658020E+02  0.23017247123E+02  0.12053244129E+02  0.31886046681E+02  0.00000000000E+00 0. -1.
         11    1    3    3    0    0 -0.11644996590E+01 -0.10317193226E+02 -0.13628734290E+02  0.17133094703E+02  0.51100000000E-03 0. -1.
        -11    1    3    3    0    0 -0.66475639429E+01 -0.56775101252E+01 -0.17296126866E+02  0.19379892477E+02  0.51100000000E-03 0.  1.
         12    1    3    3    0    0 -0.10671594418E+02 -0.70225437725E+01  0.18871617026E+02  0.22788966138E+02  0.00000000000E+00 0. -1.
</event>
<event>
 7    1  0.6672802E-013  0.5930195E+02  0.7816164E-02  0.1266605E+00
        -11   -1    0    0    0    0  0.00000000000E+00  0.00000000000E+00  0.45593999997E+02  0.45594000000E+02  0.51100000000E-03 0.  1.
         11   -1    0    0    0    0 -0.00000000000E+00 -0.00000000000E+00 -0.45593999997E+02  0.45594000000E+02  0.51100000000E-03 0. -1.
    9900012    2    1    2    0    0 -0.37262012952E+01 -0.26289810784E+02 -0.17654501675E+02  0.59301950440E+02  0.50000011695E+02 0.  0.
         12    1    1    2    0    0  0.37262012952E+01  0.26289810784E+02  0.17654501675E+02  0.31886049560E+02  0.00000000000E+00 0. -1.
         11    1    3    3    0    0  0.91137951632E+01 -0.10656903233E+02 -0.85142993351E+01  0.16405003573E+02  0.51100000000E-03 0. -1.
        -11    1    3    3    0    0  0.53683249495E+01  0.47409638213E+01 -0.13446564447E+02  0.15235017112E+02  0.51100000000E-03 0.  1.
        -12    1    3    3    0    0 -0.18208321408E+02 -0.20373871372E+02  0.43063621077E+01  0.27661929755E+02  0.00000000000E+00 0.  1.
</event>
<event>
 7    1  0.6672802E-013  0.5930191E+02  0.7816164E-02  0.1266605E+00
        -11   -1    0    0    0    0  0.00000000000E+00  0.00000000000E+00  0.45593999997E+02  0.45594000000E+02  0.51100000000E-03 0.  1.
         11   -1    0    0    0    0 -0.00000000000E+00 -0.00000000000E+00 -0.45593999997E+02  0.45594000000E+02  0.51100000000E-03 0. -1.
    9900012    2    1    2    0    0 -0.26230366521E+02  0.17906072125E+02 -0.28395734361E+01  0.59301910179E+02  0.49999938268E+02 0.  0.
         12    1    1    2    0    0  0.26230366521E+02 -0.17906072125E+02  0.28395734361E+01  0.31886089821E+02  0.00000000000E+00 0. -1.
         11    1    3    3    0    0 -0.56675677417E+01 -0.81490328140E+01 -0.21613336053E+01  0.10158711686E+02  0.51100000000E-03 0. -1.
        -11    1    3    3    0    0 -0.23320882226E+02  0.15676802376E+02 -0.14515476442E+02  0.31627910730E+02  0.51100000000E-03 0.  1.
        -12    1    3    3    0    0  0.27580834468E+01  0.10378302564E+02  0.13837236611E+02  0.17515287763E+02  0.00000000000E+00 0.  1.
</event>
<event>
 7    1  0.6672802E-013  0.5930195E+02  0.7816164E-02  0.1266605E+00
        -11   -1    0    0    0    0  0.00000000000E+00  0.00000000000E+00  0.45593999997E+02  0.45594000000E+02  0.51100000000E-03 0. -1.
         11   -1    0    0    0    0 -0.00000000000E+00 -0.00000000000E+00 -0.45593999997E+02  0.45594000000E+02  0.51100000000E-03 0.  1.
    9900012    2    1    2    0    0  0.16407758757E+01 -0.10875651904E+02 -0.29929054929E+02  0.59301948524E+02  0.50000008199E+02 0.  0.
         12    1    1    2    0    0 -0.16407758757E+01  0.10875651904E+02  0.29929054929E+02  0.31886051476E+02  0.00000000000E+00 0. -1.
         11    1    3    3    0    0  0.62701403469E+01  0.18872290173E+01 -0.10107259772E+02  0.12042964489E+02  0.51100000000E-03 0. -1.
        -11    1    3    3    0    0  0.17335986828E+02 -0.48820407377E+01 -0.14979532251E+02  0.23425566114E+02  0.51100000000E-03 0.  1.
         12    1    3    3    0    0 -0.21965351299E+02 -0.78808401836E+01 -0.48422629066E+01  0.23833417920E+02  0.00000000000E+00 0. -1.
</event>
<event>
 7    1  0.6672802E-013  0.5930192E+02  0.7816164E-02  0.1266605E+00
        -11   -1    0    0    0    0  0.00000000000E+00  0.00000000000E+00  0.45593999997E+02  0.45594000000E+02  0.51100000000E-03 0.  1.
         11   -1    0    0    0    0 -0.00000000000E+00 -0.00000000000E+00 -0.45593999997E+02  0.45594000000E+02  0.51100000000E-03 0. -1.
    9900012    2    1    2    0    0  0.27614693807E+02 -0.31250715820E+01  0.15632808348E+02  0.59301920227E+02  0.49999956594E+02 0.  0.
         12    1    1    2    0    0 -0.27614693807E+02  0.31250715820E+01 -0.15632808348E+02  0.31886079773E+02  0.00000000000E+00 0. -1.
         11    1    3    3    0    0  0.22555802250E+02  0.74655619290E+01  0.15427160187E+00  0.23759684973E+02  0.51100000000E-03 0. -1.
        -11    1    3    3    0    0  0.16551381000E+02 -0.10324298467E+02  0.53666571632E+01  0.20232161556E+02  0.51100000000E-03 0.  1.
         12    1    3    3    0    0 -0.11492489443E+02 -0.26633504441E+00  0.10111879583E+02  0.15310073699E+02  0.00000000000E+00 0. -1.
</event>
<event>
 7    1  0.6672802E-013  0.5930194E+02  0.7816164E-02  0.1266605E+00
        -11   -1    0    0    0    0  0.00000000000E+00  0.00000000000E+00  0.45593999997E+02  0.45594000000E+02  0.51100000000E-03 0. -1.
         11   -1    0    0    0    0 -0.00000000000E+00 -0.00000000000E+00 -0.45593999997E+02  0.45594000000E+02  0.51100000000E-03 0.  1.
    9900012    2    1    2    0    0 -0.26882204329E+02  0.59679434230E+01 -0.16076423527E+02  0.59301942675E+02  0.49999997534E+02 0.  0.
         12    1    1    2    0    0  0.26882204329E+02 -0.59679434230E+01  0.16076423527E+02  0.31886057325E+02  0.00000000000E+00 0. -1.
         11    1    3    3    0    0 -0.17912649939E+02 -0.13656687206E+02 -0.10035104059E+02  0.24659104749E+02  0.51100000000E-03 0. -1.
        -11    1    3    3    0    0  0.68847336303E+01  0.98799777929E+00 -0.73764767572E+01  0.10138446941E+02  0.51100000000E-03 0.  1.
         12    1    3    3    0    0 -0.15854288020E+02  0.18636632849E+02  0.13351572891E+01  0.24504390985E+02  0.00000000000E+00 0. -1.
</event>
<event>
 7    1  0.6672802E-013  0.5930193E+02  0.7816164E-02  0.1266605E+00
        -11   -1    0    0    0    0  0.00000000000E+00  0.00000000000E+00  0.45593999997E+02  0.45594000000E+02  0.51100000000E-03 0. -1.
         11   -1    0    0    0    0 -0.00000000000E+00 -0.00000000000E+00 -0.45593999997E+02  0.45594000000E+02  0.51100000000E-03 0.  1.
    9900012    2    1    2    0    0 -0.24429562321E+01 -0.24739827083E+02 -0.19967339195E+02  0.59301926021E+02  0.49999967161E+02 0.  0.
         12    1    1    2    0    0  0.24429562321E+01  0.24739827083E+02  0.19967339195E+02  0.31886073979E+02  0.00000000000E+00 0. -1.
         11    1    3    3    0    0 -0.20251109115E+02 -0.32071202580E+01 -0.57817755797E+01  0.21303097659E+02  0.51100000000E-03 0. -1.
        -11    1    3    3    0    0 -0.47935681726E+01 -0.19940595896E+01 -0.76967178304E+00  0.52485202092E+01  0.51100000000E-03 0.  1.
         12    1    3    3    0    0  0.22601721056E+02 -0.19538647235E+02 -0.13415891832E+02  0.32750308153E+02  0.00000000000E+00 0. -1.
</event>
<event>
 7    1  0.6672802E-013  0.5930194E+02  0.7816164E-02  0.1266605E+00
        -11   -1    0    0    0    0  0.00000000000E+00  0.00000000000E+00  0.45593999997E+02  0.45594000000E+02  0.51100000000E-03 0. -1.
         11   -1    0    0    0    0 -0.00000000000E+00 -0.00000000000E+00 -0.45593999997E+02  0.45594000000E+02  0.51100000000E-03 0.  1.
    9900012    2    1    2    0    0  0.18660913132E+02  0.14037196068E+02 -0.21712861209E+02  0.59301938872E+02  0.49999990597E+02 0.  0.
         12    1    1    2    0    0 -0.18660913132E+02 -0.14037196068E+02  0.21712861209E+02  0.31886061128E+02  0.00000000000E+00 0. -1.
         11    1    3    3    0    0 -0.13129387304E+02  0.97123743071E+01 -0.38569047408E+01  0.16780546478E+02  0.51100000000E-03 0. -1.
        -11    1    3    3    0    0  0.37320468189E+01 -0.38125904296E+00 -0.13162497474E+02  0.13686667671E+02  0.51100000000E-03 0.  1.
        -12    1    3    3    0    0  0.28058253616E+02  0.47060808037E+01 -0.46934589944E+01  0.28834724723E+02  0.00000000000E+00 0.  1.
</event>
<event>
 7    1  0.6672802E-013  0.5930195E+02  0.7816164E-02  0.1266605E+00
        -11   -1    0    0    0    0  0.00000000000E+00  0.00000000000E+00  0.45593999997E+02  0.45594000000E+02  0.51100000000E-03 0.  1.
         11   -1    0    0    0    0 -0.00000000000E+00 -0.00000000000E+00 -0.45593999997E+02  0.45594000000E+02  0.51100000000E-03 0. -1.
    9900012    2    1    2    0    0  0.31240724849E+02  0.29543174860E+01  0.56576746200E+01  0.59301950339E+02  0.50000011509E+02 0.  0.
         12    1    1    2    0    0 -0.31240724849E+02 -0.29543174860E+01 -0.56576746200E+01  0.31886049661E+02  0.00000000000E+00 0. -1.
         11    1    3    3    0    0  0.81375818992E+00 -0.11301207255E+01 -0.13363053212E+02  0.13435422087E+02  0.51100000000E-03 0. -1.
        -11    1    3    3    0    0  0.14698102338E+02  0.15769977981E+02  0.13771918472E+02  0.25581089823E+02  0.51100000000E-03 0.  1.
         12    1    3    3    0    0  0.15728864321E+02 -0.11685539770E+02  0.52488093597E+01  0.20285438428E+02  0.00000000000E+00 0. -1.
</event>
<event>
 7    1  0.8201060E-013  0.5930194E+02  0.7816164E-02  0.1266605E+00
        -11   -1    0    0    0    0  0.00000000000E+00  0.00000000000E+00  0.45593999997E+02  0.45594000000E+02  0.51100000000E-03 0. -1.
         11   -1    0    0    0    0 -0.00000000000E+00 -0.00000000000E+00 -0.45593999997E+02  0.45594000000E+02  0.51100000000E-03 0.  1.
    9900012    2    1    2    0    0 -0.12504705905E+02 -0.93984857263E+01 -0.27785274650E+02  0.59301942058E+02  0.49999996408E+02 0.  0.
         12    1    1    2    0    0  0.12504705905E+02  0.93984857263E+01  0.27785274650E+02  0.31886057942E+02  0.00000000000E+00 0. -1.
         11    1    3    3    0    0 -0.59940580701E+01  0.10245934361E+02 -0.20616196408E+02  0.23789398010E+02  0.51100000000E-03 0. -1.
        -11    1    3    3    0    0 -0.78936816670E+01 -0.99506922431E+01 -0.17274397732E+02  0.21441345659E+02  0.51100000000E-03 0.  1.
         12    1    3    3    0    0  0.13830338319E+01 -0.96937278437E+01  0.10105319491E+02  0.14071198389E+02  0.00000000000E+00 0. -1.
</event>
<event>
 7    1  0.6672802E-013  0.5930193E+02  0.7816164E-02  0.1266605E+00
        -11   -1    0    0    0    0  0.00000000000E+00  0.00000000000E+00  0.45593999997E+02  0.45594000000E+02  0.51100000000E-03 0.  1.
         11   -1    0    0    0    0 -0.00000000000E+00 -0.00000000000E+00 -0.45593999997E+02  0.45594000000E+02  0.51100000000E-03 0. -1.
    9900012    2    1    2    0    0 -0.22972417026E+02 -0.67914959516E+00  0.22102681179E+02  0.59301926182E+02  0.49999967454E+02 0.  0.
         12    1    1    2    0    0  0.22972417026E+02  0.67914959516E+00 -0.22102681179E+02  0.31886073818E+02  0.00000000000E+00 0. -1.
         11    1    3    3    0    0 -0.62555049568E+01 -0.19131974884E+01 -0.39087332640E+01  0.76203584485E+01  0.51100000000E-03 0. -1.
        -11    1    3    3    0    0 -0.14873564935E+02 -0.15415833895E+02  0.27506110536E+02  0.34863404676E+02  0.51100000000E-03 0.  1.
         12    1    3    3    0    0 -0.18433471350E+01  0.16649881788E+02 -0.14946960929E+01  0.16818163057E+02  0.00000000000E+00 0. -1.
</event>
<event>
 7    1  0.6672802E-013  0.5930191E+02  0.7816164E-02  0.1266605E+00
        -11   -1    0    0    0    0  0.00000000000E+00  0.00000000000E+00  0.45593999997E+02  0.45594000000E+02  0.51100000000E-03 0.  1.
         11   -1    0    0    0    0 -0.00000000000E+00 -0.00000000000E+00 -0.45593999997E+02  0.45594000000E+02  0.51100000000E-03 0. -1.
    9900012    2    1    2    0    0 -0.17560642969E+02 -0.17753663076E+02  0.19828111439E+02  0.59301909971E+02  0.49999937889E+02 0.  0.
         12    1    1    2    0    0  0.17560642969E+02  0.17753663076E+02 -0.19828111439E+02  0.31886090029E+02  0.00000000000E+00 0. -1.
         11    1    3    3    0    0 -0.12995025361E+02 -0.22551299620E+01 -0.31240347770E+01  0.13554183443E+02  0.51100000000E-03 0. -1.
        -11    1    3    3    0    0 -0.44212677634E+01  0.39207692257E+01  0.25487055885E+02  0.26163143120E+02  0.51100000000E-03 0.  1.
         12    1    3    3    0    0 -0.14434984552E+00 -0.19419302340E+02 -0.25349096693E+01  0.19584583408E+02  0.00000000000E+00 0. -1.
</event>
<event>
 7    1  0.6672802E-013  0.5930194E+02  0.7816164E-02  0.1266605E+00
        -11   -1    0    0    0    0  0.00000000000E+00  0.00000000000E+00  0.45593999997E+02  0.45594000000E+02  0.51100000000E-03 0. -1.
         11   -1    0    0    0    0 -0.00000000000E+00 -0.00000000000E+00 -0.45593999997E+02  0.45594000000E+02  0.51100000000E-03 0.  1.
    9900012    2    1    2    0    0  0.25836398679E+02  0.11472204412E+02 -0.14750932012E+02  0.59301937747E+02  0.49999988546E+02 0.  0.
         12    1    1    2    0    0 -0.25836398679E+02 -0.11472204412E+02  0.14750932012E+02  0.31886062253E+02  0.00000000000E+00 0. -1.
         11    1    3    3    0    0 -0.34923018613E+01  0.14637168233E+02 -0.14054901056E+02  0.20590850156E+02  0.51100000000E-03 0. -1.
        -11    1    3    3    0    0 -0.36982807239E+01 -0.37451127797E+00  0.37374304271E+01  0.52712356681E+01  0.51100000000E-03 0.  1.
         12    1    3    3    0    0  0.33026981264E+02 -0.27904525432E+01 -0.44334613837E+01  0.33439851923E+02  0.00000000000E+00 0. -1.
</event>
<event>
 7    1  0.6672802E-013  0.5930193E+02  0.7816164E-02  0.1266605E+00
        -11   -1    0    0    0    0  0.00000000000E+00  0.00000000000E+00  0.45593999997E+02  0.45594000000E+02  0.51100000000E-03 0.  1.
         11   -1    0    0    0    0 -0.00000000000E+00 -0.00000000000E+00 -0.45593999997E+02  0.45594000000E+02  0.51100000000E-03 0. -1.
    9900012    2    1    2    0    0  0.19723149411E+01  0.27152006460E+02  0.16601198836E+02  0.59301932763E+02  0.49999979456E+02 0.  0.
         12    1    1    2    0    0 -0.19723149411E+01 -0.27152006460E+02 -0.16601198836E+02  0.31886067237E+02  0.00000000000E+00 0. -1.
         11    1    3    3    0    0  0.10040932119E+02  0.36700159748E+01  0.63681550406E+01  0.12443582039E+02  0.51100000000E-03 0. -1.
        -11    1    3    3    0    0  0.11532443204E+02  0.20656164156E+02 -0.17319717751E+01  0.23720752315E+02  0.51100000000E-03 0.  1.
         12    1    3    3    0    0 -0.19601060382E+02  0.28258263289E+01  0.11965015571E+02  0.23137598409E+02  0.00000000000E+00 0. -1.
</event>
<event>
 7    1  0.6672802E-013  0.5930194E+02  0.7816164E-02  0.1266605E+00
        -11   -1    0    0    0    0  0.00000000000E+00  0.00000000000E+00  0.45593999997E+02  0.45594000000E+02  0.51100000000E-03 0.  1.
         11   -1    0    0    0    0 -0.00000000000E+00 -0.00000000000E+00 -0.45593999997E+02  0.45594000000E+02  0.51100000000E-03 0. -1.
    9900012    2    1    2    0    0  0.41175256655E+01  0.29847539319E+02  0.10435086470E+02  0.59301942692E+02  0.49999997565E+02 0.  0.
         12    1    1    2    0    0 -0.41175256655E+01 -0.29847539319E+02 -0.10435086470E+02  0.31886057308E+02  0.00000000000E+00 0. -1.
         11    1    3    3    0    0  0.42649546450E+01  0.26834734533E+02 -0.26607867476E+01  0.27301512815E+02  0.51100000000E-03 0. -1.
        -11    1    3    3    0    0  0.24251627341E+01  0.11617990096E+02 -0.41359461777E+01  0.12568419121E+02  0.51100000000E-03 0.  1.
        -12    1    3    3    0    0 -0.25725917136E+01 -0.86051853108E+01  0.17231819395E+02  0.19432010756E+02  0.00000000000E+00 0.  1.
</event>
<event>
 7    1  0.6672802E-013  0.5930193E+02  0.7816164E-02  0.1266605E+00
        -11   -1    0    0    0    0  0.00000000000E+00  0.00000000000E+00  0.45593999997E+02  0.45594000000E+02  0.51100000000E-03 0.  1.
         11   -1    0    0    0    0 -0.00000000000E+00 -0.00000000000E+00 -0.45593999997E+02  0.45594000000E+02  0.51100000000E-03 0. -1.
    9900012    2    1    2    0    0 -0.12818040653E+02 -0.15543788175E+01  0.29154815895E+02  0.59301928596E+02  0.49999971857E+02 0.  0.
         12    1    1    2    0    0  0.12818040653E+02  0.15543788175E+01 -0.29154815895E+02  0.31886071404E+02  0.00000000000E+00 0. -1.
         11    1    3    3    0    0  0.23354420868E+01  0.80273708191E+01 -0.48055094813E+01  0.96429193528E+01  0.51100000000E-03 0. -1.
        -11    1    3    3    0    0 -0.72406942806E+01 -0.21070790654E+02  0.20709725599E+02  0.30418721326E+02  0.51100000000E-03 0.  1.
         12    1    3    3    0    0 -0.79127884596E+01  0.11489041017E+02  0.13250599777E+02  0.19240287918E+02  0.00000000000E+00 0. -1.
</event>
<event>
 7    1  0.6672802E-013  0.5930196E+02  0.7816164E-02  0.1266605E+00
        -11   -1    0    0    0    0  0.00000000000E+00  0.00000000000E+00  0.45593999997E+02  0.45594000000E+02  0.51100000000E-03 0.  1.
         11   -1    0    0    0    0 -0.00000000000E+00 -0.00000000000E+00 -0.45593999997E+02  0.45594000000E+02  0.51100000000E-03 0. -1.
    9900012    2    1    2    0    0 -0.11794829363E+02  0.98386577584E+01  0.27942844320E+02  0.59301957052E+02  0.50000023754E+02 0.  0.
         12    1    1    2    0    0  0.11794829363E+02 -0.98386577584E+01 -0.27942844320E+02  0.31886042948E+02  0.00000000000E+00 0. -1.
         11    1    3    3    0    0  0.56127426718E+01  0.65033065757E+00  0.13698364542E+02  0.14817928386E+02  0.51100000000E-03 0. -1.
        -11    1    3    3    0    0  0.10086421606E+02  0.72557522702E+01  0.11247534070E+02  0.16759739400E+02  0.51100000000E-03 0.  1.
         12    1    3    3    0    0 -0.27493993641E+02  0.19325748307E+01  0.29969457074E+01  0.27724289267E+02  0.00000000000E+00 0. -1.
</event>
<event>
 7    1  0.6672802E-013  0.5930196E+02  0.7816164E-02  0.1266605E+00
        -11   -1    0    0    0    0  0.00000000000E+00  0.00000000000E+00  0.45593999997E+02  0.45594000000E+02  0.51100000000E-03 0.  1.
         11   -1    0    0    0    0 -0.00000000000E+00 -0.00000000000E+00 -0.45593999997E+02  0.45594000000E+02  0.51100000000E-03 0. -1.
    9900012    2    1    2    0    0  0.23019714879E+02  0.52838115388E+01  0.21421809100E+02  0.59301955363E+02  0.50000020672E+02 0.  0.
         12    1    1    2    0    0 -0.23019714879E+02 -0.52838115388E+01 -0.21421809100E+02  0.31886044637E+02  0.00000000000E+00 0. -1.
         11    1    3    3    0    0  0.63613145892E+01 -0.48556247736E+01  0.41444912121E+01  0.90122263016E+01  0.51100000000E-03 0. -1.
        -11    1    3    3    0    0  0.15319376802E+01  0.14510134648E+02  0.27769170955E+02  0.31369056351E+02  0.51100000000E-03 0.  1.
         12    1    3    3    0    0  0.15126462610E+02 -0.43706983361E+01 -0.10491853067E+02  0.18920672710E+02  0.00000000000E+00 0. -1.
</event>
<event>
 7    1  0.6672802E-013  0.5930194E+02  0.7816164E-02  0.1266605E+00
        -11   -1    0    0    0    0  0.00000000000E+00  0.00000000000E+00  0.45593999997E+02  0.45594000000E+02  0.51100000000E-03 0. -1.
         11   -1    0    0    0    0 -0.00000000000E+00 -0.00000000000E+00 -0.45593999997E+02  0.45594000000E+02  0.51100000000E-03 0.  1.
    9900012    2    1    2    0    0  0.19835668818E+02  0.20254687678E+02 -0.14595027226E+02  0.59301937997E+02  0.49999989001E+02 0.  0.
         12    1    1    2    0    0 -0.19835668818E+02 -0.20254687678E+02  0.14595027226E+02  0.31886062003E+02  0.00000000000E+00 0. -1.
         11    1    3    3    0    0  0.14906893848E+02  0.17119213941E+02 -0.14464425471E+02  0.26916585493E+02  0.51100000000E-03 0.  1.
        -11    1    3    3    0    0 -0.90114797495E+01 -0.94632545829E+01 -0.29194349896E+01  0.13389662262E+02  0.51100000000E-03 0. -1.
         12    1    3    3    0    0  0.13940254719E+02  0.12598728320E+02  0.27888332352E+01  0.18995690241E+02  0.00000000000E+00 0. -1.
</event>
<event>
 7    1  0.6672802E-013  0.5930193E+02  0.7816164E-02  0.1266605E+00
        -11   -1    0    0    0    0  0.00000000000E+00  0.00000000000E+00  0.45593999997E+02  0.45594000000E+02  0.51100000000E-03 0. -1.
         11   -1    0    0    0    0 -0.00000000000E+00 -0.00000000000E+00 -0.45593999997E+02  0.45594000000E+02  0.51100000000E-03 0.  1.
    9900012    2    1    2    0    0 -0.19965117203E+02 -0.36349788695E+01 -0.24594761387E+02  0.59301933074E+02  0.49999980023E+02 0.  0.
         12    1    1    2    0    0  0.19965117203E+02  0.36349788695E+01  0.24594761387E+02  0.31886066926E+02  0.00000000000E+00 0. -1.
         11    1    3    3    0    0 -0.90027241752E+01  0.54440626355E+01  0.10042684174E+02  0.14544496081E+02  0.51100000000E-03 0. -1.
        -11    1    3    3    0    0 -0.48104267179E+01 -0.36062362487E+01  0.26510675475E+01  0.65706395802E+01  0.51100000000E-03 0.  1.
        -12    1    3    3    0    0 -0.61519663100E+01 -0.54728052563E+01 -0.37288513109E+02  0.38186797414E+02  0.00000000000E+00 0.  1.
</event>
<event>
 7    1  0.6672802E-013  0.5930192E+02  0.7816164E-02  0.1266605E+00
        -11   -1    0    0    0    0  0.00000000000E+00  0.00000000000E+00  0.45593999997E+02  0.45594000000E+02  0.51100000000E-03 0.  1.
         11   -1    0    0    0    0 -0.00000000000E+00 -0.00000000000E+00 -0.45593999997E+02  0.45594000000E+02  0.51100000000E-03 0. -1.
    9900012    2    1    2    0    0 -0.26156135403E+02  0.11622017612E+02  0.14053722481E+02  0.59301924227E+02  0.49999963888E+02 0.  0.
         12    1    1    2    0    0  0.26156135403E+02 -0.11622017612E+02 -0.14053722481E+02  0.31886075773E+02  0.00000000000E+00 0. -1.
         11    1    3    3    0    0  0.41234983116E+01  0.45239905847E+01 -0.22044156798E+01  0.65060877558E+01  0.51100000000E-03 0. -1.
        -11    1    3    3    0    0  0.56742885699E+01  0.55945831041E+01  0.14766794171E+02  0.16779604323E+02  0.51100000000E-03 0.  1.
        -12    1    3    3    0    0 -0.35953922285E+02  0.15034439235E+01  0.14913439906E+01  0.36016232149E+02  0.00000000000E+00 0.  1.
</event>
<event>
 7    1  0.6672802E-013  0.5930175E+02  0.7816164E-02  0.1266605E+00
        -11   -1    0    0    0    0  0.00000000000E+00  0.00000000000E+00  0.45593999997E+02  0.45594000000E+02  0.51100000000E-03 0.  1.
         11   -1    0    0    0    0 -0.00000000000E+00 -0.00000000000E+00 -0.45593999997E+02  0.45594000000E+02  0.51100000000E-03 0. -1.
    9900012    2    1    2    0    0  0.37112808329E+00  0.11091484116E+02  0.29892707346E+02  0.59301753617E+02  0.49999652735E+02 0.  0.
         12    1    1    2    0    0 -0.37112808329E+00 -0.11091484116E+02 -0.29892707346E+02  0.31886246383E+02  0.00000000000E+00 0. -1.
         11    1    3    3    0    0  0.68059941921E+01  0.84461684670E+01  0.16648257431E+01  0.10974104234E+02  0.51100000000E-03 0. -1.
        -11    1    3    3    0    0 -0.10161833030E+01  0.51801949205E+01  0.37184263727E+02  0.37557110073E+02  0.51100000000E-03 0.  1.
         12    1    3    3    0    0 -0.54186828058E+01 -0.25348792717E+01 -0.89563821240E+01  0.10770539310E+02  0.00000000000E+00 0. -1.
</event>
<event>
 7    1  0.6672802E-013  0.5930192E+02  0.7816164E-02  0.1266605E+00
        -11   -1    0    0    0    0  0.00000000000E+00  0.00000000000E+00  0.45593999997E+02  0.45594000000E+02  0.51100000000E-03 0. -1.
         11   -1    0    0    0    0 -0.00000000000E+00 -0.00000000000E+00 -0.45593999997E+02  0.45594000000E+02  0.51100000000E-03 0.  1.
    9900012    2    1    2    0    0  0.12128127995E+02  0.24383430802E+01 -0.29388521344E+02  0.59301918516E+02  0.49999953473E+02 0.  0.
         12    1    1    2    0    0 -0.12128127995E+02 -0.24383430802E+01  0.29388521344E+02  0.31886081484E+02  0.00000000000E+00 0. -1.
         11    1    3    3    0    0 -0.33060232983E+01  0.45058420434E+00 -0.69948352133E+00  0.34091191871E+01  0.51100000000E-03 0. -1.
        -11    1    3    3    0    0  0.52201336573E+01  0.21311510192E+02 -0.29714170954E+01  0.22141806202E+02  0.51100000000E-03 0.  1.
         12    1    3    3    0    0  0.10214017636E+02 -0.19323751317E+02 -0.25717620727E+02  0.33750993127E+02  0.00000000000E+00 0. -1.
</event>
<event>
 7    1  0.6672802E-013  0.5930194E+02  0.7816164E-02  0.1266605E+00
        -11   -1    0    0    0    0  0.00000000000E+00  0.00000000000E+00  0.45593999997E+02  0.45594000000E+02  0.51100000000E-03 0. -1.
         11   -1    0    0    0    0 -0.00000000000E+00 -0.00000000000E+00 -0.45593999997E+02  0.45594000000E+02  0.51100000000E-03 0.  1.
    9900012    2    1    2    0    0  0.56449088252E+01  0.90909527964E+01 -0.30036815489E+02  0.59301941870E+02  0.49999996064E+02 0.  0.
         12    1    1    2    0    0 -0.56449088252E+01 -0.90909527964E+01  0.30036815489E+02  0.31886058130E+02  0.00000000000E+00 0. -1.
         11    1    3    3    0    0  0.71620237857E+01  0.17435558474E+02 -0.17413945070E+02  0.25662010193E+02  0.51100000000E-03 0. -1.
        -11    1    3    3    0    0  0.40935711940E+01  0.37145937929E+01  0.76228451689E+01  0.94161192057E+01  0.51100000000E-03 0.  1.
         12    1    3    3    0    0 -0.56106861545E+01 -0.12059199470E+02 -0.20245715587E+02  0.24223812471E+02  0.00000000000E+00 0. -1.
</event>
<event>
 7    1  0.6672802E-013  0.5930193E+02  0.7816164E-02  0.1266605E+00
        -11   -1    0    0    0    0  0.00000000000E+00  0.00000000000E+00  0.45593999997E+02  0.45594000000E+02  0.51100000000E-03 0.  1.
         11   -1    0    0    0    0 -0.00000000000E+00 -0.00000000000E+00 -0.45593999997E+02  0.45594000000E+02  0.51100000000E-03 0. -1.
    9900012    2    1    2    0    0  0.30577224175E+01 -0.57529877485E+01  0.31213373423E+02  0.59301933845E+02  0.49999981429E+02 0.  0.
         12    1    1    2    0    0 -0.30577224175E+01  0.57529877485E+01 -0.31213373423E+02  0.31886066155E+02  0.00000000000E+00 0. -1.
         11    1    3    3    0    0  0.96992712981E+01 -0.71174046157E+01  0.33883472754E+01  0.12498568306E+02  0.51100000000E-03 0. -1.
        -11    1    3    3    0    0  0.18542423682E+01 -0.97355571394E+01  0.30934754607E+02  0.32483508592E+02  0.51100000000E-03 0.  1.
         12    1    3    3    0    0 -0.84957912488E+01  0.11099974007E+02 -0.31097284595E+01  0.14319856947E+02  0.00000000000E+00 0. -1.
</event>
<event>
 7    1  0.6672802E-013  0.5930154E+02  0.7816164E-02  0.1266606E+00
        -11   -1    0    0    0    0  0.00000000000E+00  0.00000000000E+00  0.45593999997E+02  0.45594000000E+02  0.51100000000E-03 0.  1.
         11   -1    0    0    0    0 -0.00000000000E+00 -0.00000000000E+00 -0.45593999997E+02  0.45594000000E+02  0.51100000000E-03 0. -1.
    9900012    2    1    2    0    0 -0.56891302365E+01  0.29211918641E+02 -0.11447445522E+02  0.59301538884E+02  0.49999261110E+02 0.  0.
         12    1    1    2    0    0  0.56891302365E+01 -0.29211918641E+02  0.11447445522E+02  0.31886461116E+02  0.00000000000E+00 0. -1.
         11    1    3    3    0    0  0.10213564847E+01  0.41472291955E+01 -0.19373920301E+02  0.19839139779E+02  0.51100000000E-03 0. -1.
        -11    1    3    3    0    0 -0.13183913069E+02  0.33210611320E+01 -0.35306536354E+01  0.14046726530E+02  0.51100000000E-03 0.  1.
        -12    1    3    3    0    0  0.64734263480E+01  0.21743628313E+02  0.11457128415E+02  0.25415672575E+02  0.00000000000E+00 0.  1.
</event>
<event>
 7    1  0.6672802E-013  0.5930192E+02  0.7816164E-02  0.1266605E+00
        -11   -1    0    0    0    0  0.00000000000E+00  0.00000000000E+00  0.45593999997E+02  0.45594000000E+02  0.51100000000E-03 0. -1.
         11   -1    0    0    0    0 -0.00000000000E+00 -0.00000000000E+00 -0.45593999997E+02  0.45594000000E+02  0.51100000000E-03 0.  1.
    9900012    2    1    2    0    0  0.27405114843E+02  0.14541914989E+02 -0.73630311520E+01  0.59301924060E+02  0.49999963584E+02 0.  0.
         12    1    1    2    0    0 -0.27405114843E+02 -0.14541914989E+02  0.73630311520E+01  0.31886075940E+02  0.00000000000E+00 0. -1.
         11    1    3    3    0    0 -0.59041664359E+01  0.47099731144E+01  0.88289463888E+00  0.76041127849E+01  0.51100000000E-03 0. -1.
        -11    1    3    3    0    0 -0.35433125477E+01 -0.25165672122E+01 -0.11891480295E+02  0.12660785055E+02  0.51100000000E-03 0.  1.
        -12    1    3    3    0    0  0.36852593827E+02  0.12348509087E+02  0.36455545046E+01  0.39037026220E+02  0.00000000000E+00 0.  1.
</event>
<event>
 7    1  0.6672802E-013  0.5930191E+02  0.7816164E-02  0.1266605E+00
        -11   -1    0    0    0    0  0.00000000000E+00  0.00000000000E+00  0.45593999997E+02  0.45594000000E+02  0.51100000000E-03 0. -1.
         11   -1    0    0    0    0 -0.00000000000E+00 -0.00000000000E+00 -0.45593999997E+02  0.45594000000E+02  0.51100000000E-03 0.  1.
    9900012    2    1    2    0    0  0.43646605555E+01  0.30811637870E+02  0.69509540718E+01  0.59301905029E+02  0.49999928876E+02 0.  0.
         12    1    1    2    0    0 -0.43646605555E+01 -0.30811637870E+02 -0.69509540718E+01  0.31886094971E+02  0.00000000000E+00 0. -1.
         11    1    3    3    0    0  0.15735359334E+02  0.92650887942E+01  0.71692041731E+01  0.19617362016E+02  0.51100000000E-03 0. -1.
        -11    1    3    3    0    0 -0.43289918344E+01 -0.79171306986E+01 -0.23244404713E+01  0.93179478731E+01  0.51100000000E-03 0.  1.
        -12    1    3    3    0    0 -0.70417069438E+01  0.29463679774E+02  0.21061903700E+01  0.30366595140E+02  0.00000000000E+00 0.  1.
</event>
<event>
 7    1  0.6672802E-013  0.5930195E+02  0.7816164E-02  0.1266605E+00
        -11   -1    0    0    0    0  0.00000000000E+00  0.00000000000E+00  0.45593999997E+02  0.45594000000E+02  0.51100000000E-03 0.  1.
         11   -1    0    0    0    0 -0.00000000000E+00 -0.00000000000E+00 -0.45593999997E+02  0.45594000000E+02  0.51100000000E-03 0. -1.
    9900012    2    1    2    0    0 -0.15799145654E+02 -0.89550867293E+01  0.26209039142E+02  0.59301947964E+02  0.50000007178E+02 0.  0.
         12    1    1    2    0    0  0.15799145654E+02  0.89550867293E+01 -0.26209039142E+02  0.31886052036E+02  0.00000000000E+00 0. -1.
         11    1    3    3    0    0 -0.25373384249E+01  0.88488709029E+01  0.20337693446E+02  0.22324031390E+02  0.51100000000E-03 0. -1.
        -11    1    3    3    0    0 -0.70583436349E+01  0.10021900928E+01  0.13890353369E+02  0.15613023949E+02  0.51100000000E-03 0.  1.
         12    1    3    3    0    0 -0.62034635938E+01 -0.18806147725E+02 -0.80190076730E+01  0.21364892625E+02  0.00000000000E+00 0. -1.
</event>
<event>
 7    1  0.6672802E-013  0.5930195E+02  0.7816164E-02  0.1266605E+00
        -11   -1    0    0    0    0  0.00000000000E+00  0.00000000000E+00  0.45593999997E+02  0.45594000000E+02  0.51100000000E-03 0. -1.
         11   -1    0    0    0    0 -0.00000000000E+00 -0.00000000000E+00 -0.45593999997E+02  0.45594000000E+02  0.51100000000E-03 0.  1.
    9900012    2    1    2    0    0  0.23515324786E+02 -0.21458280127E+02 -0.18143844333E+01  0.59301948557E+02  0.50000008260E+02 0.  0.
         12    1    1    2    0    0 -0.23515324786E+02  0.21458280127E+02  0.18143844333E+01  0.31886051443E+02  0.00000000000E+00 0. -1.
         11    1    3    3    0    0 -0.91284226937E-01 -0.10989396275E+02 -0.25452518768E+01  0.11280668007E+02  0.51100000000E-03 0. -1.
        -11    1    3    3    0    0  0.15574939739E+01  0.12662163250E+02 -0.77906461169E+01  0.14948255177E+02  0.51100000000E-03 0.  1.
         12    1    3    3    0    0  0.22049115039E+02 -0.23131047102E+02  0.85215135604E+01  0.33073025374E+02  0.00000000000E+00 0. -1.
</event>
<event>
 7    1  0.6672802E-013  0.5930196E+02  0.7816164E-02  0.1266605E+00
        -11   -1    0    0    0    0  0.00000000000E+00  0.00000000000E+00  0.45593999997E+02  0.45594000000E+02  0.51100000000E-03 0.  1.
         11   -1    0    0    0    0 -0.00000000000E+00 -0.00000000000E+00 -0.45593999997E+02  0.45594000000E+02  0.51100000000E-03 0. -1.
    9900012    2    1    2    0    0  0.57148387299E+01 -0.23838948516E+02  0.20390311654E+02  0.59301958267E+02  0.50000025969E+02 0.  0.
         12    1    1    2    0    0 -0.57148387299E+01  0.23838948516E+02 -0.20390311654E+02  0.31886041733E+02  0.00000000000E+00 0. -1.
         11    1    3    3    0    0  0.16278689689E+01 -0.58153925112E+01 -0.20349502085E+01  0.63725795445E+01  0.51100000000E-03 0. -1.
        -11    1    3    3    0    0 -0.17959650716E+02  0.12045404524E+01  0.42686633298E+01  0.18499228590E+02  0.51100000000E-03 0.  1.
         12    1    3    3    0    0  0.22046620477E+02 -0.19228096458E+02  0.18156598532E+02  0.34430150132E+02  0.00000000000E+00 0. -1.
</event>
<event>
 7    1  0.6672802E-013  0.5930190E+02  0.7816164E-02  0.1266605E+00
        -11   -1    0    0    0    0  0.00000000000E+00  0.00000000000E+00  0.45593999997E+02  0.45594000000E+02  0.51100000000E-03 0.  1.
         11   -1    0    0    0    0 -0.00000000000E+00 -0.00000000000E+00 -0.45593999997E+02  0.45594000000E+02  0.51100000000E-03 0. -1.
    9900012    2    1    2    0    0  0.45801548519E+01 -0.25460584964E+02  0.18641461358E+02  0.59301901356E+02  0.49999922177E+02 0.  0.
         12    1    1    2    0    0 -0.45801548519E+01  0.25460584964E+02 -0.18641461358E+02  0.31886098644E+02  0.00000000000E+00 0. -1.
         11    1    3    3    0    0  0.68028949858E+00 -0.16441076019E+02  0.39256083257E+00  0.16459826206E+02  0.51100000000E-03 0. -1.
        -11    1    3    3    0    0 -0.93157925351E+01 -0.14508359699E+01 -0.80859812857E+01  0.12420628373E+02  0.51100000000E-03 0.  1.
        -12    1    3    3    0    0  0.13215657888E+02 -0.75686729751E+01  0.26334881811E+02  0.30421446778E+02  0.00000000000E+00 0.  1.
</event>
<event>
 7    1  0.6672802E-013  0.5930193E+02  0.7816164E-02  0.1266605E+00
        -11   -1    0    0    0    0  0.00000000000E+00  0.00000000000E+00  0.45593999997E+02  0.45594000000E+02  0.51100000000E-03 0.  1.
         11   -1    0    0    0    0 -0.00000000000E+00 -0.00000000000E+00 -0.45593999997E+02  0.45594000000E+02  0.51100000000E-03 0. -1.
    9900012    2    1    2    0    0 -0.16579668781E+02 -0.18323744066E+02 -0.20151335889E+02  0.59301931700E+02  0.49999977517E+02 0.  0.
         12    1    1    2    0    0  0.16579668781E+02  0.18323744066E+02  0.20151335889E+02  0.31886068300E+02  0.00000000000E+00 0. -1.
         11    1    3    3    0    0  0.17443303415E+01 -0.45351588559E+01  0.31096871109E+01  0.57689261026E+01  0.51100000000E-03 0. -1.
        -11    1    3    3    0    0  0.20659802402E+01 -0.12300136852E+02  0.89713007273E+01  0.15363784623E+02  0.51100000000E-03 0.  1.
         12    1    3    3    0    0 -0.20389979363E+02 -0.14884483582E+01 -0.32232323728E+02  0.38169220975E+02  0.00000000000E+00 0. -1.
</event>
<event>
 7    1  0.6672802E-013  0.5930197E+02  0.7816164E-02  0.1266605E+00
        -11   -1    0    0    0    0  0.00000000000E+00  0.00000000000E+00  0.45593999997E+02  0.45594000000E+02  0.51100000000E-03 0. -1.
         11   -1    0    0    0    0 -0.00000000000E+00 -0.00000000000E+00 -0.45593999997E+02  0.45594000000E+02  0.51100000000E-03 0.  1.
    9900012    2    1    2    0    0 -0.11519452536E+02  0.23227144226E+02  0.18561269437E+02  0.59301972672E+02  0.50000052241E+02 0.  0.
         12    1    1    2    0    0  0.11519452536E+02 -0.23227144226E+02 -0.18561269437E+02  0.31886027328E+02  0.00000000000E+00 0. -1.
         11    1    3    3    0    0 -0.19214550722E+02  0.25702732320E+02  0.15283575370E+02  0.35544578834E+02  0.51100000000E-03 0. -1.
        -11    1    3    3    0    0 -0.84188041399E+00  0.88774988379E+01  0.34236673124E+01  0.95519760456E+01  0.51100000000E-03 0.  1.
         12    1    3    3    0    0  0.85369785996E+01 -0.11353086931E+02 -0.14597324628E+00  0.14205417793E+02  0.00000000000E+00 0. -1.
</event>
<event>
 7    1  0.6672802E-013  0.5930182E+02  0.7816164E-02  0.1266605E+00
        -11   -1    0    0    0    0  0.00000000000E+00  0.00000000000E+00  0.45593999997E+02  0.45594000000E+02  0.51100000000E-03 0.  1.
         11   -1    0    0    0    0 -0.00000000000E+00 -0.00000000000E+00 -0.45593999997E+02  0.45594000000E+02  0.51100000000E-03 0. -1.
    9900012    2    1    2    0    0  0.67232140861E+00  0.63594239944E+01  0.31238346981E+02  0.59301817856E+02  0.49999769893E+02 0.  0.
         12    1    1    2    0    0 -0.67232140861E+00 -0.63594239944E+01 -0.31238346981E+02  0.31886182144E+02  0.00000000000E+00 0. -1.
         11    1    3    3    0    0  0.33367637284E+01  0.25939604583E+02  0.13172537363E+02  0.29283319808E+02  0.51100000000E-03 0. -1.
        -11    1    3    3    0    0 -0.46477179928E+01 -0.58714703122E+01  0.13493170599E+02  0.15431820996E+02  0.51100000000E-03 0.  1.
        -12    1    3    3    0    0  0.19832756731E+01 -0.13708710277E+02  0.45726390187E+01  0.14586677053E+02  0.00000000000E+00 0.  1.
</event>
<event>
 7    1  0.6672802E-013  0.5930195E+02  0.7816164E-02  0.1266605E+00
        -11   -1    0    0    0    0  0.00000000000E+00  0.00000000000E+00  0.45593999997E+02  0.45594000000E+02  0.51100000000E-03 0.  1.
         11   -1    0    0    0    0 -0.00000000000E+00 -0.00000000000E+00 -0.45593999997E+02  0.45594000000E+02  0.51100000000E-03 0. -1.
    9900012    2    1    2    0    0  0.56871775326E+01 -0.26266896199E+02  0.17158858139E+02  0.59301949181E+02  0.50000009398E+02 0.  0.
         12    1    1    2    0    0 -0.56871775326E+01  0.26266896199E+02 -0.17158858139E+02  0.31886050819E+02  0.00000000000E+00 0. -1.
         11    1    3    3    0    0 -0.14499545652E+01 -0.54299199699E+01 -0.13209850649E+02  0.14355715013E+02  0.51100000000E-03 0.  1.
        -11    1    3    3    0    0  0.65222806086E+01  0.19532425667E+01 -0.20073791846E+00  0.68114313352E+01  0.51100000000E-03 0. -1.
        -12    1    3    3    0    0  0.61485148928E+00 -0.22790218796E+02  0.30569446707E+02  0.38134802832E+02  0.00000000000E+00 0.  1.
</event>
<event>
 7    1  0.7550976E-013  0.5930193E+02  0.7816164E-02  0.1266605E+00
        -11   -1    0    0    0    0  0.00000000000E+00  0.00000000000E+00  0.45593999997E+02  0.45594000000E+02  0.51100000000E-03 0. -1.
         11   -1    0    0    0    0 -0.00000000000E+00 -0.00000000000E+00 -0.45593999997E+02  0.45594000000E+02  0.51100000000E-03 0.  1.
    9900012    2    1    2    0    0  0.16322690942E+02 -0.89169809505E+01 -0.25899391088E+02  0.59301933331E+02  0.49999980493E+02 0.  0.
         12    1    1    2    0    0 -0.16322690942E+02  0.89169809505E+01  0.25899391088E+02  0.31886066669E+02  0.00000000000E+00 0. -1.
         11    1    3    3    0    0 -0.34044210262E+01 -0.11362460154E+01  0.71293500001E+01  0.79817773219E+01  0.51100000000E-03 0. -1.
        -11    1    3    3    0    0  0.38834520176E+01 -0.14632579407E+02 -0.30262624227E+02  0.33838144232E+02  0.51100000000E-03 0.  1.
         12    1    3    3    0    0  0.15843659951E+02  0.68518444718E+01 -0.27661168607E+01  0.17482011778E+02  0.00000000000E+00 0. -1.
</event>
<event>
 7    1  0.6672802E-013  0.5930184E+02  0.7816164E-02  0.1266605E+00
        -11   -1    0    0    0    0  0.00000000000E+00  0.00000000000E+00  0.45593999997E+02  0.45594000000E+02  0.51100000000E-03 0.  1.
         11   -1    0    0    0    0 -0.00000000000E+00 -0.00000000000E+00 -0.45593999997E+02  0.45594000000E+02  0.51100000000E-03 0. -1.
    9900012    2    1    2    0    0 -0.23847141247E+02  0.27811623457E+01  0.20983478302E+02  0.59301837307E+02  0.49999805367E+02 0.  0.
         12    1    1    2    0    0  0.23847141247E+02 -0.27811623457E+01 -0.20983478302E+02  0.31886162693E+02  0.00000000000E+00 0. -1.
         11    1    3    3    0    0 -0.19396412482E+01  0.91578682747E+01 -0.67956082487E+01  0.11567586232E+02  0.51100000000E-03 0.  1.
        -11    1    3    3    0    0 -0.76631389170E+01  0.61689077916E+01 -0.40793000468E+01  0.10649873733E+02  0.51100000000E-03 0. -1.
        -12    1    3    3    0    0 -0.14244361082E+02 -0.12545613721E+02  0.31858386597E+02  0.37084377342E+02  0.00000000000E+00 0.  1.
</event>
<event>
 7    1  0.6672802E-013  0.5930195E+02  0.7816164E-02  0.1266605E+00
        -11   -1    0    0    0    0  0.00000000000E+00  0.00000000000E+00  0.45593999997E+02  0.45594000000E+02  0.51100000000E-03 0.  1.
         11   -1    0    0    0    0 -0.00000000000E+00 -0.00000000000E+00 -0.45593999997E+02  0.45594000000E+02  0.51100000000E-03 0. -1.
    9900012    2    1    2    0    0 -0.19509284307E+02 -0.15744423148E+02  0.19703333365E+02  0.59301946934E+02  0.50000005300E+02 0.  0.
         12    1    1    2    0    0  0.19509284307E+02  0.15744423148E+02 -0.19703333365E+02  0.31886053066E+02  0.00000000000E+00 0. -1.
         11    1    3    3    0    0 -0.22972487762E+02 -0.13240196398E+02  0.88598098296E+01  0.27955933630E+02  0.51100000000E-03 0. -1.
        -11    1    3    3    0    0 -0.31794900226E+01 -0.16599160335E+01  0.19822909143E+02  0.20144781091E+02  0.51100000000E-03 0.  1.
         12    1    3    3    0    0  0.66426934771E+01 -0.84431071591E+00 -0.89793856073E+01  0.11201232213E+02  0.00000000000E+00 0. -1.
</event>
<event>
 7    1  0.6672802E-013  0.5930195E+02  0.7816164E-02  0.1266605E+00
        -11   -1    0    0    0    0  0.00000000000E+00  0.00000000000E+00  0.45593999997E+02  0.45594000000E+02  0.51100000000E-03 0. -1.
         11   -1    0    0    0    0 -0.00000000000E+00 -0.00000000000E+00 -0.45593999997E+02  0.45594000000E+02  0.51100000000E-03 0.  1.
    9900012    2    1    2    0    0 -0.21555987328E+02 -0.18948380578E+02 -0.13893111298E+02  0.59301948853E+02  0.50000008799E+02 0.  0.
         12    1    1    2    0    0  0.21555987328E+02  0.18948380578E+02  0.13893111298E+02  0.31886051147E+02  0.00000000000E+00 0. -1.
         11    1    3    3    0    0  0.36023842858E+00 -0.11750412748E+02 -0.61079534907E+01  0.13247983529E+02  0.51100000000E-03 0. -1.
        -11    1    3    3    0    0  0.34188748874E+01 -0.15942457502E+02 -0.10055397854E+02  0.19156243968E+02  0.51100000000E-03 0.  1.
        -12    1    3    3    0    0 -0.25335100644E+02  0.87444896718E+01  0.22702400461E+01  0.26897721356E+02  0.00000000000E+00 0.  1.
</event>
<event>
 7    1  0.6672802E-013  0.5930194E+02  0.7816164E-02  0.1266605E+00
        -11   -1    0    0    0    0  0.00000000000E+00  0.00000000000E+00  0.45593999997E+02  0.45594000000E+02  0.51100000000E-03 0.  1.
         11   -1    0    0    0    0 -0.00000000000E+00 -0.00000000000E+00 -0.45593999997E+02  0.45594000000E+02  0.51100000000E-03 0. -1.
    9900012    2    1    2    0    0  0.26417478042E+02 -0.15698414406E+02  0.85086629679E+01  0.59301941817E+02  0.49999995969E+02 0.  0.
         12    1    1    2    0    0 -0.26417478042E+02  0.15698414406E+02 -0.85086629679E+01  0.31886058183E+02  0.00000000000E+00 0. -1.
         11    1    3    3    0    0 -0.14175153212E+00  0.60238775105E-01 -0.18235360935E+02  0.18236011376E+02  0.51100000000E-03 0. -1.
        -11    1    3    3    0    0  0.83719032182E+00  0.22955857362E+00  0.91922805610E+00  0.12643438037E+01  0.51100000000E-03 0.  1.
         12    1    3    3    0    0  0.25722039252E+02 -0.15988211754E+02  0.25824795847E+02  0.39801586638E+02  0.00000000000E+00 0. -1.
</event>
<event>
 7    1  0.6672802E-013  0.5930195E+02  0.7816164E-02  0.1266605E+00
        -11   -1    0    0    0    0  0.00000000000E+00  0.00000000000E+00  0.45593999997E+02  0.45594000000E+02  0.51100000000E-03 0.  1.
         11   -1    0    0    0    0 -0.00000000000E+00 -0.00000000000E+00 -0.45593999997E+02  0.45594000000E+02  0.51100000000E-03 0. -1.
    9900012    2    1    2    0    0 -0.45479621757E+01 -0.31005817692E+02  0.58885796287E+01  0.59301951942E+02  0.50000014434E+02 0.  0.
         12    1    1    2    0    0  0.45479621757E+01  0.31005817692E+02 -0.58885796287E+01  0.31886048058E+02  0.00000000000E+00 0. -1.
         11    1    3    3    0    0  0.12085378934E+02 -0.22016997913E+02 -0.11298767615E+02  0.27540274707E+02  0.51100000000E-03 0. -1.
        -11    1    3    3    0    0  0.10153623064E+01 -0.89548386849E+01  0.49140215778E+01  0.10264877243E+02  0.51100000000E-03 0.  1.
         12    1    3    3    0    0 -0.17648703416E+02 -0.33981093958E-01  0.12273325666E+02  0.21496799992E+02  0.00000000000E+00 0. -1.
</event>
<event>
 7    1  0.6672802E-013  0.5930193E+02  0.7816164E-02  0.1266605E+00
        -11   -1    0    0    0    0  0.00000000000E+00  0.00000000000E+00  0.45593999997E+02  0.45594000000E+02  0.51100000000E-03 0. -1.
         11   -1    0    0    0    0 -0.00000000000E+00 -0.00000000000E+00 -0.45593999997E+02  0.45594000000E+02  0.51100000000E-03 0.  1.
    9900012    2    1    2    0    0  0.11018490901E+02 -0.24712963771E+02 -0.16869604260E+02  0.59301933012E+02  0.49999979911E+02 0.  0.
         12    1    1    2    0    0 -0.11018490901E+02  0.24712963771E+02  0.16869604260E+02  0.31886066988E+02  0.00000000000E+00 0. -1.
         11    1    3    3    0    0  0.71317951560E+01  0.60672385899E+01  0.31246011601E+00  0.93686454645E+01  0.51100000000E-03 0. -1.
        -11    1    3    3    0    0 -0.12142150416E+02 -0.66186153498E+01  0.35639603128E+01  0.14280745752E+02  0.51100000000E-03 0.  1.
        -12    1    3    3    0    0  0.16028846161E+02 -0.24161587011E+02 -0.20746024689E+02  0.35652541796E+02  0.00000000000E+00 0.  1.
</event>
<event>
 7    1  0.6672802E-013  0.5930193E+02  0.7816164E-02  0.1266605E+00
        -11   -1    0    0    0    0  0.00000000000E+00  0.00000000000E+00  0.45593999997E+02  0.45594000000E+02  0.51100000000E-03 0. -1.
         11   -1    0    0    0    0 -0.00000000000E+00 -0.00000000000E+00 -0.45593999997E+02  0.45594000000E+02  0.51100000000E-03 0.  1.
    9900012    2    1    2    0    0  0.22052020779E+02  0.22919332890E+02 -0.22658685891E+01  0.59301927789E+02  0.49999970385E+02 0.  0.
         12    1    1    2    0    0 -0.22052020779E+02 -0.22919332890E+02  0.22658685891E+01  0.31886072211E+02  0.00000000000E+00 0. -1.
         11    1    3    3    0    0  0.78749219937E+01  0.28677085870E+01  0.11246036545E+02  0.14025387238E+02  0.51100000000E-03 0. -1.
        -11    1    3    3    0    0 -0.89256986699E+01  0.12760259828E+02  0.31319569552E+01  0.15884000827E+02  0.51100000000E-03 0.  1.
        -12    1    3    3    0    0  0.23102797456E+02  0.72913644742E+01 -0.16643862090E+02  0.29392539724E+02  0.00000000000E+00 0.  1.
</event>
<event>
 7    1  0.6672802E-013  0.5930191E+02  0.7816164E-02  0.1266605E+00
        -11   -1    0    0    0    0  0.00000000000E+00  0.00000000000E+00  0.45593999997E+02  0.45594000000E+02  0.51100000000E-03 0.  1.
         11   -1    0    0    0    0 -0.00000000000E+00 -0.00000000000E+00 -0.45593999997E+02  0.45594000000E+02  0.51100000000E-03 0. -1.
    9900012    2    1    2    0    0  0.26230012457E+02 -0.17206197147E+02  0.57145560819E+01  0.59301907029E+02  0.49999932523E+02 0.  0.
         12    1    1    2    0    0 -0.26230012457E+02  0.17206197147E+02 -0.57145560819E+01  0.31886092971E+02  0.00000000000E+00 0. -1.
         11    1    3    3    0    0  0.11817213034E+02  0.98824649246E+01  0.91012397314E+01  0.17892518039E+02  0.51100000000E-03 0. -1.
        -11    1    3    3    0    0  0.22018032244E+01  0.37444412319E+01 -0.68022539427E+01  0.80709006028E+01  0.51100000000E-03 0.  1.
        -12    1    3    3    0    0  0.12210996199E+02 -0.30833103303E+02  0.34155702932E+01  0.33338488387E+02  0.00000000000E+00 0.  1.
</event>
<event>
 7    1  0.6672802E-013  0.5930196E+02  0.7816164E-02  0.1266605E+00
        -11   -1    0    0    0    0  0.00000000000E+00  0.00000000000E+00  0.45593999997E+02  0.45594000000E+02  0.51100000000E-03 0.  1.
         11   -1    0    0    0    0 -0.00000000000E+00 -0.00000000000E+00 -0.45593999997E+02  0.45594000000E+02  0.51100000000E-03 0. -1.
    9900012    2    1    2    0    0  0.21975983397E+02 -0.25692911954E+01  0.22960282815E+02  0.59301957749E+02  0.50000025024E+02 0.  0.
         12    1    1    2    0    0 -0.21975983397E+02  0.25692911954E+01 -0.22960282815E+02  0.31886042251E+02  0.00000000000E+00 0. -1.
         11    1    3    3    0    0  0.24750131444E+02 -0.13124230716E+02  0.14111190532E+02  0.31367820085E+02  0.51100000000E-03 0. -1.
        -11    1    3    3    0    0  0.75145137932E+01  0.12554057230E+02  0.68259157341E+00  0.14647122653E+02  0.51100000000E-03 0.  1.
        -12    1    3    3    0    0 -0.10288661840E+02 -0.19991177090E+01  0.81665007100E+01  0.13287015012E+02  0.00000000000E+00 0.  1.
</event>
<event>
 7    1  0.6672802E-013  0.5930192E+02  0.7816164E-02  0.1266605E+00
        -11   -1    0    0    0    0  0.00000000000E+00  0.00000000000E+00  0.45593999997E+02  0.45594000000E+02  0.51100000000E-03 0.  1.
         11   -1    0    0    0    0 -0.00000000000E+00 -0.00000000000E+00 -0.45593999997E+02  0.45594000000E+02  0.51100000000E-03 0. -1.
    9900012    2    1    2    0    0 -0.39313797071E+01 -0.29027224113E+02  0.12597078756E+02  0.59301923426E+02  0.49999962427E+02 0.  0.
         12    1    1    2    0    0  0.39313797071E+01  0.29027224113E+02 -0.12597078756E+02  0.31886076574E+02  0.00000000000E+00 0. -1.
         11    1    3    3    0    0 -0.10375992740E+02 -0.26210075759E+02 -0.49515064409E+01  0.28620739210E+02  0.51100000000E-03 0. -1.
        -11    1    3    3    0    0 -0.18441108611E+01  0.54476755402E+01 -0.34022256195E+01  0.66822939988E+01  0.51100000000E-03 0.  1.
        -12    1    3    3    0    0  0.82887238943E+01 -0.82648238944E+01  0.20950810816E+02  0.23998890217E+02  0.00000000000E+00 0.  1.
</event>
<event>
 7    1  0.6672802E-013  0.5930194E+02  0.7816164E-02  0.1266605E+00
        -11   -1    0    0    0    0  0.00000000000E+00  0.00000000000E+00  0.45593999997E+02  0.45594000000E+02  0.51100000000E-03 0.  1.
         11   -1    0    0    0    0 -0.00000000000E+00 -0.00000000000E+00 -0.45593999997E+02  0.45594000000E+02  0.51100000000E-03 0. -1.
    9900012    2    1    2    0    0 -0.10097312393E+02 -0.12088376123E+02  0.27724295945E+02  0.59301935010E+02  0.49999983555E+02 0.  0.
         12    1    1    2    0    0  0.10097312393E+02  0.12088376123E+02 -0.27724295945E+02  0.31886064990E+02  0.00000000000E+00 0. -1.
         11    1    3    3    0    0 -0.13761279481E+02  0.44335107014E+01  0.86070329396E+01  0.16825868369E+02  0.51100000000E-03 0. -1.
        -11    1    3    3    0    0  0.15517807388E+02  0.22992191476E+01  0.80313190401E+01  0.17623587620E+02  0.51100000000E-03 0.  1.
         12    1    3    3    0    0 -0.11853840300E+02 -0.18821105972E+02  0.11085943966E+02  0.24852479021E+02  0.00000000000E+00 0. -1.
</event>
<event>
 7    1  0.6672802E-013  0.5930195E+02  0.7816164E-02  0.1266605E+00
        -11   -1    0    0    0    0  0.00000000000E+00  0.00000000000E+00  0.45593999997E+02  0.45594000000E+02  0.51100000000E-03 0.  1.
         11   -1    0    0    0    0 -0.00000000000E+00 -0.00000000000E+00 -0.45593999997E+02  0.45594000000E+02  0.51100000000E-03 0. -1.
    9900012    2    1    2    0    0  0.30445880892E+02 -0.94514292524E+01  0.66239367812E+00  0.59301953779E+02  0.50000017785E+02 0.  0.
         12    1    1    2    0    0 -0.30445880892E+02  0.94514292524E+01 -0.66239367812E+00  0.31886046221E+02  0.00000000000E+00 0. -1.
         11    1    3    3    0    0  0.93245675519E+01 -0.12343203512E+02 -0.97716864109E+01  0.18297215322E+02  0.51100000000E-03 0. -1.
        -11    1    3    3    0    0  0.14828389127E+02 -0.74930433842E+01 -0.83835757305E+01  0.18609437540E+02  0.51100000000E-03 0.  1.
        -12    1    3    3    0    0  0.62929242130E+01  0.10384817644E+02  0.18817655820E+02  0.22395300918E+02  0.00000000000E+00 0.  1.
</event>
<event>
 7    1  0.6672802E-013  0.5930194E+02  0.7816164E-02  0.1266605E+00
        -11   -1    0    0    0    0  0.00000000000E+00  0.00000000000E+00  0.45593999997E+02  0.45594000000E+02  0.51100000000E-03 0.  1.
         11   -1    0    0    0    0 -0.00000000000E+00 -0.00000000000E+00 -0.45593999997E+02  0.45594000000E+02  0.51100000000E-03 0. -1.
    9900012    2    1    2    0    0  0.16828478553E+02 -0.98742705569E+01  0.25219480058E+02  0.59301935900E+02  0.49999985176E+02 0.  0.
         12    1    1    2    0    0 -0.16828478553E+02  0.98742705569E+01 -0.25219480058E+02  0.31886064100E+02  0.00000000000E+00 0. -1.
         11    1    3    3    0    0  0.25924207617E+02  0.51607827094E+00  0.49873170119E+01  0.26404624758E+02  0.51100000000E-03 0.  1.
        -11    1    3    3    0    0  0.50206377001E+01 -0.94301764927E+01  0.41093778839E+01  0.11446484982E+02  0.51100000000E-03 0. -1.
         12    1    3    3    0    0 -0.14116366764E+02 -0.96017233518E+00  0.16122785162E+02  0.21450826159E+02  0.00000000000E+00 0. -1.
</event>
<event>
 7    1  0.6672802E-013  0.5930197E+02  0.7816164E-02  0.1266605E+00
        -11   -1    0    0    0    0  0.00000000000E+00  0.00000000000E+00  0.45593999997E+02  0.45594000000E+02  0.51100000000E-03 0.  1.
         11   -1    0    0    0    0 -0.00000000000E+00 -0.00000000000E+00 -0.45593999997E+02  0.45594000000E+02  0.51100000000E-03 0. -1.
    9900012    2    1    2    0    0 -0.80677090573E+01  0.53560354915E+01  0.30379986049E+02  0.59301974880E+02  0.50000056268E+02 0.  0.
         12    1    1    2    0    0  0.80677090573E+01 -0.53560354915E+01 -0.30379986049E+02  0.31886025120E+02  0.00000000000E+00 0. -1.
         11    1    3    3    0    0  0.60315199453E+01  0.64907190012E+01  0.17571874342E+01  0.90330711246E+01  0.51100000000E-03 0. -1.
        -11    1    3    3    0    0 -0.22410784932E+02  0.58481463419E+01  0.31443414965E+02  0.39052944087E+02  0.51100000000E-03 0.  1.
         12    1    3    3    0    0  0.83115559290E+01 -0.69828298516E+01 -0.28206163510E+01  0.11215959669E+02  0.00000000000E+00 0. -1.
</event>
<event>
 7    1  0.6672802E-013  0.5930195E+02  0.7816164E-02  0.1266605E+00
        -11   -1    0    0    0    0  0.00000000000E+00  0.00000000000E+00  0.45593999997E+02  0.45594000000E+02  0.51100000000E-03 0.  1.
         11   -1    0    0    0    0 -0.00000000000E+00 -0.00000000000E+00 -0.45593999997E+02  0.45594000000E+02  0.51100000000E-03 0. -1.
    9900012    2    1    2    0    0  0.46016097347E+00  0.19540873881E+02  0.25192508161E+02  0.59301953403E+02  0.50000017098E+02 0.  0.
         12    1    1    2    0    0 -0.46016097347E+00 -0.19540873881E+02 -0.25192508161E+02  0.31886046597E+02  0.00000000000E+00 0. -1.
         11    1    3    3    0    0 -0.99727698038E+01 -0.90945841730E+00 -0.62850659225E+01  0.11823083611E+02  0.51100000000E-03 0. -1.
        -11    1    3    3    0    0  0.13986775074E+02  0.47754020696E+01  0.34610753004E+01  0.15179373650E+02  0.51100000000E-03 0.  1.
         12    1    3    3    0    0 -0.35538442967E+01  0.15674930229E+02  0.28016498783E+02  0.32299496142E+02  0.00000000000E+00 0. -1.
</event>
<event>
 7    1  0.6672802E-013  0.5930195E+02  0.7816164E-02  0.1266605E+00
        -11   -1    0    0    0    0  0.00000000000E+00  0.00000000000E+00  0.45593999997E+02  0.45594000000E+02  0.51100000000E-03 0.  1.
         11   -1    0    0    0    0 -0.00000000000E+00 -0.00000000000E+00 -0.45593999997E+02  0.45594000000E+02  0.51100000000E-03 0. -1.
    9900012    2    1    2    0    0 -0.19541957899E+02  0.19035307816E+02  0.16507249815E+02  0.59301947271E+02  0.50000005915E+02 0.  0.
         12    1    1    2    0    0  0.19541957899E+02 -0.19035307816E+02 -0.16507249815E+02  0.31886052729E+02  0.00000000000E+00 0. -1.
         11    1    3    3    0    0 -0.37478291045E+01 -0.52689373351E+01  0.21294279315E+02  0.22254308694E+02  0.51100000000E-03 0. -1.
        -11    1    3    3    0    0 -0.10607262672E+02 -0.10280529749E+01 -0.32612421048E+01  0.11144802136E+02  0.51100000000E-03 0.  1.
        -12    1    3    3    0    0 -0.51868661224E+01  0.25332298126E+02 -0.15257873951E+01  0.25902836441E+02  0.00000000000E+00 0.  1.
</event>
<event>
 7    1  0.6672802E-013  0.5930193E+02  0.7816164E-02  0.1266605E+00
        -11   -1    0    0    0    0  0.00000000000E+00  0.00000000000E+00  0.45593999997E+02  0.45594000000E+02  0.51100000000E-03 0.  1.
         11   -1    0    0    0    0 -0.00000000000E+00 -0.00000000000E+00 -0.45593999997E+02  0.45594000000E+02  0.51100000000E-03 0. -1.
    9900012    2    1    2    0    0  0.18678051614E+02  0.25230806898E+02  0.55908803163E+01  0.59301934524E+02  0.49999982668E+02 0.  0.
         12    1    1    2    0    0 -0.18678051614E+02 -0.25230806898E+02 -0.55908803163E+01  0.31886065476E+02  0.00000000000E+00 0. -1.
         11    1    3    3    0    0 -0.71018945849E+00  0.41047373754E+01 -0.66122467444E+01  0.78150524795E+01  0.51100000000E-03 0. -1.
        -11    1    3    3    0    0  0.32652059954E+01 -0.12018846509E+02 -0.59804851264E+00  0.12468837311E+02  0.51100000000E-03 0.  1.
        -12    1    3    3    0    0  0.16123035077E+02  0.33144916031E+02  0.12801175573E+02  0.39018044734E+02  0.00000000000E+00 0.  1.
</event>
<event>
 7    1  0.6672802E-013  0.5930194E+02  0.7816164E-02  0.1266605E+00
        -11   -1    0    0    0    0  0.00000000000E+00  0.00000000000E+00  0.45593999997E+02  0.45594000000E+02  0.51100000000E-03 0.  1.
         11   -1    0    0    0    0 -0.00000000000E+00 -0.00000000000E+00 -0.45593999997E+02  0.45594000000E+02  0.51100000000E-03 0. -1.
    9900012    2    1    2    0    0  0.16065351660E+02  0.89201661101E+01  0.26058699047E+02  0.59301942179E+02  0.49999996628E+02 0.  0.
         12    1    1    2    0    0 -0.16065351660E+02 -0.89201661101E+01 -0.26058699047E+02  0.31886057821E+02  0.00000000000E+00 0. -1.
         11    1    3    3    0    0  0.14494282412E+02  0.57929848488E+01  0.55546356811E+01  0.16567947184E+02  0.51100000000E-03 0. -1.
        -11    1    3    3    0    0  0.18675209332E+02  0.68309442296E+01  0.12518385548E+02  0.23497557738E+02  0.51100000000E-03 0.  1.
         12    1    3    3    0    0 -0.17104140084E+02 -0.37037629683E+01  0.79856778176E+01  0.19236437257E+02  0.00000000000E+00 0. -1.
</event>
<event>
 7    1  0.7752608E-013  0.5930195E+02  0.7816164E-02  0.1266605E+00
        -11   -1    0    0    0    0  0.00000000000E+00  0.00000000000E+00  0.45593999997E+02  0.45594000000E+02  0.51100000000E-03 0. -1.
         11   -1    0    0    0    0 -0.00000000000E+00 -0.00000000000E+00 -0.45593999997E+02  0.45594000000E+02  0.51100000000E-03 0.  1.
    9900012    2    1    2    0    0  0.18592343829E+02  0.12078277650E+02 -0.22916367814E+02  0.59301953619E+02  0.50000017492E+02 0.  0.
         12    1    1    2    0    0 -0.18592343829E+02 -0.12078277650E+02  0.22916367814E+02  0.31886046381E+02  0.00000000000E+00 0. -1.
         11    1    3    3    0    0  0.12494682132E+02 -0.41877692031E+00  0.62475793422E+01  0.13975861462E+02  0.51100000000E-03 0. -1.
        -11    1    3    3    0    0  0.13423879131E+02  0.18295112750E+02 -0.27798157183E+02  0.35883829568E+02  0.51100000000E-03 0.  1.
         12    1    3    3    0    0 -0.73262174344E+01 -0.57980581793E+01 -0.13657899734E+01  0.94422625890E+01  0.00000000000E+00 0. -1.
</event>
<event>
 7    1  0.6672802E-013  0.5930195E+02  0.7816164E-02  0.1266605E+00
        -11   -1    0    0    0    0  0.00000000000E+00  0.00000000000E+00  0.45593999997E+02  0.45594000000E+02  0.51100000000E-03 0. -1.
         11   -1    0    0    0    0 -0.00000000000E+00 -0.00000000000E+00 -0.45593999997E+02  0.45594000000E+02  0.51100000000E-03 0.  1.
    9900012    2    1    2    0    0 -0.19347187226E+02 -0.25170050112E+02  0.29791652911E+01  0.59301945022E+02  0.50000001813E+02 0.  0.
         12    1    1    2    0    0  0.19347187226E+02  0.25170050112E+02 -0.29791652911E+01  0.31886054978E+02  0.00000000000E+00 0. -1.
         11    1    3    3    0    0 -0.18530823830E+02 -0.99631960936E+01  0.87927888406E+01  0.22802847280E+02  0.51100000000E-03 0. -1.
        -11    1    3    3    0    0 -0.53093019243E+01  0.13018152465E+01 -0.15779142240E+02  0.16699243694E+02  0.51100000000E-03 0.  1.
        -12    1    3    3    0    0  0.44929385282E+01 -0.16508669265E+02  0.99655186909E+01  0.19799854048E+02  0.00000000000E+00 0.  1.
</event>
<event>
 7    1  0.6672802E-013  0.5930198E+02  0.7816164E-02  0.1266605E+00
        -11   -1    0    0    0    0  0.00000000000E+00  0.00000000000E+00  0.45593999997E+02  0.45594000000E+02  0.51100000000E-03 0.  1.
         11   -1    0    0    0    0 -0.00000000000E+00 -0.00000000000E+00 -0.45593999997E+02  0.45594000000E+02  0.51100000000E-03 0. -1.
    9900012    2    1    2    0    0 -0.87753405801E+01 -0.17816601113E+02  0.24945543771E+02  0.59301983762E+02  0.50000072466E+02 0.  0.
         12    1    1    2    0    0  0.87753405801E+01  0.17816601113E+02 -0.24945543771E+02  0.31886016238E+02  0.00000000000E+00 0. -1.
         11    1    3    3    0    0  0.69511446295E+01 -0.33596770491E+01  0.36435305285E+01  0.85370461231E+01  0.51100000000E-03 0. -1.
        -11    1    3    3    0    0 -0.17759588275E+02  0.13199957996E+01  0.28259354725E+02  0.33402642026E+02  0.51100000000E-03 0.  1.
         12    1    3    3    0    0  0.20331030652E+01 -0.15776919863E+02 -0.69573414823E+01  0.17362295613E+02  0.00000000000E+00 0. -1.
</event>
<event>
 7    1  0.6672802E-013  0.5930202E+02  0.7816164E-02  0.1266605E+00
        -11   -1    0    0    0    0  0.00000000000E+00  0.00000000000E+00  0.45593999997E+02  0.45594000000E+02  0.51100000000E-03 0. -1.
         11   -1    0    0    0    0 -0.00000000000E+00 -0.00000000000E+00 -0.45593999997E+02  0.45594000000E+02  0.51100000000E-03 0.  1.
    9900012    2    1    2    0    0  0.23939891832E+02  0.20415131036E+02  0.51788011173E+01  0.59302015976E+02  0.50000131216E+02 0.  0.
         12    1    1    2    0    0 -0.23939891832E+02 -0.20415131036E+02 -0.51788011173E+01  0.31885984024E+02  0.00000000000E+00 0. -1.
         11    1    3    3    0    0 -0.47671656588E+01 -0.34934455115E+01  0.71462996009E+00  0.59532114192E+01  0.51100000000E-03 0. -1.
        -11    1    3    3    0    0 -0.17187459532E+01 -0.38642598092E+01 -0.90532287179E+01  0.99923741925E+01  0.51100000000E-03 0.  1.
         12    1    3    3    0    0  0.30425803444E+02  0.27772836357E+02  0.13517399875E+02  0.43356430364E+02  0.00000000000E+00 0. -1.
</event>
<event>
 7    1  0.6672802E-013  0.5930197E+02  0.7816164E-02  0.1266605E+00
        -11   -1    0    0    0    0  0.00000000000E+00  0.00000000000E+00  0.45593999997E+02  0.45594000000E+02  0.51100000000E-03 0.  1.
         11   -1    0    0    0    0 -0.00000000000E+00 -0.00000000000E+00 -0.45593999997E+02  0.45594000000E+02  0.51100000000E-03 0. -1.
    9900012    2    1    2    0    0  0.16102137923E+02  0.13113919385E+02  0.24196393104E+02  0.59301965964E+02  0.50000040006E+02 0.  0.
         12    1    1    2    0    0 -0.16102137923E+02 -0.13113919385E+02 -0.24196393104E+02  0.31886034036E+02  0.00000000000E+00 0. -1.
         11    1    3    3    0    0  0.99944688542E+01 -0.94894451219E+01 -0.63312146360E+01  0.15166517577E+02  0.51100000000E-03 0. -1.
        -11    1    3    3    0    0  0.13161726698E+02  0.83495470870E+01  0.11697673824E+02  0.19487985001E+02  0.51100000000E-03 0.  1.
        -12    1    3    3    0    0 -0.70540576293E+01  0.14253817420E+02  0.18829933916E+02  0.24647463386E+02  0.00000000000E+00 0.  1.
</event>
<event>
 7    1  0.6672802E-013  0.5930192E+02  0.7816164E-02  0.1266605E+00
        -11   -1    0    0    0    0  0.00000000000E+00  0.00000000000E+00  0.45593999997E+02  0.45594000000E+02  0.51100000000E-03 0.  1.
         11   -1    0    0    0    0 -0.00000000000E+00 -0.00000000000E+00 -0.45593999997E+02  0.45594000000E+02  0.51100000000E-03 0. -1.
    9900012    2    1    2    0    0 -0.16551486874E+00  0.20710662874E+02  0.24243826589E+02  0.59301920286E+02  0.49999956701E+02 0.  0.
         12    1    1    2    0    0  0.16551486874E+00 -0.20710662874E+02 -0.24243826589E+02  0.31886079714E+02  0.00000000000E+00 0. -1.
         11    1    3    3    0    0  0.95721380199E+01  0.12958540953E+02  0.44098171168E+01  0.16703176260E+02  0.51100000000E-03 0. -1.
        -11    1    3    3    0    0  0.12042452165E+02 -0.16611507682E+01  0.13235519329E+02  0.17971061410E+02  0.51100000000E-03 0.  1.
        -12    1    3    3    0    0 -0.21780105054E+02  0.94132726896E+01  0.65984901427E+01  0.24627682616E+02  0.00000000000E+00 0.  1.
</event>
<event>
 7    1  0.6672802E-013  0.5930192E+02  0.7816164E-02  0.1266605E+00
        -11   -1    0    0    0    0  0.00000000000E+00  0.00000000000E+00  0.45593999997E+02  0.45594000000E+02  0.51100000000E-03 0.  1.
         11   -1    0    0    0    0 -0.00000000000E+00 -0.00000000000E+00 -0.45593999997E+02  0.45594000000E+02  0.51100000000E-03 0. -1.
    9900012    2    1    2    0    0  0.12926871683E+02  0.13538303561E+02  0.25813419106E+02  0.59301917130E+02  0.49999950945E+02 0.  0.
         12    1    1    2    0    0 -0.12926871683E+02 -0.13538303561E+02 -0.25813419106E+02  0.31886082870E+02  0.00000000000E+00 0. -1.
         11    1    3    3    0    0  0.43506895749E+01 -0.67612452318E+01  0.10493304625E+02  0.13219394051E+02  0.51100000000E-03 0. -1.
        -11    1    3    3    0    0  0.15243517316E+02 -0.52479598298E+01  0.10509618995E+02  0.19244687428E+02  0.51100000000E-03 0.  1.
        -12    1    3    3    0    0 -0.66673352072E+01  0.25547508623E+02  0.48104954861E+01  0.26837835651E+02  0.00000000000E+00 0.  1.
</event>
<event>
 7    1  0.6672802E-013  0.5930194E+02  0.7816164E-02  0.1266605E+00
        -11   -1    0    0    0    0  0.00000000000E+00  0.00000000000E+00  0.45593999997E+02  0.45594000000E+02  0.51100000000E-03 0. -1.
         11   -1    0    0    0    0 -0.00000000000E+00 -0.00000000000E+00 -0.45593999997E+02  0.45594000000E+02  0.51100000000E-03 0.  1.
    9900012    2    1    2    0    0 -0.27738882215E+02  0.82839764985E+01 -0.13366026465E+02  0.59301944793E+02  0.50000001396E+02 0.  0.
         12    1    1    2    0    0  0.27738882215E+02 -0.82839764985E+01  0.13366026465E+02  0.31886055207E+02  0.00000000000E+00 0. -1.
         11    1    3    3    0    0 -0.85483055899E+01  0.16047949619E+02 -0.21110306528E+02  0.27861357781E+02  0.51100000000E-03 0.  1.
        -11    1    3    3    0    0 -0.17510667082E+02 -0.11984519414E+02 -0.13634162259E+01  0.21262903643E+02  0.51100000000E-03 0. -1.
        -12    1    3    3    0    0 -0.16799095431E+01  0.42205462940E+01  0.91076962883E+01  0.10177683370E+02  0.00000000000E+00 0.  1.
</event>
<event>
 7    1  0.6672802E-013  0.5930192E+02  0.7816164E-02  0.1266605E+00
        -11   -1    0    0    0    0  0.00000000000E+00  0.00000000000E+00  0.45593999997E+02  0.45594000000E+02  0.51100000000E-03 0.  1.
         11   -1    0    0    0    0 -0.00000000000E+00 -0.00000000000E+00 -0.45593999997E+02  0.45594000000E+02  0.51100000000E-03 0. -1.
    9900012    2    1    2    0    0 -0.25677310270E+02 -0.97074401719E+01  0.16222306864E+02  0.59301923143E+02  0.49999961911E+02 0.  0.
         12    1    1    2    0    0  0.25677310270E+02  0.97074401719E+01 -0.16222306864E+02  0.31886076857E+02  0.00000000000E+00 0. -1.
         11    1    3    3    0    0  0.34430861052E+00  0.40978951156E+01  0.30756973276E+01  0.51352903628E+01  0.51100000000E-03 0. -1.
        -11    1    3    3    0    0 -0.31805182140E+02 -0.19343413932E+02 -0.17366738764E+01  0.37265980598E+02  0.51100000000E-03 0.  1.
         12    1    3    3    0    0  0.57835632592E+01  0.55380786448E+01  0.14883283412E+02  0.16900652182E+02  0.00000000000E+00 0. -1.
</event>
<event>
 7    1  0.6672802E-013  0.5930194E+02  0.7816164E-02  0.1266605E+00
        -11   -1    0    0    0    0  0.00000000000E+00  0.00000000000E+00  0.45593999997E+02  0.45594000000E+02  0.51100000000E-03 0. -1.
         11   -1    0    0    0    0 -0.00000000000E+00 -0.00000000000E+00 -0.45593999997E+02  0.45594000000E+02  0.51100000000E-03 0.  1.
    9900012    2    1    2    0    0 -0.10317962864E+02  0.22757638057E+02 -0.19807842335E+02  0.59301936186E+02  0.49999985698E+02 0.  0.
         12    1    1    2    0    0  0.10317962864E+02 -0.22757638057E+02  0.19807842335E+02  0.31886063814E+02  0.00000000000E+00 0. -1.
         11    1    3    3    0    0  0.24723292782E+01  0.33073331034E+01 -0.10612507506E+02  0.11387544957E+02  0.51100000000E-03 0. -1.
        -11    1    3    3    0    0  0.76867191957E+01  0.16919422715E+02  0.87766216840E+01  0.20551924616E+02  0.51100000000E-03 0.  1.
         12    1    3    3    0    0 -0.20477011338E+02  0.25308822388E+01 -0.17971956513E+02  0.27362466613E+02  0.00000000000E+00 0. -1.
</event>
<event>
 7    1  0.6672802E-013  0.5930205E+02  0.7816164E-02  0.1266604E+00
        -11   -1    0    0    0    0  0.00000000000E+00  0.00000000000E+00  0.45593999997E+02  0.45594000000E+02  0.51100000000E-03 0.  1.
         11   -1    0    0    0    0 -0.00000000000E+00 -0.00000000000E+00 -0.45593999997E+02  0.45594000000E+02  0.51100000000E-03 0. -1.
    9900012    2    1    2    0    0  0.12734909470E+02  0.18875360176E+02  0.22321666817E+02  0.59302047757E+02  0.50000189177E+02 0.  0.
         12    1    1    2    0    0 -0.12734909470E+02 -0.18875360176E+02 -0.22321666817E+02  0.31885952243E+02  0.00000000000E+00 0. -1.
         11    1    3    3    0    0  0.82438194401E+01 -0.17191538845E+01  0.85824864055E+01  0.12023939546E+02  0.51100000000E-03 0. -1.
        -11    1    3    3    0    0  0.19051502522E+02  0.22881577396E+02  0.13089719832E+02  0.32524868917E+02  0.51100000000E-03 0.  1.
         12    1    3    3    0    0 -0.14560412492E+02 -0.22870633361E+01  0.64946057891E+00  0.14753239295E+02  0.00000000000E+00 0. -1.
</event>
<event>
 7    1  0.6672802E-013  0.5930196E+02  0.7816164E-02  0.1266605E+00
        -11   -1    0    0    0    0  0.00000000000E+00  0.00000000000E+00  0.45593999997E+02  0.45594000000E+02  0.51100000000E-03 0.  1.
         11   -1    0    0    0    0 -0.00000000000E+00 -0.00000000000E+00 -0.45593999997E+02  0.45594000000E+02  0.51100000000E-03 0. -1.
    9900012    2    1    2    0    0 -0.43528065067E+01  0.60050040525E+01  0.31011487300E+02  0.59301963201E+02  0.50000034968E+02 0.  0.
         12    1    1    2    0    0  0.43528065067E+01 -0.60050040525E+01 -0.31011487300E+02  0.31886036799E+02  0.00000000000E+00 0. -1.
         11    1    3    3    0    0 -0.54455835287E+01  0.20014257009E+02 -0.19715796417E+01  0.20835354332E+02  0.51100000000E-03 0. -1.
        -11    1    3    3    0    0  0.58496344970E+01 -0.99271747159E+00  0.10146148145E+02  0.11753639189E+02  0.51100000000E-03 0.  1.
        -12    1    3    3    0    0 -0.47568574751E+01 -0.13016535485E+02  0.22836918797E+02  0.26712969681E+02  0.00000000000E+00 0.  1.
</event>
<event>
 7    1  0.6672802E-013  0.5930191E+02  0.7816164E-02  0.1266605E+00
        -11   -1    0    0    0    0  0.00000000000E+00  0.00000000000E+00  0.45593999997E+02  0.45594000000E+02  0.51100000000E-03 0.  1.
         11   -1    0    0    0    0 -0.00000000000E+00 -0.00000000000E+00 -0.45593999997E+02  0.45594000000E+02  0.51100000000E-03 0. -1.
    9900012    2    1    2    0    0  0.42401905882E+01 -0.14307925589E+02  0.28178482780E+02  0.59301908320E+02  0.49999934877E+02 0.  0.
         12    1    1    2    0    0 -0.42401905882E+01  0.14307925589E+02 -0.28178482780E+02  0.31886091680E+02  0.00000000000E+00 0. -1.
         11    1    3    3    0    0  0.22822700740E+01 -0.88531849044E+01  0.16260279812E+02  0.18654338355E+02  0.51100000000E-03 0. -1.
        -11    1    3    3    0    0  0.50143728003E+01 -0.13826689685E+02  0.22457485292E+02  0.26845109948E+02  0.51100000000E-03 0.  1.
         12    1    3    3    0    0 -0.30564522861E+01  0.83719490002E+01 -0.10539282323E+02  0.13802460017E+02  0.00000000000E+00 0. -1.
</event>
<event>
 7    1  0.6672802E-013  0.5930196E+02  0.7816164E-02  0.1266605E+00
        -11   -1    0    0    0    0  0.00000000000E+00  0.00000000000E+00  0.45593999997E+02  0.45594000000E+02  0.51100000000E-03 0. -1.
         11   -1    0    0    0    0 -0.00000000000E+00 -0.00000000000E+00 -0.45593999997E+02  0.45594000000E+02  0.51100000000E-03 0.  1.
    9900012    2    1    2    0    0 -0.17270496954E+02 -0.15734179266E+02 -0.21699888318E+02  0.59301958928E+02  0.50000027175E+02 0.  0.
         12    1    1    2    0    0  0.17270496954E+02  0.15734179266E+02  0.21699888318E+02  0.31886041072E+02  0.00000000000E+00 0. -1.
         11    1    3    3    0    0 -0.51413224125E+01 -0.16504566935E+02 -0.83161399255E+01  0.19183120429E+02  0.51100000000E-03 0. -1.
        -11    1    3    3    0    0  0.12107882752E+02 -0.21477088901E+01 -0.91844318666E+01  0.15348200780E+02  0.51100000000E-03 0.  1.
         12    1    3    3    0    0 -0.24237057293E+02  0.29180965590E+01 -0.41993165256E+01  0.24770637720E+02  0.00000000000E+00 0. -1.
</event>
<event>
 7    1  0.6672802E-013  0.5930193E+02  0.7816164E-02  0.1266605E+00
        -11   -1    0    0    0    0  0.00000000000E+00  0.00000000000E+00  0.45593999997E+02  0.45594000000E+02  0.51100000000E-03 0.  1.
         11   -1    0    0    0    0 -0.00000000000E+00 -0.00000000000E+00 -0.45593999997E+02  0.45594000000E+02  0.51100000000E-03 0. -1.
    9900012    2    1    2    0    0  0.40047102453E+01  0.28426664033E+01  0.31505597897E+02  0.59301934779E+02  0.49999983133E+02 0.  0.
         12    1    1    2    0    0 -0.40047102453E+01 -0.28426664033E+01 -0.31505597897E+02  0.31886065221E+02  0.00000000000E+00 0. -1.
         11    1    3    3    0    0  0.15073584562E+02  0.18818719031E+02  0.20234104674E+02  0.31476596540E+02  0.51100000000E-03 0. -1.
        -11    1    3    3    0    0 -0.74110045676E+00 -0.22188854537E+01  0.10336095222E+02  0.10597525524E+02  0.51100000000E-03 0.  1.
        -12    1    3    3    0    0 -0.10327773860E+02 -0.13757167174E+02  0.93539800109E+00  0.17227812716E+02  0.00000000000E+00 0.  1.
</event>
<event>
 7    1  0.6672802E-013  0.5930195E+02  0.7816164E-02  0.1266605E+00
        -11   -1    0    0    0    0  0.00000000000E+00  0.00000000000E+00  0.45593999997E+02  0.45594000000E+02  0.51100000000E-03 0. -1.
         11   -1    0    0    0    0 -0.00000000000E+00 -0.00000000000E+00 -0.45593999997E+02  0.45594000000E+02  0.51100000000E-03 0.  1.
    9900012    2    1    2    0    0  0.30632479971E+01  0.30379709049E+02 -0.91874853206E+01  0.59301951378E+02  0.50000013405E+02 0.  0.
         12    1    1    2    0    0 -0.30632479971E+01 -0.30379709049E+02  0.91874853206E+01  0.31886048622E+02  0.00000000000E+00 0. -1.
         11    1    3    3    0    0  0.50648761576E+01  0.20852415627E+02  0.22115325609E+01  0.21572368542E+02  0.51100000000E-03 0. -1.
        -11    1    3    3    0    0  0.26666408780E+01  0.21567041837E+02 -0.11958594115E+02  0.24804359307E+02  0.51100000000E-03 0.  1.
         12    1    3    3    0    0 -0.46682690385E+01 -0.12039748415E+02  0.55957623329E+00  0.12925223529E+02  0.00000000000E+00 0. -1.
</event>
<event>
 7    1  0.6672802E-013  0.5930191E+02  0.7816164E-02  0.1266605E+00
        -11   -1    0    0    0    0  0.00000000000E+00  0.00000000000E+00  0.45593999997E+02  0.45594000000E+02  0.51100000000E-03 0. -1.
         11   -1    0    0    0    0 -0.00000000000E+00 -0.00000000000E+00 -0.45593999997E+02  0.45594000000E+02  0.51100000000E-03 0.  1.
    9900012    2    1    2    0    0  0.29113110534E+02 -0.51194252541E+01 -0.11955785499E+02  0.59301913272E+02  0.49999943910E+02 0.  0.
         12    1    1    2    0    0 -0.29113110534E+02  0.51194252541E+01  0.11955785499E+02  0.31886086728E+02  0.00000000000E+00 0. -1.
         11    1    3    3    0    0 -0.15422692311E+00 -0.83172688308E+01 -0.48794924672E+01  0.96441792676E+01  0.51100000000E-03 0. -1.
        -11    1    3    3    0    0 -0.11612612832E+01 -0.96571306756E+01 -0.12858460142E+02  0.16122924615E+02  0.51100000000E-03 0.  1.
        -12    1    3    3    0    0  0.30428598740E+02  0.12854974252E+02  0.57821671103E+01  0.33534809390E+02  0.00000000000E+00 0.  1.
</event>
<event>
 7    1  0.6672802E-013  0.5930195E+02  0.7816164E-02  0.1266605E+00
        -11   -1    0    0    0    0  0.00000000000E+00  0.00000000000E+00  0.45593999997E+02  0.45594000000E+02  0.51100000000E-03 0.  1.
         11   -1    0    0    0    0 -0.00000000000E+00 -0.00000000000E+00 -0.45593999997E+02  0.45594000000E+02  0.51100000000E-03 0. -1.
    9900012    2    1    2    0    0 -0.67235524272E+01  0.98531697082E+01  0.29570750393E+02  0.59301946790E+02  0.50000005037E+02 0.  0.
         12    1    1    2    0    0  0.67235524272E+01 -0.98531697082E+01 -0.29570750393E+02  0.31886053210E+02  0.00000000000E+00 0. -1.
         11    1    3    3    0    0 -0.13157777122E+02 -0.28213948882E+01  0.66902823279E+01  0.15028214990E+02  0.51100000000E-03 0. -1.
        -11    1    3    3    0    0  0.57839610183E+01  0.19625990928E+02  0.11409484602E+00  0.20460858801E+02  0.51100000000E-03 0.  1.
         12    1    3    3    0    0  0.65026367647E+00 -0.69514263321E+01  0.22766373219E+02  0.23812872998E+02  0.00000000000E+00 0. -1.
</event>
<event>
 7    1  0.6672802E-013  0.5930195E+02  0.7816164E-02  0.1266605E+00
        -11   -1    0    0    0    0  0.00000000000E+00  0.00000000000E+00  0.45593999997E+02  0.45594000000E+02  0.51100000000E-03 0. -1.
         11   -1    0    0    0    0 -0.00000000000E+00 -0.00000000000E+00 -0.45593999997E+02  0.45594000000E+02  0.51100000000E-03 0.  1.
    9900012    2    1    2    0    0  0.30887132671E+02 -0.28330032733E+01 -0.73945358916E+01  0.59301952374E+02  0.50000015221E+02 0.  0.
         12    1    1    2    0    0 -0.30887132671E+02  0.28330032733E+01  0.73945358916E+01  0.31886047626E+02  0.00000000000E+00 0. -1.
         11    1    3    3    0    0  0.34177650689E+01 -0.11539177481E+02  0.10625148812E+02  0.16053894310E+02  0.51100000000E-03 0. -1.
        -11    1    3    3    0    0 -0.27885377691E+01 -0.41677903102E+00 -0.10350317818E+02  0.10727475325E+02  0.51100000000E-03 0.  1.
        -12    1    3    3    0    0  0.30257905371E+02  0.91229532383E+01 -0.76693668853E+01  0.32520582738E+02  0.00000000000E+00 0.  1.
</event>
<event>
 7    1  0.6672802E-013  0.5930194E+02  0.7816164E-02  0.1266605E+00
        -11   -1    0    0    0    0  0.00000000000E+00  0.00000000000E+00  0.45593999997E+02  0.45594000000E+02  0.51100000000E-03 0.  1.
         11   -1    0    0    0    0 -0.00000000000E+00 -0.00000000000E+00 -0.45593999997E+02  0.45594000000E+02  0.51100000000E-03 0. -1.
    9900012    2    1    2    0    0  0.91613786708E+01  0.30476963101E+02  0.19860564012E+01  0.59301944129E+02  0.50000000184E+02 0.  0.
         12    1    1    2    0    0 -0.91613786708E+01 -0.30476963101E+02 -0.19860564012E+01  0.31886055871E+02  0.00000000000E+00 0. -1.
         11    1    3    3    0    0 -0.77345814938E-01  0.17801312474E+01  0.14505394416E+01  0.22975888591E+01  0.51100000000E-03 0. -1.
        -11    1    3    3    0    0 -0.12843216336E+02  0.23923853635E+02  0.14158538737E+02  0.30622919489E+02  0.51100000000E-03 0.  1.
         12    1    3    3    0    0  0.22081940822E+02  0.47729782185E+01 -0.13623021777E+02  0.26381435781E+02  0.00000000000E+00 0. -1.
</event>
<event>
 7    1  0.6672802E-013  0.5930195E+02  0.7816164E-02  0.1266605E+00
        -11   -1    0    0    0    0  0.00000000000E+00  0.00000000000E+00  0.45593999997E+02  0.45594000000E+02  0.51100000000E-03 0. -1.
         11   -1    0    0    0    0 -0.00000000000E+00 -0.00000000000E+00 -0.45593999997E+02  0.45594000000E+02  0.51100000000E-03 0.  1.
    9900012    2    1    2    0    0 -0.20075504966E+02 -0.23299406444E+02  0.84161865094E+01  0.59301946063E+02  0.50000003713E+02 0.  0.
         12    1    1    2    0    0  0.20075504966E+02  0.23299406444E+02 -0.84161865094E+01  0.31886053937E+02  0.00000000000E+00 0. -1.
         11    1    3    3    0    0 -0.24296963250E+01 -0.30850314256E+02  0.67611733887E+01  0.31675839054E+02  0.51100000000E-03 0. -1.
        -11    1    3    3    0    0 -0.64142956385E+01 -0.67364578620E+01 -0.55730387672E+00  0.93184570040E+01  0.51100000000E-03 0.  1.
        -12    1    3    3    0    0 -0.11231513002E+02  0.14287365674E+02  0.22123169975E+01  0.18307650005E+02  0.00000000000E+00 0.  1.
</event>
<event>
 7    1  0.6672802E-013  0.5930195E+02  0.7816164E-02  0.1266605E+00
        -11   -1    0    0    0    0  0.00000000000E+00  0.00000000000E+00  0.45593999997E+02  0.45594000000E+02  0.51100000000E-03 0.  1.
         11   -1    0    0    0    0 -0.00000000000E+00 -0.00000000000E+00 -0.45593999997E+02  0.45594000000E+02  0.51100000000E-03 0. -1.
    9900012    2    1    2    0    0 -0.24901544921E+01 -0.13576954991E+02  0.28743445300E+02  0.59301949383E+02  0.50000009767E+02 0.  0.
         12    1    1    2    0    0  0.24901544921E+01  0.13576954991E+02 -0.28743445300E+02  0.31886050617E+02  0.00000000000E+00 0. -1.
         11    1    3    3    0    0  0.19497850598E+01  0.14480011031E+01 -0.41023369904E+01  0.47673407701E+01  0.51100000000E-03 0. -1.
        -11    1    3    3    0    0 -0.21433715487E+02 -0.12343876939E+01  0.13796031258E+02  0.25519763934E+02  0.51100000000E-03 0.  1.
        -12    1    3    3    0    0  0.16993775935E+02 -0.13790568400E+02  0.19049751033E+02  0.29014844679E+02  0.00000000000E+00 0.  1.
</event>
<event>
 7    1  0.6672802E-013  0.5930194E+02  0.7816164E-02  0.1266605E+00
        -11   -1    0    0    0    0  0.00000000000E+00  0.00000000000E+00  0.45593999997E+02  0.45594000000E+02  0.51100000000E-03 0.  1.
         11   -1    0    0    0    0 -0.00000000000E+00 -0.00000000000E+00 -0.45593999997E+02  0.45594000000E+02  0.51100000000E-03 0. -1.
    9900012    2    1    2    0    0  0.71420512319E+01  0.16613205402E+02  0.26262399385E+02  0.59301935473E+02  0.49999984399E+02 0.  0.
         12    1    1    2    0    0 -0.71420512319E+01 -0.16613205402E+02 -0.26262399385E+02  0.31886064527E+02  0.00000000000E+00 0. -1.
         11    1    3    3    0    0  0.33571260338E+01 -0.10274654961E+02  0.27033816952E+02  0.29114705718E+02  0.51100000000E-03 0. -1.
        -11    1    3    3    0    0 -0.16746486622E+01 -0.85332131060E+00  0.24639646213E+00  0.18956046209E+01  0.51100000000E-03 0.  1.
        -12    1    3    3    0    0  0.54595738603E+01  0.27741181674E+02 -0.10178140294E+01  0.28291625135E+02  0.00000000000E+00 0.  1.
</event>
<event>
 7    1  0.6672802E-013  0.5930192E+02  0.7816164E-02  0.1266605E+00
        -11   -1    0    0    0    0  0.00000000000E+00  0.00000000000E+00  0.45593999997E+02  0.45594000000E+02  0.51100000000E-03 0.  1.
         11   -1    0    0    0    0 -0.00000000000E+00 -0.00000000000E+00 -0.45593999997E+02  0.45594000000E+02  0.51100000000E-03 0. -1.
    9900012    2    1    2    0    0 -0.13718915223E+02 -0.14012392704E+02  0.25142914133E+02  0.59301922862E+02  0.49999961398E+02 0.  0.
         12    1    1    2    0    0  0.13718915223E+02  0.14012392704E+02 -0.25142914133E+02  0.31886077138E+02  0.00000000000E+00 0. -1.
         11    1    3    3    0    0  0.54121823012E+01  0.11333912409E+02  0.87797747151E+01  0.15324285695E+02  0.51100000000E-03 0. -1.
        -11    1    3    3    0    0 -0.73393583440E+01  0.41801681584E+01  0.53921478551E+00  0.84634945253E+01  0.51100000000E-03 0.  1.
        -12    1    3    3    0    0 -0.11791739180E+02 -0.29526473272E+02  0.15823924632E+02  0.35514142641E+02  0.00000000000E+00 0.  1.
</event>
<event>
 7    1  0.6672802E-013  0.5930195E+02  0.7816164E-02  0.1266605E+00
        -11   -1    0    0    0    0  0.00000000000E+00  0.00000000000E+00  0.45593999997E+02  0.45594000000E+02  0.51100000000E-03 0.  1.
         11   -1    0    0    0    0 -0.00000000000E+00 -0.00000000000E+00 -0.45593999997E+02  0.45594000000E+02  0.51100000000E-03 0. -1.
    9900012    2    1    2    0    0 -0.18312533933E+02 -0.18322134256E+02  0.18592225266E+02  0.59301947515E+02  0.50000006360E+02 0.  0.
         12    1    1    2    0    0  0.18312533933E+02  0.18322134256E+02 -0.18592225266E+02  0.31886052485E+02  0.00000000000E+00 0. -1.
         11    1    3    3    0    0  0.11302791442E+02  0.55907643209E+01  0.47823416503E+01  0.13486309057E+02  0.51100000000E-03 0. -1.
        -11    1    3    3    0    0 -0.15008467529E+02 -0.57012985319E+01 -0.38891925855E+01  0.16519222795E+02  0.51100000000E-03 0.  1.
        -12    1    3    3    0    0 -0.14606857846E+02 -0.18211600045E+02  0.17699076201E+02  0.29296415663E+02  0.00000000000E+00 0.  1.
</event>
<event>
 7    1  0.6672802E-013  0.5930194E+02  0.7816164E-02  0.1266605E+00
        -11   -1    0    0    0    0  0.00000000000E+00  0.00000000000E+00  0.45593999997E+02  0.45594000000E+02  0.51100000000E-03 0.  1.
         11   -1    0    0    0    0 -0.00000000000E+00 -0.00000000000E+00 -0.45593999997E+02  0.45594000000E+02  0.51100000000E-03 0. -1.
    9900012    2    1    2    0    0 -0.68099626173E+01  0.28079921787E+02 -0.13485669855E+02  0.59301938941E+02  0.49999990723E+02 0.  0.
         12    1    1    2    0    0  0.68099626173E+01 -0.28079921787E+02  0.13485669855E+02  0.31886061059E+02  0.00000000000E+00 0. -1.
         11    1    3    3    0    0 -0.78202422287E+01  0.39267477383E+01  0.38850019228E+01  0.95743812603E+01  0.51100000000E-03 0. -1.
        -11    1    3    3    0    0 -0.17434748207E+02  0.15888430880E+02 -0.81804920756E+00  0.23602582182E+02  0.51100000000E-03 0.  1.
         12    1    3    3    0    0  0.18445027818E+02  0.82647431687E+01 -0.16552622570E+02  0.26124975499E+02  0.00000000000E+00 0. -1.
</event>
<event>
 7    1  0.6672802E-013  0.5930191E+02  0.7816164E-02  0.1266605E+00
        -11   -1    0    0    0    0  0.00000000000E+00  0.00000000000E+00  0.45593999997E+02  0.45594000000E+02  0.51100000000E-03 0. -1.
         11   -1    0    0    0    0 -0.00000000000E+00 -0.00000000000E+00 -0.45593999997E+02  0.45594000000E+02  0.51100000000E-03 0.  1.
    9900012    2    1    2    0    0 -0.29410016840E+02 -0.12194079457E+02 -0.17545109769E+01  0.59301906275E+02  0.49999931147E+02 0.  0.
         12    1    1    2    0    0  0.29410016840E+02  0.12194079457E+02  0.17545109769E+01  0.31886093725E+02  0.00000000000E+00 0. -1.
         11    1    3    3    0    0  0.15464051418E+01 -0.10232858204E+02  0.52842636759E+01  0.11620077399E+02  0.51100000000E-03 0. -1.
        -11    1    3    3    0    0 -0.29789424501E+02 -0.31936684757E+01  0.92106625246E+01  0.31343988815E+02  0.51100000000E-03 0.  1.
        -12    1    3    3    0    0 -0.11669974806E+01  0.12324472233E+01 -0.16249437177E+02  0.16337840061E+02  0.00000000000E+00 0.  1.
</event>
<event>
 7    1  0.6672802E-013  0.5930194E+02  0.7816164E-02  0.1266605E+00
        -11   -1    0    0    0    0  0.00000000000E+00  0.00000000000E+00  0.45593999997E+02  0.45594000000E+02  0.51100000000E-03 0.  1.
         11   -1    0    0    0    0 -0.00000000000E+00 -0.00000000000E+00 -0.45593999997E+02  0.45594000000E+02  0.51100000000E-03 0. -1.
    9900012    2    1    2    0    0  0.30536194333E+02 -0.88405368886E+01  0.24710829274E+01  0.59301944934E+02  0.50000001653E+02 0.  0.
         12    1    1    2    0    0 -0.30536194333E+02  0.88405368886E+01 -0.24710829274E+01  0.31886055066E+02  0.00000000000E+00 0. -1.
         11    1    3    3    0    0  0.23347139468E+02  0.17537689877E+02  0.61305293554E+01  0.29836938147E+02  0.51100000000E-03 0. -1.
        -11    1    3    3    0    0  0.26103550270E+01 -0.11169606136E+02  0.35712544722E+01  0.12013655287E+02  0.51100000000E-03 0.  1.
        -12    1    3    3    0    0  0.45786998377E+01 -0.15208620629E+02 -0.72307009002E+01  0.17451351500E+02  0.00000000000E+00 0.  1.
</event>
<event>
 7    1  0.6672802E-013  0.5930196E+02  0.7816164E-02  0.1266605E+00
        -11   -1    0    0    0    0  0.00000000000E+00  0.00000000000E+00  0.45593999997E+02  0.45594000000E+02  0.51100000000E-03 0.  1.
         11   -1    0    0    0    0 -0.00000000000E+00 -0.00000000000E+00 -0.45593999997E+02  0.45594000000E+02  0.51100000000E-03 0. -1.
    9900012    2    1    2    0    0 -0.24301916167E+02 -0.15631296004E+02 -0.13483280010E+02  0.59301962554E+02  0.50000033788E+02 0.  0.
         12    1    1    2    0    0  0.24301916167E+02  0.15631296004E+02  0.13483280010E+02  0.31886037446E+02  0.00000000000E+00 0. -1.
         11    1    3    3    0    0  0.94901935707E+00  0.92138384412E+01 -0.10595577067E+02  0.14073439885E+02  0.51100000000E-03 0. -1.
        -11    1    3    3    0    0  0.39485471044E+01 -0.12962710683E+02  0.20727904083E+00  0.13552337708E+02  0.51100000000E-03 0.  1.
        -12    1    3    3    0    0 -0.29199482629E+02 -0.11882423762E+02 -0.30949819843E+01  0.31676184962E+02  0.00000000000E+00 0.  1.
</event>
<event>
 7    1  0.6672802E-013  0.5930181E+02  0.7816164E-02  0.1266605E+00
        -11   -1    0    0    0    0  0.00000000000E+00  0.00000000000E+00  0.45593999997E+02  0.45594000000E+02  0.51100000000E-03 0.  1.
         11   -1    0    0    0    0 -0.00000000000E+00 -0.00000000000E+00 -0.45593999997E+02  0.45594000000E+02  0.51100000000E-03 0. -1.
    9900012    2    1    2    0    0 -0.44098043865E+01 -0.12906012109E+02  0.28822176721E+02  0.59301805586E+02  0.49999747514E+02 0.  0.
         12    1    1    2    0    0  0.44098043865E+01  0.12906012109E+02 -0.28822176721E+02  0.31886194414E+02  0.00000000000E+00 0. -1.
         11    1    3    3    0    0  0.46060738700E+01 -0.13290269860E+01 -0.93511178861E+01  0.10508360253E+02  0.51100000000E-03 0. -1.
        -11    1    3    3    0    0 -0.11482590862E+02 -0.61310107627E+00  0.30219560321E+01  0.11889407233E+02  0.51100000000E-03 0.  1.
        -12    1    3    3    0    0  0.24667126051E+01 -0.10963884047E+02  0.35151338575E+02  0.36904038100E+02  0.00000000000E+00 0.  1.
</event>
<event>
 7    1  0.6672802E-013  0.5930194E+02  0.7816164E-02  0.1266605E+00
        -11   -1    0    0    0    0  0.00000000000E+00  0.00000000000E+00  0.45593999997E+02  0.45594000000E+02  0.51100000000E-03 0.  1.
         11   -1    0    0    0    0 -0.00000000000E+00 -0.00000000000E+00 -0.45593999997E+02  0.45594000000E+02  0.51100000000E-03 0. -1.
    9900012    2    1    2    0    0 -0.39791174560E+01  0.23775879865E+02  0.20870914166E+02  0.59301938826E+02  0.49999990513E+02 0.  0.
         12    1    1    2    0    0  0.39791174560E+01 -0.23775879865E+02 -0.20870914166E+02  0.31886061174E+02  0.00000000000E+00 0. -1.
         11    1    3    3    0    0 -0.14893600596E+02  0.23806190347E+02 -0.41987524393E+01  0.28393371759E+02  0.51100000000E-03 0. -1.
        -11    1    3    3    0    0 -0.25891788623E+00  0.44113035655E+01  0.19106763891E+01  0.48142831391E+01  0.51100000000E-03 0.  1.
        -12    1    3    3    0    0  0.11173401026E+02 -0.44416140479E+01  0.23158990216E+02  0.26094283927E+02  0.00000000000E+00 0.  1.
</event>
<event>
 7    1  0.6672802E-013  0.5930193E+02  0.7816164E-02  0.1266605E+00
        -11   -1    0    0    0    0  0.00000000000E+00  0.00000000000E+00  0.45593999997E+02  0.45594000000E+02  0.51100000000E-03 0.  1.
         11   -1    0    0    0    0 -0.00000000000E+00 -0.00000000000E+00 -0.45593999997E+02  0.45594000000E+02  0.51100000000E-03 0. -1.
    9900012    2    1    2    0    0 -0.24906798684E+02  0.48872646132E+01  0.19299933118E+02  0.59301931029E+02  0.49999976293E+02 0.  0.
         12    1    1    2    0    0  0.24906798684E+02 -0.48872646132E+01 -0.19299933118E+02  0.31886068971E+02  0.00000000000E+00 0. -1.
         11    1    3    3    0    0 -0.88064533019E+01  0.19290197239E+02  0.58941400301E+01  0.22009230251E+02  0.51100000000E-03 0. -1.
        -11    1    3    3    0    0  0.79958669441E+00  0.17316002416E+01  0.13793082705E+02  0.13924327957E+02  0.51100000000E-03 0.  1.
        -12    1    3    3    0    0 -0.16899932076E+02 -0.16134532868E+02 -0.38728961664E+00  0.23368372821E+02  0.00000000000E+00 0.  1.
</event>
<event>
 7    1  0.6672802E-013  0.5930194E+02  0.7816164E-02  0.1266605E+00
        -11   -1    0    0    0    0  0.00000000000E+00  0.00000000000E+00  0.45593999997E+02  0.45594000000E+02  0.51100000000E-03 0.  1.
         11   -1    0    0    0    0 -0.00000000000E+00 -0.00000000000E+00 -0.45593999997E+02  0.45594000000E+02  0.51100000000E-03 0. -1.
    9900012    2    1    2    0    0 -0.54650750451E+01  0.30979689916E+02  0.52069781131E+01  0.59301939509E+02  0.49999991759E+02 0.  0.
         12    1    1    2    0    0  0.54650750451E+01 -0.30979689916E+02 -0.52069781131E+01  0.31886060491E+02  0.00000000000E+00 0. -1.
         11    1    3    3    0    0 -0.11005441016E+02  0.90944914546E+00 -0.60105388659E+01  0.12572724741E+02  0.51100000000E-03 0.  1.
        -11    1    3    3    0    0  0.49792011402E+01  0.16035454411E+02 -0.11265146256E+02  0.20219588586E+02  0.51100000000E-03 0. -1.
        -12    1    3    3    0    0  0.56116483044E+00  0.14034786360E+02  0.22482663235E+02  0.26509626182E+02  0.00000000000E+00 0.  1.
</event>
<event>
 7    1  0.6672802E-013  0.5930197E+02  0.7816164E-02  0.1266605E+00
        -11   -1    0    0    0    0  0.00000000000E+00  0.00000000000E+00  0.45593999997E+02  0.45594000000E+02  0.51100000000E-03 0.  1.
         11   -1    0    0    0    0 -0.00000000000E+00 -0.00000000000E+00 -0.45593999997E+02  0.45594000000E+02  0.51100000000E-03 0. -1.
    9900012    2    1    2    0    0 -0.10220063037E+02 -0.28820967628E+02 -0.90344255450E+01  0.59301973148E+02  0.50000053108E+02 0.  0.
         12    1    1    2    0    0  0.10220063037E+02  0.28820967628E+02  0.90344255450E+01  0.31886026852E+02  0.00000000000E+00 0. -1.
         11    1    3    3    0    0 -0.10364042075E+01 -0.15490918862E+01 -0.10812527577E+02  0.10971990349E+02  0.51100000000E-03 0. -1.
        -11    1    3    3    0    0  0.92014099445E+01 -0.83674200569E+00 -0.10393510171E+02  0.13906514160E+02  0.51100000000E-03 0.  1.
        -12    1    3    3    0    0 -0.18385068774E+02 -0.26435133736E+02  0.12171612203E+02  0.34423468638E+02  0.00000000000E+00 0.  1.
</event>
<event>
 7    1  0.6672802E-013  0.5930196E+02  0.7816164E-02  0.1266605E+00
        -11   -1    0    0    0    0  0.00000000000E+00  0.00000000000E+00  0.45593999997E+02  0.45594000000E+02  0.51100000000E-03 0.  1.
         11   -1    0    0    0    0 -0.00000000000E+00 -0.00000000000E+00 -0.45593999997E+02  0.45594000000E+02  0.51100000000E-03 0. -1.
    9900012    2    1    2    0    0  0.50058651360E+01 -0.24325256335E+02  0.19998576850E+02  0.59301955128E+02  0.50000020245E+02 0.  0.
         12    1    1    2    0    0 -0.50058651360E+01  0.24325256335E+02 -0.19998576850E+02  0.31886044872E+02  0.00000000000E+00 0. -1.
         11    1    3    3    0    0  0.39224327087E+01 -0.16478743556E+02  0.25371967369E+01  0.17128100744E+02  0.51100000000E-03 0. -1.
        -11    1    3    3    0    0  0.19270111975E+02 -0.42542289941E+01  0.73571996635E+01  0.21060960733E+02  0.51100000000E-03 0.  1.
         12    1    3    3    0    0 -0.18186679548E+02 -0.35922837842E+01  0.10104180450E+02  0.21112893651E+02  0.00000000000E+00 0. -1.
</event>
<event>
 7    1  0.6672802E-013  0.5930198E+02  0.7816164E-02  0.1266605E+00
        -11   -1    0    0    0    0  0.00000000000E+00  0.00000000000E+00  0.45593999997E+02  0.45594000000E+02  0.51100000000E-03 0.  1.
         11   -1    0    0    0    0 -0.00000000000E+00 -0.00000000000E+00 -0.45593999997E+02  0.45594000000E+02  0.51100000000E-03 0. -1.
    9900012    2    1    2    0    0 -0.27188928489E+01  0.31503564209E+02  0.41050613021E+01  0.59301976972E+02  0.50000060083E+02 0.  0.
         12    1    1    2    0    0  0.27188928489E+01 -0.31503564209E+02 -0.41050613021E+01  0.31886023028E+02  0.00000000000E+00 0. -1.
         11    1    3    3    0    0 -0.39829325033E+01  0.74233892006E+01  0.20575776963E+02  0.22233601968E+02  0.51100000000E-03 0. -1.
        -11    1    3    3    0    0  0.53620120878E+01  0.77597119929E+01  0.42755181467E+01  0.10355885260E+02  0.51100000000E-03 0.  1.
        -12    1    3    3    0    0 -0.40979724333E+01  0.16320463016E+02 -0.20746233808E+02  0.26712489744E+02  0.00000000000E+00 0.  1.
</event>
<event>
 7    1  0.6672802E-013  0.5930197E+02  0.7816164E-02  0.1266605E+00
        -11   -1    0    0    0    0  0.00000000000E+00  0.00000000000E+00  0.45593999997E+02  0.45594000000E+02  0.51100000000E-03 0.  1.
         11   -1    0    0    0    0 -0.00000000000E+00 -0.00000000000E+00 -0.45593999997E+02  0.45594000000E+02  0.51100000000E-03 0. -1.
    9900012    2    1    2    0    0  0.13351731757E+02 -0.23425503435E+02  0.17020462266E+02  0.59301967198E+02  0.50000042257E+02 0.  0.
         12    1    1    2    0    0 -0.13351731757E+02  0.23425503435E+02 -0.17020462266E+02  0.31886032802E+02  0.00000000000E+00 0. -1.
         11    1    3    3    0    0  0.18289518650E+02 -0.10648669865E+02 -0.33092951490E+01  0.21420833247E+02  0.51100000000E-03 0. -1.
        -11    1    3    3    0    0  0.90966344080E+01 -0.97839379959E+01  0.19328742849E+02  0.23496265674E+02  0.51100000000E-03 0.  1.
         12    1    3    3    0    0 -0.14034421301E+02 -0.29928955745E+01  0.10010145659E+01  0.14384868277E+02  0.00000000000E+00 0. -1.
</event>
<event>
 7    1  0.6672802E-013  0.5930188E+02  0.7816164E-02  0.1266605E+00
        -11   -1    0    0    0    0  0.00000000000E+00  0.00000000000E+00  0.45593999997E+02  0.45594000000E+02  0.51100000000E-03 0. -1.
         11   -1    0    0    0    0 -0.00000000000E+00 -0.00000000000E+00 -0.45593999997E+02  0.45594000000E+02  0.51100000000E-03 0.  1.
    9900012    2    1    2    0    0  0.28908380158E+02  0.12052133648E+02  0.59813281353E+01  0.59301879899E+02  0.49999883045E+02 0.  0.
         12    1    1    2    0    0 -0.28908380158E+02 -0.12052133648E+02 -0.59813281353E+01  0.31886120101E+02  0.00000000000E+00 0. -1.
         11    1    3    3    0    0  0.12618436712E+02  0.20389255773E+02  0.11772170341E+02  0.26711995261E+02  0.51100000000E-03 0. -1.
        -11    1    3    3    0    0  0.21095769106E+02  0.14725247563E+01 -0.37261305113E+01  0.21472863158E+02  0.51100000000E-03 0.  1.
         12    1    3    3    0    0 -0.48058256608E+01 -0.98096468813E+01 -0.20647116948E+01  0.11117021481E+02  0.00000000000E+00 0. -1.
</event>
<event>
 7    1  0.6672802E-013  0.5930193E+02  0.7816164E-02  0.1266605E+00
        -11   -1    0    0    0    0  0.00000000000E+00  0.00000000000E+00  0.45593999997E+02  0.45594000000E+02  0.51100000000E-03 0.  1.
         11   -1    0    0    0    0 -0.00000000000E+00 -0.00000000000E+00 -0.45593999997E+02  0.45594000000E+02  0.51100000000E-03 0. -1.
    9900012    2    1    2    0    0 -0.10703941127E+02  0.21517234567E+02  0.20956039818E+02  0.59301931821E+02  0.49999977738E+02 0.  0.
         12    1    1    2    0    0  0.10703941127E+02 -0.21517234567E+02 -0.20956039818E+02  0.31886068179E+02  0.00000000000E+00 0. -1.
         11    1    3    3    0    0  0.73115385612E+00 -0.16249893986E+01 -0.65573274444E+01  0.67951247215E+01  0.51100000000E-03 0. -1.
        -11    1    3    3    0    0  0.11747778496E+02  0.63964240013E+01  0.17879447450E+02  0.22329334539E+02  0.51100000000E-03 0.  1.
         12    1    3    3    0    0 -0.23182873479E+02  0.16745799964E+02  0.96339198132E+01  0.30177472561E+02  0.00000000000E+00 0. -1.
</event>
<event>
 7    1  0.6672802E-013  0.5930195E+02  0.7816164E-02  0.1266605E+00
        -11   -1    0    0    0    0  0.00000000000E+00  0.00000000000E+00  0.45593999997E+02  0.45594000000E+02  0.51100000000E-03 0. -1.
         11   -1    0    0    0    0 -0.00000000000E+00 -0.00000000000E+00 -0.45593999997E+02  0.45594000000E+02  0.51100000000E-03 0.  1.
    9900012    2    1    2    0    0 -0.25927703885E+02 -0.18507368258E+02  0.13969434560E+01  0.59301953528E+02  0.50000017327E+02 0.  0.
         12    1    1    2    0    0  0.25927703885E+02  0.18507368258E+02 -0.13969434560E+01  0.31886046472E+02  0.00000000000E+00 0. -1.
         11    1    3    3    0    0 -0.79024531133E+01 -0.16604329145E+02 -0.53086661675E+01  0.19139865420E+02  0.51100000000E-03 0. -1.
        -11    1    3    3    0    0 -0.14761344606E+02 -0.17838199350E+02  0.20576387644E+01  0.23245053843E+02  0.51100000000E-03 0.  1.
         12    1    3    3    0    0 -0.32639061659E+01  0.15935160237E+02  0.46479708591E+01  0.16917034265E+02  0.00000000000E+00 0. -1.
</event>
<event>
 7    1  0.6672802E-013  0.5930196E+02  0.7816164E-02  0.1266605E+00
        -11   -1    0    0    0    0  0.00000000000E+00  0.00000000000E+00  0.45593999997E+02  0.45594000000E+02  0.51100000000E-03 0. -1.
         11   -1    0    0    0    0 -0.00000000000E+00 -0.00000000000E+00 -0.45593999997E+02  0.45594000000E+02  0.51100000000E-03 0.  1.
    9900012    2    1    2    0    0 -0.20978733666E+01 -0.16710002288E+02 -0.27075711233E+02  0.59301962493E+02  0.50000033676E+02 0.  0.
         12    1    1    2    0    0  0.20978733666E+01  0.16710002288E+02  0.27075711233E+02  0.31886037507E+02  0.00000000000E+00 0. -1.
         11    1    3    3    0    0  0.50483032829E+01 -0.10162721036E+02 -0.65770860625E+01  0.13115804445E+02  0.51100000000E-03 0. -1.
        -11    1    3    3    0    0  0.20155137115E+01 -0.21508969175E+02 -0.18659684596E+02  0.28546135990E+02  0.51100000000E-03 0.  1.
         12    1    3    3    0    0 -0.91616903610E+01  0.14961687923E+02 -0.18389405749E+01  0.17640022058E+02  0.00000000000E+00 0. -1.
</event>
<event>
 7    1  0.8025999E-013  0.5930193E+02  0.7816164E-02  0.1266605E+00
        -11   -1    0    0    0    0  0.00000000000E+00  0.00000000000E+00  0.45593999997E+02  0.45594000000E+02  0.51100000000E-03 0. -1.
         11   -1    0    0    0    0 -0.00000000000E+00 -0.00000000000E+00 -0.45593999997E+02  0.45594000000E+02  0.51100000000E-03 0.  1.
    9900012    2    1    2    0    0 -0.10670258935E+02 -0.17409795057E+02 -0.24490115756E+02  0.59301934714E+02  0.49999983015E+02 0.  0.
         12    1    1    2    0    0  0.10670258935E+02  0.17409795057E+02  0.24490115756E+02  0.31886065286E+02  0.00000000000E+00 0. -1.
         11    1    3    3    0    0 -0.78422082867E+01  0.50326405502E+01  0.34328386826E+01  0.99303616954E+01  0.51100000000E-03 0. -1.
        -11    1    3    3    0    0 -0.50080792210E+01 -0.30907677528E+02 -0.17876861738E+02  0.36054785722E+02  0.51100000000E-03 0.  1.
         12    1    3    3    0    0  0.21800285727E+01  0.84652419204E+01 -0.10046092701E+02  0.13316787297E+02  0.00000000000E+00 0. -1.
</event>
<event>
 7    1  0.6672802E-013  0.5930192E+02  0.7816164E-02  0.1266605E+00
        -11   -1    0    0    0    0  0.00000000000E+00  0.00000000000E+00  0.45593999997E+02  0.45594000000E+02  0.51100000000E-03 0. -1.
         11   -1    0    0    0    0 -0.00000000000E+00 -0.00000000000E+00 -0.45593999997E+02  0.45594000000E+02  0.51100000000E-03 0.  1.
    9900012    2    1    2    0    0 -0.17018264846E+02 -0.25324201787E+02 -0.92620516318E+01  0.59301919417E+02  0.49999955115E+02 0.  0.
         12    1    1    2    0    0  0.17018264846E+02  0.25324201787E+02  0.92620516318E+01  0.31886080583E+02  0.00000000000E+00 0. -1.
         11    1    3    3    0    0  0.66188758003E+01  0.18788149678E+01 -0.27295138890E+01  0.74020070842E+01  0.51100000000E-03 0. -1.
        -11    1    3    3    0    0  0.67597072938E+01 -0.60477366037E+01 -0.11377392939E+02  0.14550389379E+02  0.51100000000E-03 0.  1.
        -12    1    3    3    0    0 -0.30396847940E+02 -0.21155280152E+02  0.48448551964E+01  0.37349522954E+02  0.00000000000E+00 0.  1.
</event>
<event>
 7    1  0.6672802E-013  0.5930194E+02  0.7816164E-02  0.1266605E+00
        -11   -1    0    0    0    0  0.00000000000E+00  0.00000000000E+00  0.45593999997E+02  0.45594000000E+02  0.51100000000E-03 0.  1.
         11   -1    0    0    0    0 -0.00000000000E+00 -0.00000000000E+00 -0.45593999997E+02  0.45594000000E+02  0.51100000000E-03 0. -1.
    9900012    2    1    2    0    0 -0.29237501751E+02  0.12674896827E+02  0.11119131883E+01  0.59301939266E+02  0.49999991315E+02 0.  0.
         12    1    1    2    0    0  0.29237501751E+02 -0.12674896827E+02 -0.11119131883E+01  0.31886060734E+02  0.00000000000E+00 0. -1.
         11    1    3    3    0    0  0.34678728571E+01 -0.47932134487E+01 -0.20489154697E+01  0.62609178385E+01  0.51100000000E-03 0. -1.
        -11    1    3    3    0    0 -0.20402401496E+02 -0.84774675400E+01 -0.60116800316E+01  0.22896849996E+02  0.51100000000E-03 0.  1.
         12    1    3    3    0    0 -0.12302973113E+02  0.25945577816E+02  0.91725086896E+01  0.30144171431E+02  0.00000000000E+00 0. -1.
</event>
<event>
 7    1  0.6672802E-013  0.5930196E+02  0.7816164E-02  0.1266605E+00
        -11   -1    0    0    0    0  0.00000000000E+00  0.00000000000E+00  0.45593999997E+02  0.45594000000E+02  0.51100000000E-03 0.  1.
         11   -1    0    0    0    0 -0.00000000000E+00 -0.00000000000E+00 -0.45593999997E+02  0.45594000000E+02  0.51100000000E-03 0. -1.
    9900012    2    1    2    0    0 -0.13131288505E+02 -0.11972215240E+02  0.26475553226E+02  0.59301959259E+02  0.50000027778E+02 0.  0.
         12    1    1    2    0    0  0.13131288505E+02  0.11972215240E+02 -0.26475553226E+02  0.31886040741E+02  0.00000000000E+00 0. -1.
         11    1    3    3    0    0 -0.25760189189E+02 -0.88721398302E+01  0.80490501143E+00  0.27257110716E+02  0.51100000000E-03 0. -1.
        -11    1    3    3    0    0 -0.23252937092E+01  0.20900442007E+01  0.62664589728E+01  0.70031267241E+01  0.51100000000E-03 0.  1.
        -12    1    3    3    0    0  0.14954194394E+02 -0.51901196100E+01  0.19404189242E+02  0.25041721819E+02  0.00000000000E+00 0.  1.
</event>
<event>
 7    1  0.6672802E-013  0.5930195E+02  0.7816164E-02  0.1266605E+00
        -11   -1    0    0    0    0  0.00000000000E+00  0.00000000000E+00  0.45593999997E+02  0.45594000000E+02  0.51100000000E-03 0.  1.
         11   -1    0    0    0    0 -0.00000000000E+00 -0.00000000000E+00 -0.45593999997E+02  0.45594000000E+02  0.51100000000E-03 0. -1.
    9900012    2    1    2    0    0 -0.13007740246E+02 -0.93794837736E+01  0.27559831938E+02  0.59301947271E+02  0.50000005915E+02 0.  0.
         12    1    1    2    0    0  0.13007740246E+02  0.93794837736E+01 -0.27559831938E+02  0.31886052729E+02  0.00000000000E+00 0. -1.
         11    1    3    3    0    0 -0.44153324346E+01  0.10883952203E+02  0.23984281687E+02  0.26705829782E+02  0.51100000000E-03 0. -1.
        -11    1    3    3    0    0  0.78718937395E+01 -0.40128535773E+01 -0.13663744901E+01  0.89407317590E+01  0.51100000000E-03 0.  1.
        -12    1    3    3    0    0 -0.16464301551E+02 -0.16250582400E+02  0.49419247415E+01  0.23655385730E+02  0.00000000000E+00 0.  1.
</event>
<event>
 7    1  0.6672802E-013  0.5930194E+02  0.7816164E-02  0.1266605E+00
        -11   -1    0    0    0    0  0.00000000000E+00  0.00000000000E+00  0.45593999997E+02  0.45594000000E+02  0.51100000000E-03 0. -1.
         11   -1    0    0    0    0 -0.00000000000E+00 -0.00000000000E+00 -0.45593999997E+02  0.45594000000E+02  0.51100000000E-03 0.  1.
    9900012    2    1    2    0    0  0.26030708469E+02 -0.18114223013E+02  0.33163244554E+01  0.59301939305E+02  0.49999991387E+02 0.  0.
         12    1    1    2    0    0 -0.26030708469E+02  0.18114223013E+02 -0.33163244554E+01  0.31886060695E+02  0.00000000000E+00 0. -1.
         11    1    3    3    0    0  0.18921895299E+02 -0.14127024863E+02  0.16921533378E+02  0.29050804556E+02  0.51100000000E-03 0. -1.
        -11    1    3    3    0    0  0.81178855580E+01 -0.25127423648E+00  0.61076575925E+01  0.10162021758E+02  0.51100000000E-03 0.  1.
        -12    1    3    3    0    0 -0.10090723887E+01 -0.37359239133E+01 -0.19712866515E+02  0.20089112992E+02  0.00000000000E+00 0.  1.
</event>
<event>
 7    1  0.6672802E-013  0.5930197E+02  0.7816164E-02  0.1266605E+00
        -11   -1    0    0    0    0  0.00000000000E+00  0.00000000000E+00  0.45593999997E+02  0.45594000000E+02  0.51100000000E-03 0.  1.
         11   -1    0    0    0    0 -0.00000000000E+00 -0.00000000000E+00 -0.45593999997E+02  0.45594000000E+02  0.51100000000E-03 0. -1.
    9900012    2    1    2    0    0 -0.60641549973E+01 -0.29899479253E+02  0.92717749565E+01  0.59301974122E+02  0.50000054885E+02 0.  0.
         12    1    1    2    0    0  0.60641549973E+01  0.29899479253E+02 -0.92717749565E+01  0.31886025878E+02  0.00000000000E+00 0. -1.
         11    1    3    3    0    0 -0.18674876976E+01  0.18457553331E+01 -0.31529854467E+01  0.41031257035E+01  0.51100000000E-03 0. -1.
        -11    1    3    3    0    0  0.20065041124E+01  0.10676222628E+02  0.15952204896E+01  0.10979641025E+02  0.51100000000E-03 0.  1.
         12    1    3    3    0    0 -0.62031714121E+01 -0.42421457215E+02  0.10829539914E+02  0.44219207394E+02  0.00000000000E+00 0. -1.
</event>
<event>
 7    1  0.6672802E-013  0.5930198E+02  0.7816164E-02  0.1266605E+00
        -11   -1    0    0    0    0  0.00000000000E+00  0.00000000000E+00  0.45593999997E+02  0.45594000000E+02  0.51100000000E-03 0. -1.
         11   -1    0    0    0    0 -0.00000000000E+00 -0.00000000000E+00 -0.45593999997E+02  0.45594000000E+02  0.51100000000E-03 0.  1.
    9900012    2    1    2    0    0 -0.27230739882E+02  0.13958120004E+02  0.89652721878E+01  0.59301977765E+02  0.50000061529E+02 0.  0.
         12    1    1    2    0    0  0.27230739882E+02 -0.13958120004E+02 -0.89652721878E+01  0.31886022235E+02  0.00000000000E+00 0. -1.
         11    1    3    3    0    0  0.70205854525E+01  0.22390472219E+01  0.20989952698E+01  0.76620972299E+01  0.51100000000E-03 0. -1.
        -11    1    3    3    0    0 -0.14321192944E+02 -0.12683519471E+02  0.62547706555E+01  0.20126857423E+02  0.51100000000E-03 0.  1.
         12    1    3    3    0    0 -0.19930132391E+02  0.24402592253E+02  0.61150626250E+00  0.31513023112E+02  0.00000000000E+00 0. -1.
</event>
<event>
 7    1  0.6672802E-013  0.5930197E+02  0.7816164E-02  0.1266605E+00
        -11   -1    0    0    0    0  0.00000000000E+00  0.00000000000E+00  0.45593999997E+02  0.45594000000E+02  0.51100000000E-03 0.  1.
         11   -1    0    0    0    0 -0.00000000000E+00 -0.00000000000E+00 -0.45593999997E+02  0.45594000000E+02  0.51100000000E-03 0. -1.
    9900012    2    1    2    0    0 -0.24049825571E+02  0.19611855695E+02  0.73280332336E+01  0.59301967559E+02  0.50000042915E+02 0.  0.
         12    1    1    2    0    0  0.24049825571E+02 -0.19611855695E+02 -0.73280332336E+01  0.31886032441E+02  0.00000000000E+00 0. -1.
         11    1    3    3    0    0 -0.21967299149E+02  0.32623250956E+02  0.51452820906E+01  0.39665005520E+02  0.51100000000E-03 0. -1.
        -11    1    3    3    0    0 -0.34946426629E+01  0.49023969974E-01 -0.38341489621E+01  0.51880274880E+01  0.51100000000E-03 0.  1.
        -12    1    3    3    0    0  0.14121162406E+01 -0.13060419231E+02  0.60169001052E+01  0.14448934551E+02  0.00000000000E+00 0.  1.
</event>
<event>
 7    1  0.6672802E-013  0.5930194E+02  0.7816164E-02  0.1266605E+00
        -11   -1    0    0    0    0  0.00000000000E+00  0.00000000000E+00  0.45593999997E+02  0.45594000000E+02  0.51100000000E-03 0.  1.
         11   -1    0    0    0    0 -0.00000000000E+00 -0.00000000000E+00 -0.45593999997E+02  0.45594000000E+02  0.51100000000E-03 0. -1.
    9900012    2    1    2    0    0  0.10209882021E+01 -0.53921139609E+01  0.31410244945E+02  0.59301940391E+02  0.49999993368E+02 0.  0.
         12    1    1    2    0    0 -0.10209882021E+01  0.53921139609E+01 -0.31410244945E+02  0.31886059609E+02  0.00000000000E+00 0. -1.
         11    1    3    3    0    0 -0.89882187656E+01 -0.14198591040E+01 -0.74412310528E+01  0.11754828637E+02  0.51100000000E-03 0. -1.
        -11    1    3    3    0    0  0.85672886016E+01 -0.13066693271E+02  0.13762310036E+02  0.20821577385E+02  0.51100000000E-03 0.  1.
        -12    1    3    3    0    0  0.14419183660E+01  0.90944384143E+01  0.25089165962E+02  0.26725534369E+02  0.00000000000E+00 0.  1.
</event>
<event>
 7    1  0.6672802E-013  0.5930194E+02  0.7816164E-02  0.1266605E+00
        -11   -1    0    0    0    0  0.00000000000E+00  0.00000000000E+00  0.45593999997E+02  0.45594000000E+02  0.51100000000E-03 0. -1.
         11   -1    0    0    0    0 -0.00000000000E+00 -0.00000000000E+00 -0.45593999997E+02  0.45594000000E+02  0.51100000000E-03 0.  1.
    9900012    2    1    2    0    0  0.34580802381E+01  0.90132336881E+01 -0.30389538393E+02  0.59301941226E+02  0.49999994889E+02 0.  0.
         12    1    1    2    0    0 -0.34580802381E+01 -0.90132336881E+01  0.30389538393E+02  0.31886058774E+02  0.00000000000E+00 0. -1.
         11    1    3    3    0    0 -0.10864271967E+02  0.96340335316E+01 -0.13698874613E+02  0.19962619402E+02  0.51100000000E-03 0.  1.
        -11    1    3    3    0    0 -0.22151750246E+01  0.79363491617E+01  0.58479415842E+01  0.10104012047E+02  0.51100000000E-03 0. -1.
         12    1    3    3    0    0  0.16537527230E+02 -0.85571490052E+01 -0.22538605364E+02  0.29235309777E+02  0.00000000000E+00 0. -1.
</event>
<event>
 7    1  0.6672802E-013  0.5930194E+02  0.7816164E-02  0.1266605E+00
        -11   -1    0    0    0    0  0.00000000000E+00  0.00000000000E+00  0.45593999997E+02  0.45594000000E+02  0.51100000000E-03 0. -1.
         11   -1    0    0    0    0 -0.00000000000E+00 -0.00000000000E+00 -0.45593999997E+02  0.45594000000E+02  0.51100000000E-03 0.  1.
    9900012    2    1    2    0    0 -0.22216994931E+02 -0.54578866514E+01 -0.22211193658E+02  0.59301944832E+02  0.50000001467E+02 0.  0.
         12    1    1    2    0    0  0.22216994931E+02  0.54578866514E+01  0.22211193658E+02  0.31886055168E+02  0.00000000000E+00 0. -1.
         11    1    3    3    0    0  0.14675473989E+01 -0.10253651506E+02  0.21766723348E+01  0.10584373732E+02  0.51100000000E-03 0. -1.
        -11    1    3    3    0    0 -0.58663894206E+01 -0.81231520070E+01  0.56319231136E+01  0.11494289086E+02  0.51100000000E-03 0.  1.
        -12    1    3    3    0    0 -0.17818152909E+02  0.12918916862E+02 -0.30019789107E+02  0.37223282015E+02  0.00000000000E+00 0.  1.
</event>
<event>
 7    1  0.6672802E-013  0.5930195E+02  0.7816164E-02  0.1266605E+00
        -11   -1    0    0    0    0  0.00000000000E+00  0.00000000000E+00  0.45593999997E+02  0.45594000000E+02  0.51100000000E-03 0.  1.
         11   -1    0    0    0    0 -0.00000000000E+00 -0.00000000000E+00 -0.45593999997E+02  0.45594000000E+02  0.51100000000E-03 0. -1.
    9900012    2    1    2    0    0 -0.15892989602E+02 -0.42327710793E+01  0.27316970340E+02  0.59301947594E+02  0.50000006503E+02 0.  0.
         12    1    1    2    0    0  0.15892989602E+02  0.42327710793E+01 -0.27316970340E+02  0.31886052406E+02  0.00000000000E+00 0. -1.
         11    1    3    3    0    0  0.64222693582E+01 -0.10509249858E+02  0.11345781868E+02  0.16745645486E+02  0.51100000000E-03 0. -1.
        -11    1    3    3    0    0 -0.55625156579E+01  0.13029237347E+02  0.19549239827E+02  0.24142812272E+02  0.51100000000E-03 0.  1.
        -12    1    3    3    0    0 -0.16752743302E+02 -0.67527585684E+01 -0.35780513554E+01  0.18413489836E+02  0.00000000000E+00 0.  1.
</event>
<event>
 7    1  0.6672802E-013  0.5930197E+02  0.7816164E-02  0.1266605E+00
        -11   -1    0    0    0    0  0.00000000000E+00  0.00000000000E+00  0.45593999997E+02  0.45594000000E+02  0.51100000000E-03 0. -1.
         11   -1    0    0    0    0 -0.00000000000E+00 -0.00000000000E+00 -0.45593999997E+02  0.45594000000E+02  0.51100000000E-03 0.  1.
    9900012    2    1    2    0    0 -0.20568873348E+02 -0.11113519511E+02 -0.21682487196E+02  0.59301966729E+02  0.50000041402E+02 0.  0.
         12    1    1    2    0    0  0.20568873348E+02  0.11113519511E+02  0.21682487196E+02  0.31886033271E+02  0.00000000000E+00 0. -1.
         11    1    3    3    0    0 -0.29751107860E+02 -0.65467185616E+01 -0.17033441496E+02  0.34901662887E+02  0.51100000000E-03 0. -1.
        -11    1    3    3    0    0 -0.66039876969E+01 -0.12169607976E+01 -0.48127747016E+01  0.82617460427E+01  0.51100000000E-03 0.  1.
         12    1    3    3    0    0  0.15786222209E+02 -0.33498401517E+01  0.16372900095E+00  0.16138557800E+02  0.00000000000E+00 0. -1.
</event>
<event>
 7    1  0.6672802E-013  0.5930196E+02  0.7816164E-02  0.1266605E+00
        -11   -1    0    0    0    0  0.00000000000E+00  0.00000000000E+00  0.45593999997E+02  0.45594000000E+02  0.51100000000E-03 0. -1.
         11   -1    0    0    0    0 -0.00000000000E+00 -0.00000000000E+00 -0.45593999997E+02  0.45594000000E+02  0.51100000000E-03 0.  1.
    9900012    2    1    2    0    0  0.18513791312E+02 -0.14321658295E+02  0.21652926764E+02  0.59301959128E+02  0.50000027539E+02 0.  0.
         12    1    1    2    0    0 -0.18513791312E+02  0.14321658295E+02 -0.21652926764E+02  0.31886040872E+02  0.00000000000E+00 0. -1.
         11    1    3    3    0    0 -0.49548693500E+01  0.71718876457E+01  0.16600069042E+02  0.18749639867E+02  0.51100000000E-03 0. -1.
        -11    1    3    3    0    0  0.16932776910E+02  0.70482453411E+00  0.42050512583E+00  0.16952655731E+02  0.51100000000E-03 0.  1.
        -12    1    3    3    0    0  0.65358837520E+01 -0.22198370475E+02  0.46323525960E+01  0.23599663530E+02  0.00000000000E+00 0.  1.
</event>
<event>
 7    1  0.6672802E-013  0.5930194E+02  0.7816164E-02  0.1266605E+00
        -11   -1    0    0    0    0  0.00000000000E+00  0.00000000000E+00  0.45593999997E+02  0.45594000000E+02  0.51100000000E-03 0.  1.
         11   -1    0    0    0    0 -0.00000000000E+00 -0.00000000000E+00 -0.45593999997E+02  0.45594000000E+02  0.51100000000E-03 0. -1.
    9900012    2    1    2    0    0 -0.19647287098E+01  0.23071880418E+02  0.21921422517E+02  0.59301943641E+02  0.49999999295E+02 0.  0.
         12    1    1    2    0    0  0.19647287098E+01 -0.23071880418E+02 -0.21921422517E+02  0.31886056359E+02  0.00000000000E+00 0. -1.
         11    1    3    3    0    0 -0.18550055676E+02  0.18604048761E+02  0.43404823970E+01  0.26628086368E+02  0.51100000000E-03 0. -1.
        -11    1    3    3    0    0 -0.16993413552E+00  0.86354724731E+00  0.15367834904E+02  0.15393015992E+02  0.51100000000E-03 0.  1.
        -12    1    3    3    0    0  0.16755261102E+02  0.36042844095E+01  0.22131052167E+01  0.17280841281E+02  0.00000000000E+00 0.  1.
</event>
<event>
 7    1  0.6672802E-013  0.5930204E+02  0.7816164E-02  0.1266604E+00
        -11   -1    0    0    0    0  0.00000000000E+00  0.00000000000E+00  0.45593999997E+02  0.45594000000E+02  0.51100000000E-03 0.  1.
         11   -1    0    0    0    0 -0.00000000000E+00 -0.00000000000E+00 -0.45593999997E+02  0.45594000000E+02  0.51100000000E-03 0. -1.
    9900012    2    1    2    0    0 -0.15167819254E+02  0.27839738504E+02 -0.34059985682E+01  0.59302037459E+02  0.50000170396E+02 0.  0.
         12    1    1    2    0    0  0.15167819254E+02 -0.27839738504E+02  0.34059985682E+01  0.31885962541E+02  0.00000000000E+00 0. -1.
         11    1    3    3    0    0  0.30592281175E+01  0.22989583224E+01 -0.74527622030E+01  0.83778130057E+01  0.51100000000E-03 0. -1.
        -11    1    3    3    0    0  0.99473923529E+01 -0.51137923442E+00 -0.55041480766E+01  0.11380148051E+02  0.51100000000E-03 0.  1.
        -12    1    3    3    0    0 -0.28174439725E+02  0.26052159416E+02  0.95509117115E+01  0.39544076403E+02  0.00000000000E+00 0.  1.
</event>
<event>
 7    1  0.6672802E-013  0.5930194E+02  0.7816164E-02  0.1266605E+00
        -11   -1    0    0    0    0  0.00000000000E+00  0.00000000000E+00  0.45593999997E+02  0.45594000000E+02  0.51100000000E-03 0.  1.
         11   -1    0    0    0    0 -0.00000000000E+00 -0.00000000000E+00 -0.45593999997E+02  0.45594000000E+02  0.51100000000E-03 0. -1.
    9900012    2    1    2    0    0  0.40842868663E+01  0.22518188911E+02  0.22202937634E+02  0.59301942378E+02  0.49999996992E+02 0.  0.
         12    1    1    2    0    0 -0.40842868663E+01 -0.22518188911E+02 -0.22202937634E+02  0.31886057622E+02  0.00000000000E+00 0. -1.
         11    1    3    3    0    0 -0.77423134271E+01  0.25366863609E+02  0.95519816425E+01  0.28189741753E+02  0.51100000000E-03 0. -1.
        -11    1    3    3    0    0 -0.26408985065E+01  0.28356810120E+01 -0.58068736514E+01  0.69810610646E+01  0.51100000000E-03 0.  1.
        -12    1    3    3    0    0  0.14467498800E+02 -0.56843557092E+01  0.18457829643E+02  0.24131139561E+02  0.00000000000E+00 0.  1.
</event>
<event>
 7    1  0.6672802E-013  0.5930190E+02  0.7816164E-02  0.1266605E+00
        -11   -1    0    0    0    0  0.00000000000E+00  0.00000000000E+00  0.45593999997E+02  0.45594000000E+02  0.51100000000E-03 0. -1.
         11   -1    0    0    0    0 -0.00000000000E+00 -0.00000000000E+00 -0.45593999997E+02  0.45594000000E+02  0.51100000000E-03 0.  1.
    9900012    2    1    2    0    0  0.24218553810E+02  0.14947361611E+02 -0.14379209168E+02  0.59301896066E+02  0.49999912530E+02 0.  0.
         12    1    1    2    0    0 -0.24218553810E+02 -0.14947361611E+02  0.14379209168E+02  0.31886103934E+02  0.00000000000E+00 0. -1.
         11    1    3    3    0    0  0.11007901671E+02  0.18477253753E+02  0.52473320599E+01  0.22138592987E+02  0.51100000000E-03 0. -1.
        -11    1    3    3    0    0 -0.29953166459E+01  0.76574321596E+01 -0.14732783970E+02  0.16871962330E+02  0.51100000000E-03 0.  1.
         12    1    3    3    0    0  0.16205968786E+02 -0.11187324302E+02 -0.48937572577E+01  0.20291340749E+02  0.00000000000E+00 0. -1.
</event>
<event>
 7    1  0.6672802E-013  0.5930196E+02  0.7816164E-02  0.1266605E+00
        -11   -1    0    0    0    0  0.00000000000E+00  0.00000000000E+00  0.45593999997E+02  0.45594000000E+02  0.51100000000E-03 0.  1.
         11   -1    0    0    0    0 -0.00000000000E+00 -0.00000000000E+00 -0.45593999997E+02  0.45594000000E+02  0.51100000000E-03 0. -1.
    9900012    2    1    2    0    0  0.20397507601E+02  0.15992374450E+02  0.18571617114E+02  0.59301963571E+02  0.50000035643E+02 0.  0.
         12    1    1    2    0    0 -0.20397507601E+02 -0.15992374450E+02 -0.18571617114E+02  0.31886036429E+02  0.00000000000E+00 0. -1.
         11    1    3    3    0    0  0.10546983140E+02  0.66355984366E+01 -0.20887326253E+01  0.12634588407E+02  0.51100000000E-03 0. -1.
        -11    1    3    3    0    0  0.47534976027E+01  0.15665045388E+02  0.30074691518E+02  0.34241443553E+02  0.51100000000E-03 0.  1.
         12    1    3    3    0    0  0.50970268585E+01 -0.63082693742E+01 -0.94143417784E+01  0.12425931611E+02  0.00000000000E+00 0. -1.
</event>
<event>
 7    1  0.6672802E-013  0.5930198E+02  0.7816164E-02  0.1266605E+00
        -11   -1    0    0    0    0  0.00000000000E+00  0.00000000000E+00  0.45593999997E+02  0.45594000000E+02  0.51100000000E-03 0.  1.
         11   -1    0    0    0    0 -0.00000000000E+00 -0.00000000000E+00 -0.45593999997E+02  0.45594000000E+02  0.51100000000E-03 0. -1.
    9900012    2    1    2    0    0  0.15163541873E+02 -0.26232106575E+02  0.99328524804E+01  0.59301984635E+02  0.50000074057E+02 0.  0.
         12    1    1    2    0    0 -0.15163541873E+02  0.26232106575E+02 -0.99328524804E+01  0.31886015365E+02  0.00000000000E+00 0. -1.
         11    1    3    3    0    0  0.11077259071E+02  0.51289929484E+00  0.10449359329E+02  0.15236726842E+02  0.51100000000E-03 0. -1.
        -11    1    3    3    0    0  0.15932142995E+02 -0.25026640520E+02  0.62449386633E+01  0.30317736975E+02  0.51100000000E-03 0.  1.
        -12    1    3    3    0    0 -0.11845860194E+02 -0.17183653497E+01 -0.67614455118E+01  0.13747520817E+02  0.00000000000E+00 0.  1.
</event>
<event>
 7    1  0.6672802E-013  0.5930164E+02  0.7816164E-02  0.1266606E+00
        -11   -1    0    0    0    0  0.00000000000E+00  0.00000000000E+00  0.45593999997E+02  0.45594000000E+02  0.51100000000E-03 0. -1.
         11   -1    0    0    0    0 -0.00000000000E+00 -0.00000000000E+00 -0.45593999997E+02  0.45594000000E+02  0.51100000000E-03 0.  1.
    9900012    2    1    2    0    0  0.29723155955E+02 -0.11241198280E+02 -0.26286161409E+01  0.59301636747E+02  0.49999439591E+02 0.  0.
         12    1    1    2    0    0 -0.29723155955E+02  0.11241198280E+02  0.26286161409E+01  0.31886363253E+02  0.00000000000E+00 0. -1.
         11    1    3    3    0    0 -0.11075470947E+01 -0.55380943270E+01 -0.16342474318E+02  0.17290853548E+02  0.51100000000E-03 0. -1.
        -11    1    3    3    0    0  0.42893845143E+01 -0.51080430217E+01 -0.59778712440E+01  0.89568894095E+01  0.51100000000E-03 0.  1.
        -12    1    3    3    0    0  0.26541318535E+02 -0.59506093142E+00  0.19691729421E+02  0.33053893790E+02  0.00000000000E+00 0.  1.
</event>
<event>
 7    1  0.6672802E-013  0.5930194E+02  0.7816164E-02  0.1266605E+00
        -11   -1    0    0    0    0  0.00000000000E+00  0.00000000000E+00  0.45593999997E+02  0.45594000000E+02  0.51100000000E-03 0.  1.
         11   -1    0    0    0    0 -0.00000000000E+00 -0.00000000000E+00 -0.45593999997E+02  0.45594000000E+02  0.51100000000E-03 0. -1.
    9900012    2    1    2    0    0 -0.31482526557E+01  0.27170310978E+02  0.16388523624E+02  0.59301937214E+02  0.49999987573E+02 0.  0.
         12    1    1    2    0    0  0.31482526557E+01 -0.27170310978E+02 -0.16388523624E+02  0.31886062786E+02  0.00000000000E+00 0. -1.
         11    1    3    3    0    0  0.36949452033E+01  0.21597128862E+02 -0.25926130250E+01  0.22063776596E+02  0.51100000000E-03 0. -1.
        -11    1    3    3    0    0 -0.54665498493E+01 -0.74141158335E+01 -0.45892245335E+01  0.10291416954E+02  0.51100000000E-03 0.  1.
         12    1    3    3    0    0 -0.13766480097E+01  0.12987297950E+02  0.23570361183E+02  0.26946743663E+02  0.00000000000E+00 0. -1.
</event>
<event>
 7    1  0.6672802E-013  0.5930194E+02  0.7816164E-02  0.1266605E+00
        -11   -1    0    0    0    0  0.00000000000E+00  0.00000000000E+00  0.45593999997E+02  0.45594000000E+02  0.51100000000E-03 0. -1.
         11   -1    0    0    0    0 -0.00000000000E+00 -0.00000000000E+00 -0.45593999997E+02  0.45594000000E+02  0.51100000000E-03 0.  1.
    9900012    2    1    2    0    0  0.29763768025E+02  0.76326715840E+01  0.85194584689E+01  0.59301941367E+02  0.49999995147E+02 0.  0.
         12    1    1    2    0    0 -0.29763768025E+02 -0.76326715840E+01 -0.85194584689E+01  0.31886058633E+02  0.00000000000E+00 0. -1.
         11    1    3    3    0    0 -0.75880386470E+01  0.79084217165E+01  0.85988930890E+00  0.10993674292E+02  0.51100000000E-03 0. -1.
        -11    1    3    3    0    0  0.11093725489E+02  0.13896557244E+02  0.15359738665E+01  0.17847808393E+02  0.51100000000E-03 0.  1.
        -12    1    3    3    0    0  0.26258081183E+02 -0.14172307376E+02  0.61235952935E+01  0.30460458681E+02  0.00000000000E+00 0.  1.
</event>
<event>
 7    1  0.6672802E-013  0.5930194E+02  0.7816164E-02  0.1266605E+00
        -11   -1    0    0    0    0  0.00000000000E+00  0.00000000000E+00  0.45593999997E+02  0.45594000000E+02  0.51100000000E-03 0.  1.
         11   -1    0    0    0    0 -0.00000000000E+00 -0.00000000000E+00 -0.45593999997E+02  0.45594000000E+02  0.51100000000E-03 0. -1.
    9900012    2    1    2    0    0 -0.18789338918E+02  0.20859187900E+02  0.15118727669E+02  0.59301938732E+02  0.49999990343E+02 0.  0.
         12    1    1    2    0    0  0.18789338918E+02 -0.20859187900E+02 -0.15118727669E+02  0.31886061268E+02  0.00000000000E+00 0. -1.
         11    1    3    3    0    0 -0.39767518591E+01 -0.10861197578E+02  0.74163620976E+01  0.13739817873E+02  0.51100000000E-03 0. -1.
        -11    1    3    3    0    0 -0.10033212740E+02  0.17293188063E+02  0.18243945180E+02  0.27065868678E+02  0.51100000000E-03 0.  1.
        -12    1    3    3    0    0 -0.47793743185E+01  0.14427197414E+02 -0.10541579608E+02  0.18496252181E+02  0.00000000000E+00 0.  1.
</event>
<event>
 7    1  0.6672802E-013  0.5930195E+02  0.7816164E-02  0.1266605E+00
        -11   -1    0    0    0    0  0.00000000000E+00  0.00000000000E+00  0.45593999997E+02  0.45594000000E+02  0.51100000000E-03 0.  1.
         11   -1    0    0    0    0 -0.00000000000E+00 -0.00000000000E+00 -0.45593999997E+02  0.45594000000E+02  0.51100000000E-03 0. -1.
    9900012    2    1    2    0    0 -0.19744711168E+02  0.75705402273E+01  0.23865315511E+02  0.59301953163E+02  0.50000016661E+02 0.  0.
         12    1    1    2    0    0  0.19744711168E+02 -0.75705402273E+01 -0.23865315511E+02  0.31886046837E+02  0.00000000000E+00 0. -1.
         11    1    3    3    0    0  0.10238004962E+02  0.86588500762E+01  0.60987104857E+01  0.14730468427E+02  0.51100000000E-03 0. -1.
        -11    1    3    3    0    0 -0.18302363161E+02 -0.59273431766E+01  0.23766451945E+02  0.30577019684E+02  0.51100000000E-03 0.  1.
        -12    1    3    3    0    0 -0.11680352969E+02  0.48390333277E+01 -0.59998469199E+01  0.13994465052E+02  0.00000000000E+00 0.  1.
</event>
<event>
 7    1  0.6672802E-013  0.5930199E+02  0.7816164E-02  0.1266605E+00
        -11   -1    0    0    0    0  0.00000000000E+00  0.00000000000E+00  0.45593999997E+02  0.45594000000E+02  0.51100000000E-03 0.  1.
         11   -1    0    0    0    0 -0.00000000000E+00 -0.00000000000E+00 -0.45593999997E+02  0.45594000000E+02  0.51100000000E-03 0. -1.
    9900012    2    1    2    0    0 -0.22119585833E+02 -0.90444875856E+00  0.22948280541E+02  0.59301989200E+02  0.50000082383E+02 0.  0.
         12    1    1    2    0    0  0.22119585833E+02  0.90444875856E+00 -0.22948280541E+02  0.31886010800E+02  0.00000000000E+00 0. -1.
         11    1    3    3    0    0  0.43322363796E+01 -0.19210025194E+02  0.76190926113E+01  0.21115016280E+02  0.51100000000E-03 0. -1.
        -11    1    3    3    0    0 -0.15343293975E+02  0.25198878751E+01  0.84406008747E+01  0.17692095645E+02  0.51100000000E-03 0.  1.
        -12    1    3    3    0    0 -0.11108528238E+02  0.15785688560E+02  0.68885870546E+01  0.20494877276E+02  0.00000000000E+00 0.  1.
</event>
<event>
 7    1  0.6672802E-013  0.5930194E+02  0.7816164E-02  0.1266605E+00
        -11   -1    0    0    0    0  0.00000000000E+00  0.00000000000E+00  0.45593999997E+02  0.45594000000E+02  0.51100000000E-03 0.  1.
         11   -1    0    0    0    0 -0.00000000000E+00 -0.00000000000E+00 -0.45593999997E+02  0.45594000000E+02  0.51100000000E-03 0. -1.
    9900012    2    1    2    0    0  0.25023428769E+01 -0.63313270879E+01  0.31150821643E+02  0.59301935464E+02  0.49999984381E+02 0.  0.
         12    1    1    2    0    0 -0.25023428769E+01  0.63313270879E+01 -0.31150821643E+02  0.31886064536E+02  0.00000000000E+00 0. -1.
         11    1    3    3    0    0 -0.42812727053E+01 -0.19320701004E+02  0.20696426522E+02  0.28634958605E+02  0.51100000000E-03 0. -1.
        -11    1    3    3    0    0  0.11056916724E+02  0.23001879855E+01  0.14576355656E+02  0.18439534069E+02  0.51100000000E-03 0.  1.
         12    1    3    3    0    0 -0.42733011422E+01  0.10689185931E+02 -0.41219605348E+01  0.12227442789E+02  0.00000000000E+00 0. -1.
</event>
<event>
 7    1  0.6672802E-013  0.5930187E+02  0.7816164E-02  0.1266605E+00
        -11   -1    0    0    0    0  0.00000000000E+00  0.00000000000E+00  0.45593999997E+02  0.45594000000E+02  0.51100000000E-03 0. -1.
         11   -1    0    0    0    0 -0.00000000000E+00 -0.00000000000E+00 -0.45593999997E+02  0.45594000000E+02  0.51100000000E-03 0.  1.
    9900012    2    1    2    0    0 -0.69253667854E+01 -0.31004624605E+02  0.27345939865E+01  0.59301867335E+02  0.49999860132E+02 0.  0.
         12    1    1    2    0    0  0.69253667854E+01  0.31004624605E+02 -0.27345939865E+01  0.31886132665E+02  0.00000000000E+00 0. -1.
         11    1    3    3    0    0 -0.41495613999E+01  0.56770066227E+01  0.52511226927E+01  0.87761924433E+01  0.51100000000E-03 0. -1.
        -11    1    3    3    0    0 -0.18389366124E+02 -0.24412097320E+02 -0.51808012244E+00  0.30567755712E+02  0.51100000000E-03 0.  1.
        -12    1    3    3    0    0  0.15613560739E+02 -0.12269533908E+02 -0.19984485837E+01  0.19957919180E+02  0.00000000000E+00 0.  1.
</event>
<event>
 7    1  0.6672802E-013  0.5930200E+02  0.7816164E-02  0.1266605E+00
        -11   -1    0    0    0    0  0.00000000000E+00  0.00000000000E+00  0.45593999997E+02  0.45594000000E+02  0.51100000000E-03 0.  1.
         11   -1    0    0    0    0 -0.00000000000E+00 -0.00000000000E+00 -0.45593999997E+02  0.45594000000E+02  0.51100000000E-03 0. -1.
    9900012    2    1    2    0    0  0.51337615992E+01  0.92552634707E+01  0.30078257678E+02  0.59302000015E+02  0.50000102108E+02 0.  0.
         12    1    1    2    0    0 -0.51337615992E+01 -0.92552634707E+01 -0.30078257678E+02  0.31885999985E+02  0.00000000000E+00 0. -1.
         11    1    3    3    0    0  0.51663527031E+01  0.59005190538E+01  0.63009961206E+01  0.10060312010E+02  0.51100000000E-03 0. -1.
        -11    1    3    3    0    0  0.10508019447E+02  0.17327723315E+02  0.69904758526E+00  0.20277010030E+02  0.51100000000E-03 0.  1.
         12    1    3    3    0    0 -0.10540610551E+02 -0.13972978898E+02  0.23078213972E+02  0.28964677976E+02  0.00000000000E+00 0. -1.
</event>
<event>
 7    1  0.6672802E-013  0.5930191E+02  0.7816164E-02  0.1266605E+00
        -11   -1    0    0    0    0  0.00000000000E+00  0.00000000000E+00  0.45593999997E+02  0.45594000000E+02  0.51100000000E-03 0. -1.
         11   -1    0    0    0    0 -0.00000000000E+00 -0.00000000000E+00 -0.45593999997E+02  0.45594000000E+02  0.51100000000E-03 0.  1.
    9900012    2    1    2    0    0  0.21948693215E+02 -0.20673138661E+02 -0.10372985133E+02  0.59301911866E+02  0.49999941344E+02 0.  0.
         12    1    1    2    0    0 -0.21948693215E+02  0.20673138661E+02  0.10372985133E+02  0.31886088134E+02  0.00000000000E+00 0. -1.
         11    1    3    3    0    0  0.64518979870E-01  0.35216397834E+01 -0.68721905996E+01  0.77222479474E+01  0.51100000000E-03 0. -1.
        -11    1    3    3    0    0 -0.19205935371E+01  0.81005611377E+01 -0.75714037751E+01  0.11253174026E+02  0.51100000000E-03 0.  1.
         12    1    3    3    0    0  0.23804767772E+02 -0.32295339582E+02  0.40706092418E+01  0.40326489892E+02  0.00000000000E+00 0. -1.
</event>
<event>
 7    1  0.6672802E-013  0.5930195E+02  0.7816164E-02  0.1266605E+00
        -11   -1    0    0    0    0  0.00000000000E+00  0.00000000000E+00  0.45593999997E+02  0.45594000000E+02  0.51100000000E-03 0.  1.
         11   -1    0    0    0    0 -0.00000000000E+00 -0.00000000000E+00 -0.45593999997E+02  0.45594000000E+02  0.51100000000E-03 0. -1.
    9900012    2    1    2    0    0  0.18010483043E+02  0.10691746345E+02  0.24042238301E+02  0.59301950356E+02  0.50000011542E+02 0.  0.
         12    1    1    2    0    0 -0.18010483043E+02 -0.10691746345E+02 -0.24042238301E+02  0.31886049644E+02  0.00000000000E+00 0. -1.
         11    1    3    3    0    0  0.14980707641E+02  0.74473866483E+01 -0.41748173380E+01  0.17242803408E+02  0.51100000000E-03 0. -1.
        -11    1    3    3    0    0  0.29739823485E+01  0.16755954689E+02  0.19936120759E+02  0.26211743546E+02  0.51100000000E-03 0.  1.
        -12    1    3    3    0    0  0.55793053813E-01 -0.13511594992E+02  0.82809348798E+01  0.15847403402E+02  0.00000000000E+00 0.  1.
</event>
<event>
 7    1  0.6672802E-013  0.5930194E+02  0.7816164E-02  0.1266605E+00
        -11   -1    0    0    0    0  0.00000000000E+00  0.00000000000E+00  0.45593999997E+02  0.45594000000E+02  0.51100000000E-03 0.  1.
         11   -1    0    0    0    0 -0.00000000000E+00 -0.00000000000E+00 -0.45593999997E+02  0.45594000000E+02  0.51100000000E-03 0. -1.
    9900012    2    1    2    0    0 -0.23724053576E+02  0.16917339716E+02  0.12949666930E+02  0.59301937610E+02  0.49999988295E+02 0.  0.
         12    1    1    2    0    0  0.23724053576E+02 -0.16917339716E+02 -0.12949666930E+02  0.31886062390E+02  0.00000000000E+00 0. -1.
         11    1    3    3    0    0  0.17175280690E+01 -0.39493352525E+01  0.15276782246E+01  0.45695681003E+01  0.51100000000E-03 0. -1.
        -11    1    3    3    0    0 -0.16722139497E+02  0.83055152411E+01  0.27049981933E+02  0.32868116095E+02  0.51100000000E-03 0.  1.
         12    1    3    3    0    0 -0.87194421486E+01  0.12561159727E+02 -0.15627993227E+02  0.21864253415E+02  0.00000000000E+00 0. -1.
</event>
<event>
 7    1  0.6672802E-013  0.5930188E+02  0.7816164E-02  0.1266605E+00
        -11   -1    0    0    0    0  0.00000000000E+00  0.00000000000E+00  0.45593999997E+02  0.45594000000E+02  0.51100000000E-03 0.  1.
         11   -1    0    0    0    0 -0.00000000000E+00 -0.00000000000E+00 -0.45593999997E+02  0.45594000000E+02  0.51100000000E-03 0. -1.
    9900012    2    1    2    0    0 -0.71685414982E+01  0.13201404093E+02  0.28125783195E+02  0.59301878605E+02  0.49999880685E+02 0.  0.
         12    1    1    2    0    0  0.71685414982E+01 -0.13201404093E+02 -0.28125783195E+02  0.31886121395E+02  0.00000000000E+00 0. -1.
         11    1    3    3    0    0  0.72530307272E+01  0.47501971378E+01  0.30036149070E+02  0.31262454779E+02  0.51100000000E-03 0. -1.
        -11    1    3    3    0    0 -0.80090146786E+01 -0.54861566910E+01  0.53301512814E+01  0.11074869945E+02  0.51100000000E-03 0.  1.
         12    1    3    3    0    0 -0.64125575467E+01  0.13937363646E+02 -0.72405171564E+01  0.16964553881E+02  0.00000000000E+00 0. -1.
</event>
<event>
 7    1  0.6672802E-013  0.5930203E+02  0.7816164E-02  0.1266604E+00
        -11   -1    0    0    0    0  0.00000000000E+00  0.00000000000E+00  0.45593999997E+02  0.45594000000E+02  0.51100000000E-03 0. -1.
         11   -1    0    0    0    0 -0.00000000000E+00 -0.00000000000E+00 -0.45593999997E+02  0.45594000000E+02  0.51100000000E-03 0.  1.
    9900012    2    1    2    0    0  0.21265289028E+02  0.41096632417E+01 -0.23401138594E+02  0.59302029152E+02  0.50000155247E+02 0.  0.
         12    1    1    2    0    0 -0.21265289028E+02 -0.41096632417E+01  0.23401138594E+02  0.31885970848E+02  0.00000000000E+00 0. -1.
         11    1    3    3    0    0 -0.37255673758E+01  0.43697630124E+01 -0.58629179316E+01  0.82066124553E+01  0.51100000000E-03 0. -1.
        -11    1    3    3    0    0 -0.29183624088E+01  0.18870717590E+01 -0.22414364389E+02  0.22682187068E+02  0.51100000000E-03 0.  1.
         12    1    3    3    0    0  0.27909218812E+02 -0.21471715298E+01  0.48761437268E+01  0.28413229629E+02  0.00000000000E+00 0. -1.
</event>
<event>
 7    1  0.6672802E-013  0.5930194E+02  0.7816164E-02  0.1266605E+00
        -11   -1    0    0    0    0  0.00000000000E+00  0.00000000000E+00  0.45593999997E+02  0.45594000000E+02  0.51100000000E-03 0. -1.
         11   -1    0    0    0    0 -0.00000000000E+00 -0.00000000000E+00 -0.45593999997E+02  0.45594000000E+02  0.51100000000E-03 0.  1.
    9900012    2    1    2    0    0 -0.26053762086E+02  0.11570957863E+02 -0.14284094405E+02  0.59301938191E+02  0.49999989356E+02 0.  0.
         12    1    1    2    0    0  0.26053762086E+02 -0.11570957863E+02  0.14284094405E+02  0.31886061809E+02  0.00000000000E+00 0. -1.
         11    1    3    3    0    0 -0.18630215482E+02  0.22509952029E+02 -0.27605388285E-01  0.29219576170E+02  0.51100000000E-03 0. -1.
        -11    1    3    3    0    0 -0.16221459791E+01 -0.20315031801E+01  0.63687532007E+01  0.68789083684E+01  0.51100000000E-03 0.  1.
        -12    1    3    3    0    0 -0.58014006257E+01 -0.89074909862E+01 -0.20625242217E+02  0.23203453652E+02  0.00000000000E+00 0.  1.
</event>
<event>
 7    1  0.6672802E-013  0.5930196E+02  0.7816164E-02  0.1266605E+00
        -11   -1    0    0    0    0  0.00000000000E+00  0.00000000000E+00  0.45593999997E+02  0.45594000000E+02  0.51100000000E-03 0.  1.
         11   -1    0    0    0    0 -0.00000000000E+00 -0.00000000000E+00 -0.45593999997E+02  0.45594000000E+02  0.51100000000E-03 0. -1.
    9900012    2    1    2    0    0  0.25548804219E+01  0.12324745517E+02  0.29296637585E+02  0.59301956975E+02  0.50000023613E+02 0.  0.
         12    1    1    2    0    0 -0.25548804219E+01 -0.12324745517E+02 -0.29296637585E+02  0.31886043025E+02  0.00000000000E+00 0. -1.
         11    1    3    3    0    0 -0.28669638747E+01 -0.62530822456E+01  0.64934577351E+01  0.94596782740E+01  0.51100000000E-03 0. -1.
        -11    1    3    3    0    0 -0.49160708462E+01 -0.11500381689E+02  0.68586305698E+01  0.14264198019E+02  0.51100000000E-03 0.  1.
         12    1    3    3    0    0  0.10337915143E+02  0.30078209452E+02  0.15944549280E+02  0.35578080682E+02  0.00000000000E+00 0. -1.
</event>
<event>
 7    1  0.6672802E-013  0.5930192E+02  0.7816164E-02  0.1266605E+00
        -11   -1    0    0    0    0  0.00000000000E+00  0.00000000000E+00  0.45593999997E+02  0.45594000000E+02  0.51100000000E-03 0.  1.
         11   -1    0    0    0    0 -0.00000000000E+00 -0.00000000000E+00 -0.45593999997E+02  0.45594000000E+02  0.51100000000E-03 0. -1.
    9900012    2    1    2    0    0  0.14971788813E+02 -0.15801117463E+02 -0.23300051210E+02  0.59301919029E+02  0.49999954408E+02 0.  0.
         12    1    1    2    0    0 -0.14971788813E+02  0.15801117463E+02  0.23300051210E+02  0.31886080971E+02  0.00000000000E+00 0. -1.
         11    1    3    3    0    0 -0.21915203661E+01 -0.23682871534E+02 -0.14513728409E+02  0.27862689715E+02  0.51100000000E-03 0. -1.
        -11    1    3    3    0    0 -0.11203710496E+01 -0.49715377467E+01 -0.74806759149E+01  0.90516258905E+01  0.51100000000E-03 0.  1.
        -12    1    3    3    0    0  0.18283680228E+02  0.12853291818E+02 -0.13056468861E+01  0.22387603423E+02  0.00000000000E+00 0.  1.
</event>
<event>
 7    1  0.6672802E-013  0.5930193E+02  0.7816164E-02  0.1266605E+00
        -11   -1    0    0    0    0  0.00000000000E+00  0.00000000000E+00  0.45593999997E+02  0.45594000000E+02  0.51100000000E-03 0.  1.
         11   -1    0    0    0    0 -0.00000000000E+00 -0.00000000000E+00 -0.45593999997E+02  0.45594000000E+02  0.51100000000E-03 0. -1.
    9900012    2    1    2    0    0  0.23930595380E+02 -0.18675596503E+02  0.97606318779E+01  0.59301933534E+02  0.49999980863E+02 0.  0.
         12    1    1    2    0    0 -0.23930595380E+02  0.18675596503E+02 -0.97606318779E+01  0.31886066466E+02  0.00000000000E+00 0. -1.
         11    1    3    3    0    0 -0.75474585004E+01  0.15205123084E+00 -0.12590922562E+02  0.14680551100E+02  0.51100000000E-03 0. -1.
        -11    1    3    3    0    0  0.11658064074E+01 -0.35835420233E+01  0.56820573918E+01  0.68181122370E+01  0.51100000000E-03 0.  1.
        -12    1    3    3    0    0  0.30312247473E+02 -0.15244105710E+02  0.16669497048E+02  0.37803270197E+02  0.00000000000E+00 0.  1.
</event>
<event>
 7    1  0.6672802E-013  0.5930197E+02  0.7816164E-02  0.1266605E+00
        -11   -1    0    0    0    0  0.00000000000E+00  0.00000000000E+00  0.45593999997E+02  0.45594000000E+02  0.51100000000E-03 0. -1.
         11   -1    0    0    0    0 -0.00000000000E+00 -0.00000000000E+00 -0.45593999997E+02  0.45594000000E+02  0.51100000000E-03 0.  1.
    9900012    2    1    2    0    0 -0.23001789063E+02  0.17398927631E+02  0.13598312215E+02  0.59301967354E+02  0.50000042541E+02 0.  0.
         12    1    1    2    0    0  0.23001789063E+02 -0.17398927631E+02 -0.13598312215E+02  0.31886032646E+02  0.00000000000E+00 0. -1.
         11    1    3    3    0    0 -0.44946548219E+01 -0.86895982570E+01 -0.29894625526E+01  0.10229756911E+02  0.51100000000E-03 0. -1.
        -11    1    3    3    0    0 -0.15594517827E+02  0.10343710407E+02  0.24807260904E+02  0.31073807701E+02  0.51100000000E-03 0.  1.
        -12    1    3    3    0    0 -0.29126164147E+01  0.15744815481E+02 -0.82194861366E+01  0.17998402742E+02  0.00000000000E+00 0.  1.
</event>
<event>
 7    1  0.6672802E-013  0.5930194E+02  0.7816164E-02  0.1266605E+00
        -11   -1    0    0    0    0  0.00000000000E+00  0.00000000000E+00  0.45593999997E+02  0.45594000000E+02  0.51100000000E-03 0.  1.
         11   -1    0    0    0    0 -0.00000000000E+00 -0.00000000000E+00 -0.45593999997E+02  0.45594000000E+02  0.51100000000E-03 0. -1.
    9900012    2    1    2    0    0 -0.32644992106E+01 -0.17610898237E+02  0.26380296155E+02  0.59301941651E+02  0.49999995665E+02 0.  0.
         12    1    1    2    0    0  0.32644992106E+01  0.17610898237E+02 -0.26380296155E+02  0.31886058349E+02  0.00000000000E+00 0. -1.
         11    1    3    3    0    0 -0.25998414667E+01  0.61749116790E+01  0.20856000091E+02  0.21905740114E+02  0.51100000000E-03 0.  1.
        -11    1    3    3    0    0 -0.10403850596E+02 -0.20261846491E+02 -0.42330293218E+01  0.23166809620E+02  0.51100000000E-03 0. -1.
         12    1    3    3    0    0  0.97391928521E+01 -0.35239634251E+01  0.97573253864E+01  0.14229391917E+02  0.00000000000E+00 0. -1.
</event>
<event>
 7    1  0.6672802E-013  0.5930193E+02  0.7816164E-02  0.1266605E+00
        -11   -1    0    0    0    0  0.00000000000E+00  0.00000000000E+00  0.45593999997E+02  0.45594000000E+02  0.51100000000E-03 0.  1.
         11   -1    0    0    0    0 -0.00000000000E+00 -0.00000000000E+00 -0.45593999997E+02  0.45594000000E+02  0.51100000000E-03 0. -1.
    9900012    2    1    2    0    0 -0.26610814397E+02  0.67044006553E+01  0.16236901213E+02  0.59301931066E+02  0.49999976362E+02 0.  0.
         12    1    1    2    0    0  0.26610814397E+02 -0.67044006553E+01 -0.16236901213E+02  0.31886068934E+02  0.00000000000E+00 0. -1.
         11    1    3    3    0    0  0.39908001076E+01  0.10209824994E+02  0.40930048847E+01  0.11701269211E+02  0.51100000000E-03 0. -1.
        -11    1    3    3    0    0 -0.53572137513E+01  0.13801224942E+02  0.37640575582E+00  0.14809295413E+02  0.51100000000E-03 0.  1.
         12    1    3    3    0    0 -0.25244400754E+02 -0.17306649281E+02  0.11767490572E+02  0.32791366442E+02  0.00000000000E+00 0. -1.
</event>
<event>
 7    1  0.6672802E-013  0.5930195E+02  0.7816164E-02  0.1266605E+00
        -11   -1    0    0    0    0  0.00000000000E+00  0.00000000000E+00  0.45593999997E+02  0.45594000000E+02  0.51100000000E-03 0.  1.
         11   -1    0    0    0    0 -0.00000000000E+00 -0.00000000000E+00 -0.45593999997E+02  0.45594000000E+02  0.51100000000E-03 0. -1.
    9900012    2    1    2    0    0  0.10287182241E+02  0.30105644312E+02 -0.21316955200E+01  0.59301951896E+02  0.50000014350E+02 0.  0.
         12    1    1    2    0    0 -0.10287182241E+02 -0.30105644312E+02  0.21316955200E+01  0.31886048104E+02  0.00000000000E+00 0. -1.
         11    1    3    3    0    0 -0.55383804092E+01  0.39515652303E+01  0.78170053362E+01  0.10363112371E+02  0.51100000000E-03 0. -1.
        -11    1    3    3    0    0  0.17955069887E+01  0.60043229471E+01  0.13564877613E+02  0.14942611697E+02  0.51100000000E-03 0.  1.
         12    1    3    3    0    0  0.14030055661E+02  0.20149756134E+02 -0.23513578469E+02  0.33996227829E+02  0.00000000000E+00 0. -1.
</event>
<event>
 7    1  0.6672802E-013  0.5930185E+02  0.7816164E-02  0.1266605E+00
        -11   -1    0    0    0    0  0.00000000000E+00  0.00000000000E+00  0.45593999997E+02  0.45594000000E+02  0.51100000000E-03 0.  1.
         11   -1    0    0    0    0 -0.00000000000E+00 -0.00000000000E+00 -0.45593999997E+02  0.45594000000E+02  0.51100000000E-03 0. -1.
    9900012    2    1    2    0    0  0.77820352972E+01  0.86840954534E+01  0.29677480459E+02  0.59301852010E+02  0.49999832182E+02 0.  0.
         12    1    1    2    0    0 -0.77820352972E+01 -0.86840954534E+01 -0.29677480459E+02  0.31886147990E+02  0.00000000000E+00 0. -1.
         11    1    3    3    0    0  0.46709644624E+01 -0.60548664992E+01  0.14786952163E+01  0.77888289965E+01  0.51100000000E-03 0. -1.
        -11    1    3    3    0    0  0.14161886029E+02  0.38452812990E+00  0.30130398448E+02  0.33294861295E+02  0.51100000000E-03 0.  1.
         12    1    3    3    0    0 -0.11050815195E+02  0.14354433823E+02 -0.19316132049E+01  0.18218161719E+02  0.00000000000E+00 0. -1.
</event>
<event>
 7    1  0.6672802E-013  0.5930192E+02  0.7816164E-02  0.1266605E+00
        -11   -1    0    0    0    0  0.00000000000E+00  0.00000000000E+00  0.45593999997E+02  0.45594000000E+02  0.51100000000E-03 0.  1.
         11   -1    0    0    0    0 -0.00000000000E+00 -0.00000000000E+00 -0.45593999997E+02  0.45594000000E+02  0.51100000000E-03 0. -1.
    9900012    2    1    2    0    0  0.13308029746E+02  0.20833566803E+02  0.20139035279E+02  0.59301923048E+02  0.49999961737E+02 0.  0.
         12    1    1    2    0    0 -0.13308029746E+02 -0.20833566803E+02 -0.20139035279E+02  0.31886076952E+02  0.00000000000E+00 0. -1.
         11    1    3    3    0    0  0.46780350584E+01 -0.27880286636E+01  0.11592580100E+01  0.55678537365E+01  0.51100000000E-03 0. -1.
        -11    1    3    3    0    0 -0.11252366181E+02 -0.49789564324E+01 -0.28446701910E+01  0.12629247823E+02  0.51100000000E-03 0.  1.
        -12    1    3    3    0    0  0.19882360868E+02  0.28600551899E+02  0.21824447460E+02  0.41104821488E+02  0.00000000000E+00 0.  1.
</event>
<event>
 7    1  0.6672802E-013  0.5930191E+02  0.7816164E-02  0.1266605E+00
        -11   -1    0    0    0    0  0.00000000000E+00  0.00000000000E+00  0.45593999997E+02  0.45594000000E+02  0.51100000000E-03 0.  1.
         11   -1    0    0    0    0 -0.00000000000E+00 -0.00000000000E+00 -0.45593999997E+02  0.45594000000E+02  0.51100000000E-03 0. -1.
    9900012    2    1    2    0    0  0.31815527721E+02 -0.43945104000E+00  0.20740539023E+01  0.59301911796E+02  0.49999941217E+02 0.  0.
         12    1    1    2    0    0 -0.31815527721E+02  0.43945104000E+00 -0.20740539023E+01  0.31886088204E+02  0.00000000000E+00 0. -1.
         11    1    3    3    0    0 -0.19379260117E+01  0.47163140835E+01 -0.12614422388E+02  0.13605985014E+02  0.51100000000E-03 0. -1.
        -11    1    3    3    0    0  0.18791557235E+02 -0.16088305230E+02  0.81489638206E+01  0.26045379631E+02  0.51100000000E-03 0.  1.
         12    1    3    3    0    0  0.14961896498E+02  0.10932540107E+02  0.65395124695E+01  0.19650547151E+02  0.00000000000E+00 0. -1.
</event>
<event>
 7    1  0.6672802E-013  0.5930198E+02  0.7816164E-02  0.1266605E+00
        -11   -1    0    0    0    0  0.00000000000E+00  0.00000000000E+00  0.45593999997E+02  0.45594000000E+02  0.51100000000E-03 0.  1.
         11   -1    0    0    0    0 -0.00000000000E+00 -0.00000000000E+00 -0.45593999997E+02  0.45594000000E+02  0.51100000000E-03 0. -1.
    9900012    2    1    2    0    0  0.97616500314E+01 -0.28225820504E+02 -0.11168318241E+02  0.59301982895E+02  0.50000070885E+02 0.  0.
         12    1    1    2    0    0 -0.97616500314E+01  0.28225820504E+02  0.11168318241E+02  0.31886017105E+02  0.00000000000E+00 0. -1.
         11    1    3    3    0    0 -0.67652102842E+01 -0.11992739232E+02  0.20337596176E+00  0.13770810670E+02  0.51100000000E-03 0. -1.
        -11    1    3    3    0    0  0.10409644320E+02 -0.84422607116E+01  0.13338871240E+02  0.18909202707E+02  0.51100000000E-03 0.  1.
         12    1    3    3    0    0  0.61172159958E+01 -0.77908205606E+01 -0.24710565443E+02  0.26621969518E+02  0.00000000000E+00 0. -1.
</event>
<event>
 7    1  0.6672802E-013  0.5930192E+02  0.7816164E-02  0.1266605E+00
        -11   -1    0    0    0    0  0.00000000000E+00  0.00000000000E+00  0.45593999997E+02  0.45594000000E+02  0.51100000000E-03 0. -1.
         11   -1    0    0    0    0 -0.00000000000E+00 -0.00000000000E+00 -0.45593999997E+02  0.45594000000E+02  0.51100000000E-03 0.  1.
    9900012    2    1    2    0    0 -0.24180407743E+02 -0.20771050647E+02 -0.77014280953E+00  0.59301924927E+02  0.49999965166E+02 0.  0.
         12    1    1    2    0    0  0.24180407743E+02  0.20771050647E+02  0.77014280953E+00  0.31886075073E+02  0.00000000000E+00 0. -1.
         11    1    3    3    0    0  0.28471264711E+01 -0.28684094104E+01  0.69494785587E+01  0.80392259694E+01  0.51100000000E-03 0. -1.
        -11    1    3    3    0    0 -0.13931976221E+02 -0.18410775643E+02  0.13186586013E+02  0.26588393561E+02  0.51100000000E-03 0.  1.
        -12    1    3    3    0    0 -0.13095557993E+02  0.50813440711E+00 -0.20906207382E+02  0.24674305397E+02  0.00000000000E+00 0.  1.
</event>
<event>
 7    1  0.6672802E-013  0.5930195E+02  0.7816164E-02  0.1266605E+00
        -11   -1    0    0    0    0  0.00000000000E+00  0.00000000000E+00  0.45593999997E+02  0.45594000000E+02  0.51100000000E-03 0.  1.
         11   -1    0    0    0    0 -0.00000000000E+00 -0.00000000000E+00 -0.45593999997E+02  0.45594000000E+02  0.51100000000E-03 0. -1.
    9900012    2    1    2    0    0  0.89460987890E+01 -0.27594865412E+02  0.13236731554E+02  0.59301947518E+02  0.50000006366E+02 0.  0.
         12    1    1    2    0    0 -0.89460987890E+01  0.27594865412E+02 -0.13236731554E+02  0.31886052482E+02  0.00000000000E+00 0. -1.
         11    1    3    3    0    0  0.80848480699E+01 -0.59683806101E+01 -0.30994754384E+01  0.10516324628E+02  0.51100000000E-03 0. -1.
        -11    1    3    3    0    0  0.20476362512E+02 -0.94737894599E+01  0.51483007352E+01  0.23141717939E+02  0.51100000000E-03 0.  1.
         12    1    3    3    0    0 -0.19615111793E+02 -0.12152695342E+02  0.11187906257E+02  0.25643904951E+02  0.00000000000E+00 0. -1.
</event>
<event>
 7    1  0.6672802E-013  0.5930205E+02  0.7816164E-02  0.1266604E+00
        -11   -1    0    0    0    0  0.00000000000E+00  0.00000000000E+00  0.45593999997E+02  0.45594000000E+02  0.51100000000E-03 0. -1.
         11   -1    0    0    0    0 -0.00000000000E+00 -0.00000000000E+00 -0.45593999997E+02  0.45594000000E+02  0.51100000000E-03 0.  1.
    9900012    2    1    2    0    0  0.37916221870E+01  0.24737872123E+02 -0.19757904917E+02  0.59302054465E+02  0.50000201410E+02 0.  0.
         12    1    1    2    0    0 -0.37916221870E+01 -0.24737872123E+02  0.19757904917E+02  0.31885945535E+02  0.00000000000E+00 0. -1.
         11    1    3    3    0    0  0.42750943609E+01  0.24703873519E+02  0.18510726618E+01  0.25139297303E+02  0.51100000000E-03 0. -1.
        -11    1    3    3    0    0  0.10662323235E+02  0.43987912843E+01 -0.28017980743E+01  0.11869480791E+02  0.51100000000E-03 0.  1.
        -12    1    3    3    0    0 -0.11145795409E+02 -0.43647926803E+01 -0.18807179504E+02  0.22293276371E+02  0.00000000000E+00 0.  1.
</event>
<event>
 7    1  0.6672802E-013  0.5930194E+02  0.7816164E-02  0.1266605E+00
        -11   -1    0    0    0    0  0.00000000000E+00  0.00000000000E+00  0.45593999997E+02  0.45594000000E+02  0.51100000000E-03 0.  1.
         11   -1    0    0    0    0 -0.00000000000E+00 -0.00000000000E+00 -0.45593999997E+02  0.45594000000E+02  0.51100000000E-03 0. -1.
    9900012    2    1    2    0    0 -0.67212229579E+01 -0.22785358764E+02  0.21269071983E+02  0.59301939801E+02  0.49999992291E+02 0.  0.
         12    1    1    2    0    0  0.67212229579E+01  0.22785358764E+02 -0.21269071983E+02  0.31886060199E+02  0.00000000000E+00 0. -1.
         11    1    3    3    0    0  0.25564225427E+01  0.45587624651E+01  0.69710326145E+01  0.87128013522E+01  0.51100000000E-03 0. -1.
        -11    1    3    3    0    0  0.34880728565E+01 -0.34047058351E+01  0.21882284676E+02  0.22418587310E+02  0.51100000000E-03 0.  1.
         12    1    3    3    0    0 -0.12765718357E+02 -0.23939415394E+02 -0.75842453075E+01  0.28170551139E+02  0.00000000000E+00 0. -1.
</event>
<event>
 7    1  0.6672802E-013  0.5930195E+02  0.7816164E-02  0.1266605E+00
        -11   -1    0    0    0    0  0.00000000000E+00  0.00000000000E+00  0.45593999997E+02  0.45594000000E+02  0.51100000000E-03 0. -1.
         11   -1    0    0    0    0 -0.00000000000E+00 -0.00000000000E+00 -0.45593999997E+02  0.45594000000E+02  0.51100000000E-03 0.  1.
    9900012    2    1    2    0    0  0.26827268364E+02  0.16189677651E+02 -0.59086702917E+01  0.59301947016E+02  0.50000005449E+02 0.  0.
         12    1    1    2    0    0 -0.26827268364E+02 -0.16189677651E+02  0.59086702917E+01  0.31886052984E+02  0.00000000000E+00 0. -1.
         11    1    3    3    0    0  0.16287170541E+02  0.35393375374E+01  0.11733674691E+02  0.20383276392E+02  0.51100000000E-03 0. -1.
        -11    1    3    3    0    0  0.14319910891E+02  0.38368799648E+01  0.39075395267E+01  0.15331352230E+02  0.51100000000E-03 0.  1.
        -12    1    3    3    0    0 -0.37798130682E+01  0.88134601484E+01 -0.21549884510E+02  0.23587318394E+02  0.00000000000E+00 0.  1.
</event>
<event>
 7    1  0.6672802E-013  0.5930196E+02  0.7816164E-02  0.1266605E+00
        -11   -1    0    0    0    0  0.00000000000E+00  0.00000000000E+00  0.45593999997E+02  0.45594000000E+02  0.51100000000E-03 0.  1.
         11   -1    0    0    0    0 -0.00000000000E+00 -0.00000000000E+00 -0.45593999997E+02  0.45594000000E+02  0.51100000000E-03 0. -1.
    9900012    2    1    2    0    0 -0.28376428801E+02 -0.74922937076E+01 -0.12464475504E+02  0.59301963463E+02  0.50000035445E+02 0.  0.
         12    1    1    2    0    0  0.28376428801E+02  0.74922937076E+01  0.12464475504E+02  0.31886036537E+02  0.00000000000E+00 0. -1.
         11    1    3    3    0    0 -0.12271648614E+02  0.96558233463E+01  0.35451793183E+01  0.16012388356E+02  0.51100000000E-03 0. -1.
        -11    1    3    3    0    0 -0.73267870893E+01  0.32239891793E+01  0.74980193151E+01  0.10967962855E+02  0.51100000000E-03 0.  1.
         12    1    3    3    0    0 -0.87779930975E+01 -0.20372106233E+02 -0.23507674138E+02  0.32321612252E+02  0.00000000000E+00 0. -1.
</event>
<event>
 7    1  0.6672802E-013  0.5930195E+02  0.7816164E-02  0.1266605E+00
        -11   -1    0    0    0    0  0.00000000000E+00  0.00000000000E+00  0.45593999997E+02  0.45594000000E+02  0.51100000000E-03 0.  1.
         11   -1    0    0    0    0 -0.00000000000E+00 -0.00000000000E+00 -0.45593999997E+02  0.45594000000E+02  0.51100000000E-03 0. -1.
    9900012    2    1    2    0    0  0.15584920848E+02 -0.22362421594E+02  0.16545475137E+02  0.59301946546E+02  0.50000004592E+02 0.  0.
         12    1    1    2    0    0 -0.15584920848E+02  0.22362421594E+02 -0.16545475137E+02  0.31886053454E+02  0.00000000000E+00 0. -1.
         11    1    3    3    0    0 -0.15390938777E+02 -0.19554956858E+00  0.44204809008E+01  0.16014365043E+02  0.51100000000E-03 0. -1.
        -11    1    3    3    0    0  0.65955166289E+01 -0.45364626077E+01  0.10436742430E+02  0.13153171686E+02  0.51100000000E-03 0.  1.
        -12    1    3    3    0    0  0.24380342996E+02 -0.17630409417E+02  0.16882518061E+01  0.30134409817E+02  0.00000000000E+00 0.  1.
</event>
<event>
 7    1  0.6672802E-013  0.5930192E+02  0.7816164E-02  0.1266605E+00
        -11   -1    0    0    0    0  0.00000000000E+00  0.00000000000E+00  0.45593999997E+02  0.45594000000E+02  0.51100000000E-03 0.  1.
         11   -1    0    0    0    0 -0.00000000000E+00 -0.00000000000E+00 -0.45593999997E+02  0.45594000000E+02  0.51100000000E-03 0. -1.
    9900012    2    1    2    0    0 -0.48473921665E+01 -0.18832092927E+02  0.25270085058E+02  0.59301919437E+02  0.49999955152E+02 0.  0.
         12    1    1    2    0    0  0.48473921665E+01  0.18832092927E+02 -0.25270085058E+02  0.31886080563E+02  0.00000000000E+00 0. -1.
         11    1    3    3    0    0 -0.41118050617E+01 -0.76853565204E+01  0.10403162450E+02  0.13571935563E+02  0.51100000000E-03 0.  1.
        -11    1    3    3    0    0  0.13337947299E+01  0.12510548406E+02 -0.61624412943E+01  0.14009586460E+02  0.51100000000E-03 0. -1.
         12    1    3    3    0    0 -0.20693818347E+01 -0.23657284813E+02  0.21029363903E+02  0.31720397414E+02  0.00000000000E+00 0. -1.
</event>
<event>
 7    1  0.6672802E-013  0.5930195E+02  0.7816164E-02  0.1266605E+00
        -11   -1    0    0    0    0  0.00000000000E+00  0.00000000000E+00  0.45593999997E+02  0.45594000000E+02  0.51100000000E-03 0. -1.
         11   -1    0    0    0    0 -0.00000000000E+00 -0.00000000000E+00 -0.45593999997E+02  0.45594000000E+02  0.51100000000E-03 0.  1.
    9900012    2    1    2    0    0  0.15677265156E+02 -0.25420134304E+02 -0.11169609403E+02  0.59301952189E+02  0.50000014883E+02 0.  0.
         12    1    1    2    0    0 -0.15677265156E+02  0.25420134304E+02  0.11169609403E+02  0.31886047811E+02  0.00000000000E+00 0. -1.
         11    1    3    3    0    0  0.13222673945E+02 -0.16949468399E+01  0.30763409521E+01  0.13681221618E+02  0.51100000000E-03 0. -1.
        -11    1    3    3    0    0  0.98181282142E+01 -0.24777143353E+02  0.30186766936E+01  0.26821910514E+02  0.51100000000E-03 0.  1.
         12    1    3    3    0    0 -0.73635370028E+01  0.10519558892E+01 -0.17264627049E+02  0.18798820057E+02  0.00000000000E+00 0. -1.
</event>
<event>
 7    1  0.6672802E-013  0.5930208E+02  0.7816164E-02  0.1266604E+00
        -11   -1    0    0    0    0  0.00000000000E+00  0.00000000000E+00  0.45593999997E+02  0.45594000000E+02  0.51100000000E-03 0. -1.
         11   -1    0    0    0    0 -0.00000000000E+00 -0.00000000000E+00 -0.45593999997E+02  0.45594000000E+02  0.51100000000E-03 0.  1.
    9900012    2    1    2    0    0 -0.31535943342E+02 -0.19214690044E+01  0.43016369827E+01  0.59302080752E+02  0.50000249351E+02 0.  0.
         12    1    1    2    0    0  0.31535943342E+02  0.19214690044E+01 -0.43016369827E+01  0.31885919248E+02  0.00000000000E+00 0. -1.
         11    1    3    3    0    0  0.10176490467E+01 -0.92684628127E+00 -0.26381212235E+01  0.29756238779E+01  0.51100000000E-03 0. -1.
        -11    1    3    3    0    0 -0.70956069484E+01 -0.66905305551E+01 -0.17849194569E+02  0.20339729204E+02  0.51100000000E-03 0.  1.
         12    1    3    3    0    0 -0.25457985440E+02  0.56959078320E+01  0.24788952775E+02  0.35986727670E+02  0.00000000000E+00 0. -1.
</event>
<event>
 7    1  0.6672802E-013  0.5930194E+02  0.7816164E-02  0.1266605E+00
        -11   -1    0    0    0    0  0.00000000000E+00  0.00000000000E+00  0.45593999997E+02  0.45594000000E+02  0.51100000000E-03 0.  1.
         11   -1    0    0    0    0 -0.00000000000E+00 -0.00000000000E+00 -0.45593999997E+02  0.45594000000E+02  0.51100000000E-03 0. -1.
    9900012    2    1    2    0    0  0.27156279254E+02  0.16470587430E+02  0.28243357421E+01  0.59301943085E+02  0.49999998280E+02 0.  0.
         12    1    1    2    0    0 -0.27156279254E+02 -0.16470587430E+02 -0.28243357421E+01  0.31886056915E+02  0.00000000000E+00 0. -1.
         11    1    3    3    0    0  0.81232678762E+01  0.44602497704E+01 -0.77498804817E+01  0.12080643888E+02  0.51100000000E-03 0. -1.
        -11    1    3    3    0    0  0.23851779977E+01  0.23871366022E+02 -0.45517983928E+00  0.23994548939E+02  0.51100000000E-03 0.  1.
        -12    1    3    3    0    0  0.16647833380E+02 -0.11861028362E+02  0.11029396063E+02  0.23226750258E+02  0.00000000000E+00 0.  1.
</event>
<event>
 7    1  0.6672802E-013  0.5930195E+02  0.7816164E-02  0.1266605E+00
        -11   -1    0    0    0    0  0.00000000000E+00  0.00000000000E+00  0.45593999997E+02  0.45594000000E+02  0.51100000000E-03 0.  1.
         11   -1    0    0    0    0 -0.00000000000E+00 -0.00000000000E+00 -0.45593999997E+02  0.45594000000E+02  0.51100000000E-03 0. -1.
    9900012    2    1    2    0    0 -0.13238861163E+02  0.15423151509E+02  0.24567852185E+02  0.59301946492E+02  0.50000004495E+02 0.  0.
         12    1    1    2    0    0  0.13238861163E+02 -0.15423151509E+02 -0.24567852185E+02  0.31886053508E+02  0.00000000000E+00 0. -1.
         11    1    3    3    0    0 -0.10629310952E+02  0.20952922489E+02  0.11943020768E+02  0.26356080086E+02  0.51100000000E-03 0. -1.
        -11    1    3    3    0    0  0.44021972230E+01 -0.43967167632E+01  0.21036081475E+02  0.21936890909E+02  0.51100000000E-03 0.  1.
         12    1    3    3    0    0 -0.70117474343E+01 -0.11330542174E+01 -0.84112500590E+01  0.11008975497E+02  0.00000000000E+00 0. -1.
</event>
<event>
 7    1  0.6672802E-013  0.5930196E+02  0.7816164E-02  0.1266605E+00
        -11   -1    0    0    0    0  0.00000000000E+00  0.00000000000E+00  0.45593999997E+02  0.45594000000E+02  0.51100000000E-03 0. -1.
         11   -1    0    0    0    0 -0.00000000000E+00 -0.00000000000E+00 -0.45593999997E+02  0.45594000000E+02  0.51100000000E-03 0.  1.
    9900012    2    1    2    0    0 -0.14823632261E+02  0.23469242439E+01 -0.28133097672E+02  0.59301963692E+02  0.50000035863E+02 0.  0.
         12    1    1    2    0    0  0.14823632261E+02 -0.23469242439E+01  0.28133097672E+02  0.31886036308E+02  0.00000000000E+00 0. -1.
         11    1    3    3    0    0  0.17015646234E+02 -0.22145957080E+01 -0.10182365408E+02  0.19952874892E+02  0.51100000000E-03 0. -1.
        -11    1    3    3    0    0 -0.15009120191E+02  0.90001303948E+01 -0.74437891943E+01  0.19018044953E+02  0.51100000000E-03 0.  1.
        -12    1    3    3    0    0 -0.16830158304E+02 -0.44386104430E+01 -0.10506943070E+02  0.20331043846E+02  0.00000000000E+00 0.  1.
</event>
<event>
 7    1  0.6672802E-013  0.5930193E+02  0.7816164E-02  0.1266605E+00
        -11   -1    0    0    0    0  0.00000000000E+00  0.00000000000E+00  0.45593999997E+02  0.45594000000E+02  0.51100000000E-03 0.  1.
         11   -1    0    0    0    0 -0.00000000000E+00 -0.00000000000E+00 -0.45593999997E+02  0.45594000000E+02  0.51100000000E-03 0. -1.
    9900012    2    1    2    0    0 -0.18184583955E+02  0.81452094131E+01  0.24893737297E+02  0.59301926447E+02  0.49999967938E+02 0.  0.
         12    1    1    2    0    0  0.18184583955E+02 -0.81452094131E+01 -0.24893737297E+02  0.31886073553E+02  0.00000000000E+00 0. -1.
         11    1    3    3    0    0 -0.92988166070E+01  0.65537045169E+01  0.29952520155E+02  0.32040170054E+02  0.51100000000E-03 0. -1.
        -11    1    3    3    0    0 -0.92793831871E+01  0.33014939599E+01  0.88509199044E+01  0.13241812494E+02  0.51100000000E-03 0.  1.
         12    1    3    3    0    0  0.39361583942E+00 -0.17099890637E+01 -0.13909702762E+02  0.14019943900E+02  0.00000000000E+00 0. -1.
</event>
<event>
 7    1  0.6672802E-013  0.5930195E+02  0.7816164E-02  0.1266605E+00
        -11   -1    0    0    0    0  0.00000000000E+00  0.00000000000E+00  0.45593999997E+02  0.45594000000E+02  0.51100000000E-03 0. -1.
         11   -1    0    0    0    0 -0.00000000000E+00 -0.00000000000E+00 -0.45593999997E+02  0.45594000000E+02  0.51100000000E-03 0.  1.
    9900012    2    1    2    0    0 -0.20966191502E+02 -0.22618165812E+02 -0.80967642424E+01  0.59301949727E+02  0.50000010394E+02 0.  0.
         12    1    1    2    0    0  0.20966191502E+02  0.22618165812E+02  0.80967642424E+01  0.31886050273E+02  0.00000000000E+00 0. -1.
         11    1    3    3    0    0  0.68389610069E+01 -0.63775684696E+01 -0.13749429900E+01  0.94517318903E+01  0.51100000000E-03 0. -1.
        -11    1    3    3    0    0  0.20286391573E+01  0.38053738861E+01 -0.12701195296E+02  0.13413299723E+02  0.51100000000E-03 0.  1.
        -12    1    3    3    0    0 -0.29833791666E+02 -0.20045971229E+02  0.59793740439E+01  0.36436918114E+02  0.00000000000E+00 0.  1.
</event>
<event>
 7    1  0.6672802E-013  0.5930196E+02  0.7816164E-02  0.1266605E+00
        -11   -1    0    0    0    0  0.00000000000E+00  0.00000000000E+00  0.45593999997E+02  0.45594000000E+02  0.51100000000E-03 0.  1.
         11   -1    0    0    0    0 -0.00000000000E+00 -0.00000000000E+00 -0.45593999997E+02  0.45594000000E+02  0.51100000000E-03 0. -1.
    9900012    2    1    2    0    0  0.49806869114E+01  0.18706184987E+02  0.25337544756E+02  0.59301956452E+02  0.50000022660E+02 0.  0.
         12    1    1    2    0    0 -0.49806869114E+01 -0.18706184987E+02 -0.25337544756E+02  0.31886043548E+02  0.00000000000E+00 0. -1.
         11    1    3    3    0    0  0.15788672077E+00 -0.54893640986E+01 -0.81313761892E+01  0.98121009685E+01  0.51100000000E-03 0.  1.
        -11    1    3    3    0    0  0.19763228169E+01  0.14144616748E+02 -0.15265998921E+00  0.14282833758E+02  0.51100000000E-03 0. -1.
        -12    1    3    3    0    0  0.28464773737E+01  0.10050932337E+02  0.33621580934E+02  0.35207021726E+02  0.00000000000E+00 0.  1.
</event>
<event>
 7    1  0.6672802E-013  0.5930195E+02  0.7816164E-02  0.1266605E+00
        -11   -1    0    0    0    0  0.00000000000E+00  0.00000000000E+00  0.45593999997E+02  0.45594000000E+02  0.51100000000E-03 0. -1.
         11   -1    0    0    0    0 -0.00000000000E+00 -0.00000000000E+00 -0.45593999997E+02  0.45594000000E+02  0.51100000000E-03 0.  1.
    9900012    2    1    2    0    0  0.23641643674E+02  0.18468906766E+02 -0.10802433337E+02  0.59301946642E+02  0.50000004768E+02 0.  0.
         12    1    1    2    0    0 -0.23641643674E+02 -0.18468906766E+02  0.10802433337E+02  0.31886053358E+02  0.00000000000E+00 0. -1.
         11    1    3    3    0    0 -0.15802637668E+01  0.48753739075E+01  0.33160281086E+01  0.61043056107E+01  0.51100000000E-03 0. -1.
        -11    1    3    3    0    0  0.34281151543E+02  0.19974507698E+02 -0.77785376129E+01  0.40431225019E+02  0.51100000000E-03 0.  1.
         12    1    3    3    0    0 -0.90592441019E+01 -0.63809748397E+01 -0.63399238324E+01  0.12766416012E+02  0.00000000000E+00 0. -1.
</event>
<event>
 7    1  0.6672802E-013  0.5930191E+02  0.7816164E-02  0.1266605E+00
        -11   -1    0    0    0    0  0.00000000000E+00  0.00000000000E+00  0.45593999997E+02  0.45594000000E+02  0.51100000000E-03 0. -1.
         11   -1    0    0    0    0 -0.00000000000E+00 -0.00000000000E+00 -0.45593999997E+02  0.45594000000E+02  0.51100000000E-03 0.  1.
    9900012    2    1    2    0    0  0.18626708949E+02  0.21768600916E+02 -0.13996290703E+02  0.59301914860E+02  0.49999946805E+02 0.  0.
         12    1    1    2    0    0 -0.18626708949E+02 -0.21768600916E+02  0.13996290703E+02  0.31886085140E+02  0.00000000000E+00 0. -1.
         11    1    3    3    0    0  0.21651050837E+02 -0.73324795993E+01 -0.15275940137E+02  0.27493410242E+02  0.51100000000E-03 0.  1.
        -11    1    3    3    0    0  0.35228649011E+01  0.12500651314E+02  0.43596546337E+01  0.13699760917E+02  0.51100000000E-03 0. -1.
        -12    1    3    3    0    0 -0.65472067891E+01  0.16600429201E+02 -0.30800051999E+01  0.18108743701E+02  0.00000000000E+00 0.  1.
</event>
<event>
 7    1  0.6672802E-013  0.5930193E+02  0.7816164E-02  0.1266605E+00
        -11   -1    0    0    0    0  0.00000000000E+00  0.00000000000E+00  0.45593999997E+02  0.45594000000E+02  0.51100000000E-03 0. -1.
         11   -1    0    0    0    0 -0.00000000000E+00 -0.00000000000E+00 -0.45593999997E+02  0.45594000000E+02  0.51100000000E-03 0.  1.
    9900012    2    1    2    0    0  0.19465599167E+02  0.70311021002E+01 -0.24256450018E+02  0.59301932272E+02  0.49999978560E+02 0.  0.
         12    1    1    2    0    0 -0.19465599167E+02 -0.70311021002E+01  0.24256450018E+02  0.31886067728E+02  0.00000000000E+00 0. -1.
         11    1    3    3    0    0  0.10847042489E+02  0.80256790099E+01 -0.67103575184E+01  0.15069796038E+02  0.51100000000E-03 0. -1.
        -11    1    3    3    0    0  0.12952157834E+02  0.16920029998E+02 -0.13906883724E+02  0.25444984238E+02  0.51100000000E-03 0.  1.
         12    1    3    3    0    0 -0.43336011556E+01 -0.17914606908E+02 -0.36392087753E+01  0.18787151997E+02  0.00000000000E+00 0. -1.
</event>
<event>
 7    1  0.6672802E-013  0.5930193E+02  0.7816164E-02  0.1266605E+00
        -11   -1    0    0    0    0  0.00000000000E+00  0.00000000000E+00  0.45593999997E+02  0.45594000000E+02  0.51100000000E-03 0.  1.
         11   -1    0    0    0    0 -0.00000000000E+00 -0.00000000000E+00 -0.45593999997E+02  0.45594000000E+02  0.51100000000E-03 0. -1.
    9900012    2    1    2    0    0  0.13655879459E+02  0.23447652153E+02  0.16746524421E+02  0.59301929131E+02  0.49999972833E+02 0.  0.
         12    1    1    2    0    0 -0.13655879459E+02 -0.23447652153E+02 -0.16746524421E+02  0.31886070869E+02  0.00000000000E+00 0. -1.
         11    1    3    3    0    0 -0.55856695595E+01  0.22950538287E+02  0.11152575629E+02  0.26121004106E+02  0.51100000000E-03 0. -1.
        -11    1    3    3    0    0  0.67764586738E+01  0.12056634541E+02  0.80526753302E+01  0.16004012273E+02  0.51100000000E-03 0.  1.
         12    1    3    3    0    0  0.12465090344E+02 -0.11559520675E+02 -0.24587265380E+01  0.17176912753E+02  0.00000000000E+00 0. -1.
</event>
<event>
 7    1  0.1361251E-012  0.5930191E+02  0.7816164E-02  0.1266605E+00
        -11   -1    0    0    0    0  0.00000000000E+00  0.00000000000E+00  0.45593999997E+02  0.45594000000E+02  0.51100000000E-03 0. -1.
         11   -1    0    0    0    0 -0.00000000000E+00 -0.00000000000E+00 -0.45593999997E+02  0.45594000000E+02  0.51100000000E-03 0.  1.
    9900012    2    1    2    0    0  0.15355480416E+01  0.28311929580E+02 -0.14587654989E+02  0.59301906756E+02  0.49999932025E+02 0.  0.
         12    1    1    2    0    0 -0.15355480416E+01 -0.28311929580E+02  0.14587654989E+02  0.31886093244E+02  0.00000000000E+00 0. -1.
         11    1    3    3    0    0 -0.79284692565E+00  0.42281925139E+01  0.11007646441E+02  0.11818396617E+02  0.51100000000E-03 0. -1.
        -11    1    3    3    0    0  0.21832220701E+01  0.11956851083E+02  0.60622200308E+01  0.13582461426E+02  0.51100000000E-03 0.  1.
        -12    1    3    3    0    0  0.14517289719E+00  0.12126885983E+02 -0.31657521460E+02  0.33901048713E+02  0.00000000000E+00 0.  1.
</event>
<event>
 7    1  0.6672802E-013  0.5930196E+02  0.7816164E-02  0.1266605E+00
        -11   -1    0    0    0    0  0.00000000000E+00  0.00000000000E+00  0.45593999997E+02  0.45594000000E+02  0.51100000000E-03 0. -1.
         11   -1    0    0    0    0 -0.00000000000E+00 -0.00000000000E+00 -0.45593999997E+02  0.45594000000E+02  0.51100000000E-03 0.  1.
    9900012    2    1    2    0    0 -0.11920626543E+02 -0.45590721559E+01 -0.29220427357E+02  0.59301955230E+02  0.50000020431E+02 0.  0.
         12    1    1    2    0    0  0.11920626543E+02  0.45590721559E+01  0.29220427357E+02  0.31886044770E+02  0.00000000000E+00 0. -1.
         11    1    3    3    0    0 -0.64764752195E+01  0.76553987012E+01  0.51768146162E+01  0.11284913397E+02  0.51100000000E-03 0. -1.
        -11    1    3    3    0    0 -0.63400091904E+01 -0.13038261226E+02 -0.93012654389E+00  0.14527804651E+02  0.51100000000E-03 0.  1.
         12    1    3    3    0    0  0.89585786672E+00  0.82379036861E+00 -0.33467115430E+02  0.33489237183E+02  0.00000000000E+00 0. -1.
</event>
<event>
 7    1  0.6672802E-013  0.5930209E+02  0.7816164E-02  0.1266604E+00
        -11   -1    0    0    0    0  0.00000000000E+00  0.00000000000E+00  0.45593999997E+02  0.45594000000E+02  0.51100000000E-03 0.  1.
         11   -1    0    0    0    0 -0.00000000000E+00 -0.00000000000E+00 -0.45593999997E+02  0.45594000000E+02  0.51100000000E-03 0. -1.
    9900012    2    1    2    0    0 -0.30523649691E+02  0.75877467875E+01  0.52387267554E+01  0.59302088538E+02  0.50000263551E+02 0.  0.
         12    1    1    2    0    0  0.30523649691E+02 -0.75877467875E+01 -0.52387267554E+01  0.31885911462E+02  0.00000000000E+00 0. -1.
         11    1    3    3    0    0 -0.18257648066E+02 -0.56801052406E+01  0.90933602868E+01  0.21172966490E+02  0.51100000000E-03 0. -1.
        -11    1    3    3    0    0 -0.18733042501E+02  0.44211105846E+01  0.89911674788E+01  0.21244156680E+02  0.51100000000E-03 0.  1.
         12    1    3    3    0    0  0.64670408760E+01  0.88467414435E+01 -0.12845801010E+02  0.16884965367E+02  0.00000000000E+00 0. -1.
</event>
<event>
 7    1  0.6672802E-013  0.5930190E+02  0.7816164E-02  0.1266605E+00
        -11   -1    0    0    0    0  0.00000000000E+00  0.00000000000E+00  0.45593999997E+02  0.45594000000E+02  0.51100000000E-03 0. -1.
         11   -1    0    0    0    0 -0.00000000000E+00 -0.00000000000E+00 -0.45593999997E+02  0.45594000000E+02  0.51100000000E-03 0.  1.
    9900012    2    1    2    0    0 -0.16788058016E+02 -0.23423913081E+02  0.13645686098E+02  0.59301900441E+02  0.49999920509E+02 0.  0.
         12    1    1    2    0    0  0.16788058016E+02  0.23423913081E+02 -0.13645686098E+02  0.31886099559E+02  0.00000000000E+00 0. -1.
         11    1    3    3    0    0  0.70185489496E+01 -0.16139583945E+02  0.15379513943E+01  0.17666677504E+02  0.51100000000E-03 0. -1.
        -11    1    3    3    0    0  0.71834617095E+00  0.25968635321E+01 -0.79843662490E+01  0.84267328239E+01  0.51100000000E-03 0.  1.
         12    1    3    3    0    0 -0.24524953136E+02 -0.98811926682E+01  0.20092100953E+02  0.33208490113E+02  0.00000000000E+00 0. -1.
</event>
<event>
 7    1  0.6672802E-013  0.5930192E+02  0.7816164E-02  0.1266605E+00
        -11   -1    0    0    0    0  0.00000000000E+00  0.00000000000E+00  0.45593999997E+02  0.45594000000E+02  0.51100000000E-03 0. -1.
         11   -1    0    0    0    0 -0.00000000000E+00 -0.00000000000E+00 -0.45593999997E+02  0.45594000000E+02  0.51100000000E-03 0.  1.
    9900012    2    1    2    0    0 -0.25566788149E+02  0.18913123131E+02  0.23141776941E+01  0.59301916809E+02  0.49999950360E+02 0.  0.
         12    1    1    2    0    0  0.25566788149E+02 -0.18913123131E+02 -0.23141776941E+01  0.31886083191E+02  0.00000000000E+00 0. -1.
         11    1    3    3    0    0 -0.93107372601E+01  0.10110584684E+02  0.22643279427E+02  0.26488334308E+02  0.51100000000E-03 0. -1.
        -11    1    3    3    0    0 -0.54275020639E+01  0.12207376196E+02 -0.63089668504E+01  0.14774331633E+02  0.51100000000E-03 0.  1.
        -12    1    3    3    0    0 -0.10828548825E+02 -0.34048377483E+01 -0.14020134882E+02  0.18039250868E+02  0.00000000000E+00 0.  1.
</event>
<event>
 7    1  0.6672802E-013  0.5930195E+02  0.7816164E-02  0.1266605E+00
        -11   -1    0    0    0    0  0.00000000000E+00  0.00000000000E+00  0.45593999997E+02  0.45594000000E+02  0.51100000000E-03 0.  1.
         11   -1    0    0    0    0 -0.00000000000E+00 -0.00000000000E+00 -0.45593999997E+02  0.45594000000E+02  0.51100000000E-03 0. -1.
    9900012    2    1    2    0    0 -0.20654593731E+02  0.24242264210E+02  0.15558404919E+01  0.59301948882E+02  0.50000008854E+02 0.  0.
         12    1    1    2    0    0  0.20654593731E+02 -0.24242264210E+02 -0.15558404919E+01  0.31886051118E+02  0.00000000000E+00 0. -1.
         11    1    3    3    0    0 -0.21131446568E+02  0.20428171042E+02  0.18100767171E+02  0.34517908086E+02  0.51100000000E-03 0. -1.
        -11    1    3    3    0    0 -0.47336698677E+01  0.53744146277E+01  0.21352302029E+00  0.71650230529E+01  0.51100000000E-03 0.  1.
         12    1    3    3    0    0  0.52105227047E+01 -0.15603214594E+01 -0.16758449700E+02  0.17619017744E+02  0.00000000000E+00 0. -1.
</event>
<event>
 7    1  0.6672802E-013  0.5930180E+02  0.7816164E-02  0.1266605E+00
        -11   -1    0    0    0    0  0.00000000000E+00  0.00000000000E+00  0.45593999997E+02  0.45594000000E+02  0.51100000000E-03 0. -1.
         11   -1    0    0    0    0 -0.00000000000E+00 -0.00000000000E+00 -0.45593999997E+02  0.45594000000E+02  0.51100000000E-03 0.  1.
    9900012    2    1    2    0    0  0.27754827908E+02  0.62797727511E+01  0.14386243541E+02  0.59301795754E+02  0.49999729584E+02 0.  0.
         12    1    1    2    0    0 -0.27754827908E+02 -0.62797727511E+01 -0.14386243541E+02  0.31886204246E+02  0.00000000000E+00 0. -1.
         11    1    3    3    0    0  0.11422455530E+02  0.35866988428E+01 -0.43720437045E+01  0.12745652801E+02  0.51100000000E-03 0. -1.
        -11    1    3    3    0    0  0.19492471484E+02 -0.11824007534E+02  0.22044978598E+00  0.22799390279E+02  0.51100000000E-03 0.  1.
         12    1    3    3    0    0 -0.31600991062E+01  0.14517081442E+02  0.18537837459E+02  0.23756752674E+02  0.00000000000E+00 0. -1.
</event>
<event>
 7    1  0.6672802E-013  0.5930194E+02  0.7816164E-02  0.1266605E+00
        -11   -1    0    0    0    0  0.00000000000E+00  0.00000000000E+00  0.45593999997E+02  0.45594000000E+02  0.51100000000E-03 0. -1.
         11   -1    0    0    0    0 -0.00000000000E+00 -0.00000000000E+00 -0.45593999997E+02  0.45594000000E+02  0.51100000000E-03 0.  1.
    9900012    2    1    2    0    0 -0.15805917125E+02 -0.36897538226E+01 -0.27445934474E+02  0.59301943195E+02  0.49999998480E+02 0.  0.
         12    1    1    2    0    0  0.15805917125E+02  0.36897538226E+01  0.27445934474E+02  0.31886056805E+02  0.00000000000E+00 0. -1.
         11    1    3    3    0    0 -0.27965330051E+01 -0.11560594604E+02  0.44019932186E+01  0.12682487493E+02  0.51100000000E-03 0. -1.
        -11    1    3    3    0    0 -0.17499284277E+02 -0.67307059800E+01 -0.18341625061E+02  0.26228659198E+02  0.51100000000E-03 0.  1.
         12    1    3    3    0    0  0.44899001573E+01  0.14601546762E+02 -0.13506302632E+02  0.20390796503E+02  0.00000000000E+00 0. -1.
</event>
<event>
 7    1  0.6672802E-013  0.5930198E+02  0.7816164E-02  0.1266605E+00
        -11   -1    0    0    0    0  0.00000000000E+00  0.00000000000E+00  0.45593999997E+02  0.45594000000E+02  0.51100000000E-03 0.  1.
         11   -1    0    0    0    0 -0.00000000000E+00 -0.00000000000E+00 -0.45593999997E+02  0.45594000000E+02  0.51100000000E-03 0. -1.
    9900012    2    1    2    0    0 -0.27296082352E+02 -0.33837695292E+01 -0.16130478003E+02  0.59301979104E+02  0.50000063971E+02 0.  0.
         12    1    1    2    0    0  0.27296082352E+02  0.33837695292E+01  0.16130478003E+02  0.31886020896E+02  0.00000000000E+00 0. -1.
         11    1    3    3    0    0 -0.67061181006E+00 -0.81901019035E+01 -0.70685290059E+01  0.10839353853E+02  0.51100000000E-03 0. -1.
        -11    1    3    3    0    0 -0.26175053650E+02 -0.67004753220E+01 -0.19179043675E+02  0.33134053776E+02  0.51100000000E-03 0.  1.
         12    1    3    3    0    0 -0.45041689191E+00  0.11506807696E+02  0.10117094678E+02  0.15328571475E+02  0.00000000000E+00 0. -1.
</event>
<event>
 7    1  0.6672802E-013  0.5930185E+02  0.7816164E-02  0.1266605E+00
        -11   -1    0    0    0    0  0.00000000000E+00  0.00000000000E+00  0.45593999997E+02  0.45594000000E+02  0.51100000000E-03 0.  1.
         11   -1    0    0    0    0 -0.00000000000E+00 -0.00000000000E+00 -0.45593999997E+02  0.45594000000E+02  0.51100000000E-03 0. -1.
    9900012    2    1    2    0    0 -0.10499026715E+02  0.67877014970E+00  0.30100440739E+02  0.59301845896E+02  0.49999821030E+02 0.  0.
         12    1    1    2    0    0  0.10499026715E+02 -0.67877014970E+00 -0.30100440739E+02  0.31886154104E+02  0.00000000000E+00 0. -1.
         11    1    3    3    0    0 -0.81150329250E+01 -0.18566992039E+02 -0.70938190648E-02  0.20262946561E+02  0.51100000000E-03 0. -1.
        -11    1    3    3    0    0  0.50473041031E+00  0.24673569983E+01  0.17931988386E+02  0.18107976449E+02  0.51100000000E-03 0.  1.
        -12    1    3    3    0    0 -0.28887242007E+01  0.16778405191E+02  0.12175546172E+02  0.20930922885E+02  0.00000000000E+00 0.  1.
</event>
<event>
 7    1  0.6672802E-013  0.5930197E+02  0.7816164E-02  0.1266605E+00
        -11   -1    0    0    0    0  0.00000000000E+00  0.00000000000E+00  0.45593999997E+02  0.45594000000E+02  0.51100000000E-03 0.  1.
         11   -1    0    0    0    0 -0.00000000000E+00 -0.00000000000E+00 -0.45593999997E+02  0.45594000000E+02  0.51100000000E-03 0. -1.
    9900012    2    1    2    0    0  0.43822787643E+01 -0.20356156005E+02  0.24148318241E+02  0.59301972836E+02  0.50000052538E+02 0.  0.
         12    1    1    2    0    0 -0.43822787643E+01  0.20356156005E+02 -0.24148318241E+02  0.31886027164E+02  0.00000000000E+00 0. -1.
         11    1    3    3    0    0  0.20001287121E+01 -0.34661788334E+01  0.36592981488E+01  0.54226721985E+01  0.51100000000E-03 0. -1.
        -11    1    3    3    0    0  0.73046775639E+01 -0.26386943551E+02  0.29241000596E+02  0.40058272808E+02  0.51100000000E-03 0.  1.
         12    1    3    3    0    0 -0.49225275117E+01  0.94969663792E+01 -0.87519805036E+01  0.13821027829E+02  0.00000000000E+00 0. -1.
</event>
<event>
 7    1  0.6672802E-013  0.5930196E+02  0.7816164E-02  0.1266605E+00
        -11   -1    0    0    0    0  0.00000000000E+00  0.00000000000E+00  0.45593999997E+02  0.45594000000E+02  0.51100000000E-03 0. -1.
         11   -1    0    0    0    0 -0.00000000000E+00 -0.00000000000E+00 -0.45593999997E+02  0.45594000000E+02  0.51100000000E-03 0.  1.
    9900012    2    1    2    0    0 -0.20457462468E+02  0.23441702992E+02  0.69784133327E+01  0.59301961324E+02  0.50000031545E+02 0.  0.
         12    1    1    2    0    0  0.20457462468E+02 -0.23441702992E+02 -0.69784133327E+01  0.31886038676E+02  0.00000000000E+00 0. -1.
         11    1    3    3    0    0 -0.86930507758E+00  0.15618606563E+01  0.16217425041E+02  0.16315635913E+02  0.51100000000E-03 0. -1.
        -11    1    3    3    0    0  0.50954029120E+00  0.85485318220E+01  0.92439617086E+01  0.12601105346E+02  0.51100000000E-03 0.  1.
        -12    1    3    3    0    0 -0.20097697681E+02  0.13331310514E+02 -0.18482973417E+02  0.30385220065E+02  0.00000000000E+00 0.  1.
</event>
<event>
 7    1  0.6672802E-013  0.5930192E+02  0.7816164E-02  0.1266605E+00
        -11   -1    0    0    0    0  0.00000000000E+00  0.00000000000E+00  0.45593999997E+02  0.45594000000E+02  0.51100000000E-03 0. -1.
         11   -1    0    0    0    0 -0.00000000000E+00 -0.00000000000E+00 -0.45593999997E+02  0.45594000000E+02  0.51100000000E-03 0.  1.
    9900012    2    1    2    0    0 -0.10247040746E+01 -0.30962205141E+02 -0.75507546112E+01  0.59301920580E+02  0.49999957236E+02 0.  0.
         12    1    1    2    0    0  0.10247040746E+01  0.30962205141E+02  0.75507546112E+01  0.31886079420E+02  0.00000000000E+00 0. -1.
         11    1    3    3    0    0 -0.47869161041E+01 -0.34157418977E+01 -0.21365612179E+02  0.22160127314E+02  0.51100000000E-03 0.  1.
        -11    1    3    3    0    0  0.82710974410E+01 -0.48864585090E+01 -0.10574051021E+01  0.96647108311E+01  0.51100000000E-03 0. -1.
        -12    1    3    3    0    0 -0.45088854116E+01 -0.22660004734E+02  0.14872262670E+02  0.27477082435E+02  0.00000000000E+00 0.  1.
</event>
<event>
 7    1  0.6672802E-013  0.5930213E+02  0.7816164E-02  0.1266604E+00
        -11   -1    0    0    0    0  0.00000000000E+00  0.00000000000E+00  0.45593999997E+02  0.45594000000E+02  0.51100000000E-03 0. -1.
         11   -1    0    0    0    0 -0.00000000000E+00 -0.00000000000E+00 -0.45593999997E+02  0.45594000000E+02  0.51100000000E-03 0.  1.
    9900012    2    1    2    0    0  0.92074832286E+01 -0.45511931368E+01 -0.30186381389E+02  0.59302129654E+02  0.50000338536E+02 0.  0.
         12    1    1    2    0    0 -0.92074832286E+01  0.45511931368E+01  0.30186381389E+02  0.31885870346E+02  0.00000000000E+00 0. -1.
         11    1    3    3    0    0  0.55004285080E+01 -0.71784165471E+01 -0.20260786349E+02  0.22187470375E+02  0.51100000000E-03 0. -1.
        -11    1    3    3    0    0  0.17750628177E+02 -0.49013174350E+01 -0.13983498101E+00  0.18415408422E+02  0.51100000000E-03 0.  1.
         12    1    3    3    0    0 -0.14043573456E+02  0.75285408453E+01 -0.97857600588E+01  0.18699250857E+02  0.00000000000E+00 0. -1.
</event>
<event>
 7    1  0.6672802E-013  0.5930195E+02  0.7816164E-02  0.1266605E+00
        -11   -1    0    0    0    0  0.00000000000E+00  0.00000000000E+00  0.45593999997E+02  0.45594000000E+02  0.51100000000E-03 0. -1.
         11   -1    0    0    0    0 -0.00000000000E+00 -0.00000000000E+00 -0.45593999997E+02  0.45594000000E+02  0.51100000000E-03 0.  1.
    9900012    2    1    2    0    0 -0.24698598588E+02 -0.17579477474E+02 -0.98823640035E+01  0.59301954169E+02  0.50000018495E+02 0.  0.
         12    1    1    2    0    0  0.24698598588E+02  0.17579477474E+02  0.98823640035E+01  0.31886045831E+02  0.00000000000E+00 0. -1.
         11    1    3    3    0    0 -0.26722485310E+01 -0.98432755167E+00 -0.22018143361E+01  0.35996943720E+01  0.51100000000E-03 0. -1.
        -11    1    3    3    0    0 -0.30307290218E+02 -0.23989098263E+01  0.95732239650E+01  0.31873707441E+02  0.51100000000E-03 0.  1.
         12    1    3    3    0    0  0.82809401606E+01 -0.14196240096E+02 -0.17253773632E+02  0.23828552355E+02  0.00000000000E+00 0. -1.
</event>
<event>
 7    1  0.6672802E-013  0.5930170E+02  0.7816164E-02  0.1266606E+00
        -11   -1    0    0    0    0  0.00000000000E+00  0.00000000000E+00  0.45593999997E+02  0.45594000000E+02  0.51100000000E-03 0.  1.
         11   -1    0    0    0    0 -0.00000000000E+00 -0.00000000000E+00 -0.45593999997E+02  0.45594000000E+02  0.51100000000E-03 0. -1.
    9900012    2    1    2    0    0  0.25531189744E+02  0.27126638230E+01  0.18908624828E+02  0.59301697492E+02  0.49999550375E+02 0.  0.
         12    1    1    2    0    0 -0.25531189744E+02 -0.27126638230E+01 -0.18908624828E+02  0.31886302508E+02  0.00000000000E+00 0. -1.
         11    1    3    3    0    0 -0.35695657348E+01  0.13006773655E+02 -0.31015393832E+01  0.13839707629E+02  0.51100000000E-03 0. -1.
        -11    1    3    3    0    0  0.12809466095E+02  0.80760926841E+01  0.98281330526E+01  0.18052642307E+02  0.51100000000E-03 0.  1.
         12    1    3    3    0    0  0.16291289384E+02 -0.18370202516E+02  0.12182031159E+02  0.27409347556E+02  0.00000000000E+00 0. -1.
</event>
<event>
 7    1  0.6672802E-013  0.5930194E+02  0.7816164E-02  0.1266605E+00
        -11   -1    0    0    0    0  0.00000000000E+00  0.00000000000E+00  0.45593999997E+02  0.45594000000E+02  0.51100000000E-03 0.  1.
         11   -1    0    0    0    0 -0.00000000000E+00 -0.00000000000E+00 -0.45593999997E+02  0.45594000000E+02  0.51100000000E-03 0. -1.
    9900012    2    1    2    0    0 -0.13924049972E+02  0.28133411214E+02  0.55993510993E+01  0.59301941496E+02  0.49999995383E+02 0.  0.
         12    1    1    2    0    0  0.13924049972E+02 -0.28133411214E+02 -0.55993510993E+01  0.31886058504E+02  0.00000000000E+00 0. -1.
         11    1    3    3    0    0 -0.14393530174E+02  0.16276382368E+02 -0.12814673180E+02  0.25225189451E+02  0.51100000000E-03 0. -1.
        -11    1    3    3    0    0 -0.10031879795E+02 -0.17893663969E+01  0.11899264687E+02  0.15666299648E+02  0.51100000000E-03 0.  1.
        -12    1    3    3    0    0  0.10501359997E+02  0.13646395243E+02  0.65147595927E+01  0.18410452397E+02  0.00000000000E+00 0.  1.
</event>
<event>
 7    1  0.6672802E-013  0.5930192E+02  0.7816164E-02  0.1266605E+00
        -11   -1    0    0    0    0  0.00000000000E+00  0.00000000000E+00  0.45593999997E+02  0.45594000000E+02  0.51100000000E-03 0.  1.
         11   -1    0    0    0    0 -0.00000000000E+00 -0.00000000000E+00 -0.45593999997E+02  0.45594000000E+02  0.51100000000E-03 0. -1.
    9900012    2    1    2    0    0  0.98598602083E+01 -0.13244740093E+02  0.27277865048E+02  0.59301923022E+02  0.49999961691E+02 0.  0.
         12    1    1    2    0    0 -0.98598602083E+01  0.13244740093E+02 -0.27277865048E+02  0.31886076978E+02  0.00000000000E+00 0. -1.
         11    1    3    3    0    0 -0.97763643642E+01 -0.12266957748E+02  0.17143960292E+02  0.23237274525E+02  0.51100000000E-03 0. -1.
        -11    1    3    3    0    0  0.20684356185E+01  0.69510708025E+01  0.14580181710E+02  0.16284271865E+02  0.51100000000E-03 0.  1.
        -12    1    3    3    0    0  0.17567788954E+02 -0.79288531471E+01 -0.44462769550E+01  0.19780376632E+02  0.00000000000E+00 0.  1.
</event>
<event>
 7    1  0.6672802E-013  0.5930196E+02  0.7816164E-02  0.1266605E+00
        -11   -1    0    0    0    0  0.00000000000E+00  0.00000000000E+00  0.45593999997E+02  0.45594000000E+02  0.51100000000E-03 0.  1.
         11   -1    0    0    0    0 -0.00000000000E+00 -0.00000000000E+00 -0.45593999997E+02  0.45594000000E+02  0.51100000000E-03 0. -1.
    9900012    2    1    2    0    0  0.64936385272E+00  0.21513723741E+02  0.23525683547E+02  0.59301956517E+02  0.50000022778E+02 0.  0.
         12    1    1    2    0    0 -0.64936385272E+00 -0.21513723741E+02 -0.23525683547E+02  0.31886043483E+02  0.00000000000E+00 0. -1.
         11    1    3    3    0    0  0.56307789563E+00  0.18500476874E+01  0.63729543052E+01  0.66599009002E+01  0.51100000000E-03 0. -1.
        -11    1    3    3    0    0 -0.20459595660E+01  0.36297603876E+01  0.31042979814E+02  0.31321361832E+02  0.51100000000E-03 0.  1.
         12    1    3    3    0    0  0.21322455231E+01  0.16033915666E+02 -0.13890250572E+02  0.21320693786E+02  0.00000000000E+00 0. -1.
</event>
<event>
 7    1  0.6672802E-013  0.5930199E+02  0.7816164E-02  0.1266605E+00
        -11   -1    0    0    0    0  0.00000000000E+00  0.00000000000E+00  0.45593999997E+02  0.45594000000E+02  0.51100000000E-03 0. -1.
         11   -1    0    0    0    0 -0.00000000000E+00 -0.00000000000E+00 -0.45593999997E+02  0.45594000000E+02  0.51100000000E-03 0.  1.
    9900012    2    1    2    0    0 -0.19230180053E+02  0.23773218798E+02 -0.90416766709E+01  0.59301989370E+02  0.50000082693E+02 0.  0.
         12    1    1    2    0    0  0.19230180053E+02 -0.23773218798E+02  0.90416766709E+01  0.31886010630E+02  0.00000000000E+00 0. -1.
         11    1    3    3    0    0 -0.27603423541E+02  0.16670899329E+02 -0.48359101166E+01  0.32607574313E+02  0.51100000000E-03 0. -1.
        -11    1    3    3    0    0 -0.83082347434E+01  0.41448560199E+01 -0.27844506612E+01  0.96932843620E+01  0.51100000000E-03 0.  1.
        -12    1    3    3    0    0  0.16681478232E+02  0.29574634490E+01 -0.14213158931E+01  0.17001130695E+02  0.00000000000E+00 0.  1.
</event>
<event>
 7    1  0.6672802E-013  0.5930193E+02  0.7816164E-02  0.1266605E+00
        -11   -1    0    0    0    0  0.00000000000E+00  0.00000000000E+00  0.45593999997E+02  0.45594000000E+02  0.51100000000E-03 0.  1.
         11   -1    0    0    0    0 -0.00000000000E+00 -0.00000000000E+00 -0.45593999997E+02  0.45594000000E+02  0.51100000000E-03 0. -1.
    9900012    2    1    2    0    0 -0.17129362600E+02  0.12923370395E+01  0.26863294293E+02  0.59301925008E+02  0.49999965313E+02 0.  0.
         12    1    1    2    0    0  0.17129362600E+02 -0.12923370395E+01 -0.26863294293E+02  0.31886074992E+02  0.00000000000E+00 0. -1.
         11    1    3    3    0    0  0.99204498013E+01  0.65127300134E+01 -0.31919877035E+01  0.12289009816E+02  0.51100000000E-03 0. -1.
        -11    1    3    3    0    0 -0.60907324172E+01  0.86879106247E+01  0.59070926939E+01  0.12143745582E+02  0.51100000000E-03 0.  1.
         12    1    3    3    0    0 -0.20959079984E+02 -0.13908303599E+02  0.24148189303E+02  0.34869169611E+02  0.00000000000E+00 0. -1.
</event>
<event>
 7    1  0.6672802E-013  0.5930200E+02  0.7816164E-02  0.1266605E+00
        -11   -1    0    0    0    0  0.00000000000E+00  0.00000000000E+00  0.45593999997E+02  0.45594000000E+02  0.51100000000E-03 0. -1.
         11   -1    0    0    0    0 -0.00000000000E+00 -0.00000000000E+00 -0.45593999997E+02  0.45594000000E+02  0.51100000000E-03 0.  1.
    9900012    2    1    2    0    0 -0.13826161601E+02  0.25420955194E+02 -0.13391390274E+02  0.59301999293E+02  0.50000100791E+02 0.  0.
         12    1    1    2    0    0  0.13826161601E+02 -0.25420955194E+02  0.13391390274E+02  0.31886000707E+02  0.00000000000E+00 0. -1.
         11    1    3    3    0    0  0.26047609275E+01  0.10480200492E+02 -0.13296104748E+02  0.17129091732E+02  0.51100000000E-03 0. -1.
        -11    1    3    3    0    0 -0.21967929276E+02  0.67667312798E+01 -0.12621476476E+02  0.26223657975E+02  0.51100000000E-03 0.  1.
         12    1    3    3    0    0  0.55370067475E+01  0.81740234228E+01  0.12526190950E+02  0.15949249586E+02  0.00000000000E+00 0. -1.
</event>
<event>
 7    1  0.6672802E-013  0.5930195E+02  0.7816164E-02  0.1266605E+00
        -11   -1    0    0    0    0  0.00000000000E+00  0.00000000000E+00  0.45593999997E+02  0.45594000000E+02  0.51100000000E-03 0.  1.
         11   -1    0    0    0    0 -0.00000000000E+00 -0.00000000000E+00 -0.45593999997E+02  0.45594000000E+02  0.51100000000E-03 0. -1.
    9900012    2    1    2    0    0  0.11230951356E+02 -0.25577380228E+01  0.29732872404E+02  0.59301952996E+02  0.50000016356E+02 0.  0.
         12    1    1    2    0    0 -0.11230951356E+02  0.25577380228E+01 -0.29732872404E+02  0.31886047004E+02  0.00000000000E+00 0. -1.
         11    1    3    3    0    0  0.99262892245E+01 -0.66604169757E+00 -0.37388648103E+00  0.99556326104E+01  0.51100000000E-03 0. -1.
        -11    1    3    3    0    0  0.15556532072E+02  0.82580082886E+01  0.42364669239E+01  0.18114856976E+02  0.51100000000E-03 0.  1.
         12    1    3    3    0    0 -0.14251869940E+02 -0.10149704614E+02  0.25870291961E+02  0.31231463410E+02  0.00000000000E+00 0. -1.
</event>
<event>
 7    1  0.6672802E-013  0.5930193E+02  0.7816164E-02  0.1266605E+00
        -11   -1    0    0    0    0  0.00000000000E+00  0.00000000000E+00  0.45593999997E+02  0.45594000000E+02  0.51100000000E-03 0. -1.
         11   -1    0    0    0    0 -0.00000000000E+00 -0.00000000000E+00 -0.45593999997E+02  0.45594000000E+02  0.51100000000E-03 0.  1.
    9900012    2    1    2    0    0 -0.25039601309E+02 -0.26738883785E+01 -0.19559904706E+02  0.59301934315E+02  0.49999982286E+02 0.  0.
         12    1    1    2    0    0  0.25039601309E+02  0.26738883785E+01  0.19559904706E+02  0.31886065685E+02  0.00000000000E+00 0. -1.
         11    1    3    3    0    0 -0.24847935132E+01 -0.18117455471E+02  0.42352078394E+01  0.18771078212E+02  0.51100000000E-03 0. -1.
        -11    1    3    3    0    0  0.17591182091E+01  0.43714995749E+01  0.62613777952E-01  0.47125816866E+01  0.51100000000E-03 0.  1.
        -12    1    3    3    0    0 -0.24313926005E+02  0.11072067517E+02 -0.23857726323E+02  0.35818274417E+02  0.00000000000E+00 0.  1.
</event>
<event>
 7    1  0.6672802E-013  0.5930203E+02  0.7816164E-02  0.1266604E+00
        -11   -1    0    0    0    0  0.00000000000E+00  0.00000000000E+00  0.45593999997E+02  0.45594000000E+02  0.51100000000E-03 0.  1.
         11   -1    0    0    0    0 -0.00000000000E+00 -0.00000000000E+00 -0.45593999997E+02  0.45594000000E+02  0.51100000000E-03 0. -1.
    9900012    2    1    2    0    0  0.27449913162E+02 -0.35328545954E+01  0.15834649560E+02  0.59302032539E+02  0.50000161424E+02 0.  0.
         12    1    1    2    0    0 -0.27449913162E+02  0.35328545954E+01 -0.15834649560E+02  0.31885967461E+02  0.00000000000E+00 0. -1.
         11    1    3    3    0    0  0.62260764944E+01 -0.52223955308E+01 -0.24653633628E+01  0.84920822162E+01  0.51100000000E-03 0. -1.
        -11    1    3    3    0    0  0.21007889350E+02 -0.17906561688E+02  0.83982155608E+01  0.28853186849E+02  0.51100000000E-03 0.  1.
         12    1    3    3    0    0  0.21594731750E+00  0.19596102624E+02  0.99017973619E+01  0.21956763475E+02  0.00000000000E+00 0. -1.
</event>
<event>
 7    1  0.6672802E-013  0.5930197E+02  0.7816164E-02  0.1266605E+00
        -11   -1    0    0    0    0  0.00000000000E+00  0.00000000000E+00  0.45593999997E+02  0.45594000000E+02  0.51100000000E-03 0.  1.
         11   -1    0    0    0    0 -0.00000000000E+00 -0.00000000000E+00 -0.45593999997E+02  0.45594000000E+02  0.51100000000E-03 0. -1.
    9900012    2    1    2    0    0  0.25928870744E+02 -0.14968941887E+02  0.10970098657E+02  0.59301974474E+02  0.50000055527E+02 0.  0.
         12    1    1    2    0    0 -0.25928870744E+02  0.14968941887E+02 -0.10970098657E+02  0.31886025526E+02  0.00000000000E+00 0. -1.
         11    1    3    3    0    0  0.24670763075E+02 -0.24431657812E+02  0.14730929024E+02  0.37716743289E+02  0.51100000000E-03 0.  1.
        -11    1    3    3    0    0  0.95434717936E+01  0.79925880120E+01 -0.42564662564E+01  0.13155866458E+02  0.51100000000E-03 0. -1.
        -12    1    3    3    0    0 -0.82853641253E+01  0.14701279131E+01  0.49563588982E+00  0.84293647273E+01  0.00000000000E+00 0.  1.
</event>
<event>
 7    1  0.6672802E-013  0.5930185E+02  0.7816164E-02  0.1266605E+00
        -11   -1    0    0    0    0  0.00000000000E+00  0.00000000000E+00  0.45593999997E+02  0.45594000000E+02  0.51100000000E-03 0.  1.
         11   -1    0    0    0    0 -0.00000000000E+00 -0.00000000000E+00 -0.45593999997E+02  0.45594000000E+02  0.51100000000E-03 0. -1.
    9900012    2    1    2    0    0  0.22662876590E+01 -0.31017260764E+02  0.70370620018E+01  0.59301846788E+02  0.49999822658E+02 0.  0.
         12    1    1    2    0    0 -0.22662876590E+01  0.31017260764E+02 -0.70370620018E+01  0.31886153212E+02  0.00000000000E+00 0. -1.
         11    1    3    3    0    0 -0.22352022566E+01 -0.62972753210E+01  0.64931570309E+01  0.93173437248E+01  0.51100000000E-03 0. -1.
        -11    1    3    3    0    0 -0.15317633925E+02 -0.23798687927E+02 -0.63036310698E+01  0.28995572439E+02  0.51100000000E-03 0.  1.
        -12    1    3    3    0    0  0.19819123841E+02 -0.92129751574E+00  0.68475360407E+01  0.20988930624E+02  0.00000000000E+00 0.  1.
</event>
<event>
 7    1  0.6672802E-013  0.5930170E+02  0.7816164E-02  0.1266606E+00
        -11   -1    0    0    0    0  0.00000000000E+00  0.00000000000E+00  0.45593999997E+02  0.45594000000E+02  0.51100000000E-03 0.  1.
         11   -1    0    0    0    0 -0.00000000000E+00 -0.00000000000E+00 -0.45593999997E+02  0.45594000000E+02  0.51100000000E-03 0. -1.
    9900012    2    1    2    0    0 -0.75672602514E+01 -0.27436787685E+02  0.14376895581E+02  0.59301703998E+02  0.49999562242E+02 0.  0.
         12    1    1    2    0    0  0.75672602514E+01  0.27436787685E+02 -0.14376895581E+02  0.31886296002E+02  0.00000000000E+00 0. -1.
         11    1    3    3    0    0 -0.82534314726E+01 -0.18985441664E+02 -0.54598802893E+01  0.21409727212E+02  0.51100000000E-03 0. -1.
        -11    1    3    3    0    0 -0.76281610167E+00 -0.76919396440E+01 -0.73438998080E+01  0.10662114638E+02  0.51100000000E-03 0.  1.
        -12    1    3    3    0    0  0.14489873229E+01 -0.75940637698E+00  0.27180675679E+02  0.27229862149E+02  0.00000000000E+00 0.  1.
</event>
<event>
 7    1  0.6672802E-013  0.5930197E+02  0.7816164E-02  0.1266605E+00
        -11   -1    0    0    0    0  0.00000000000E+00  0.00000000000E+00  0.45593999997E+02  0.45594000000E+02  0.51100000000E-03 0.  1.
         11   -1    0    0    0    0 -0.00000000000E+00 -0.00000000000E+00 -0.45593999997E+02  0.45594000000E+02  0.51100000000E-03 0. -1.
    9900012    2    1    2    0    0  0.14260174125E+02 -0.28113874356E+01  0.28380671038E+02  0.59301969298E+02  0.50000046086E+02 0.  0.
         12    1    1    2    0    0 -0.14260174125E+02  0.28113874356E+01 -0.28380671038E+02  0.31886030702E+02  0.00000000000E+00 0. -1.
         11    1    3    3    0    0  0.12231050795E+02 -0.37368619358E+01  0.12657825650E+02  0.17993979302E+02  0.51100000000E-03 0. -1.
        -11    1    3    3    0    0 -0.73900152432E+01 -0.32387088275E+01  0.25719558988E+02  0.26955468368E+02  0.51100000000E-03 0.  1.
         12    1    3    3    0    0  0.94191385731E+01  0.41641833277E+01 -0.99967136001E+01  0.14352521627E+02  0.00000000000E+00 0. -1.
</event>
<event>
 7    1  0.6672802E-013  0.5930186E+02  0.7816164E-02  0.1266605E+00
        -11   -1    0    0    0    0  0.00000000000E+00  0.00000000000E+00  0.45593999997E+02  0.45594000000E+02  0.51100000000E-03 0.  1.
         11   -1    0    0    0    0 -0.00000000000E+00 -0.00000000000E+00 -0.45593999997E+02  0.45594000000E+02  0.51100000000E-03 0. -1.
    9900012    2    1    2    0    0 -0.21274516787E+02 -0.23575691338E+02  0.28822496267E+01  0.59301864306E+02  0.49999854607E+02 0.  0.
         12    1    1    2    0    0  0.21274516787E+02  0.23575691338E+02 -0.28822496267E+01  0.31886135694E+02  0.00000000000E+00 0. -1.
         11    1    3    3    0    0  0.75076264563E+01  0.81938898922E+01  0.39333417757E+01  0.11788785534E+02  0.51100000000E-03 0.  1.
        -11    1    3    3    0    0  0.57816797344E+00  0.23852006971E+01  0.13193457565E+00  0.24578176426E+01  0.51100000000E-03 0. -1.
         12    1    3    3    0    0 -0.29360311217E+02 -0.34154781927E+02 -0.11830267247E+01  0.45055261130E+02  0.00000000000E+00 0. -1.
</event>
<event>
 7    1  0.6672802E-013  0.5930197E+02  0.7816164E-02  0.1266605E+00
        -11   -1    0    0    0    0  0.00000000000E+00  0.00000000000E+00  0.45593999997E+02  0.45594000000E+02  0.51100000000E-03 0.  1.
         11   -1    0    0    0    0 -0.00000000000E+00 -0.00000000000E+00 -0.45593999997E+02  0.45594000000E+02  0.51100000000E-03 0. -1.
    9900012    2    1    2    0    0  0.21840538860E+02 -0.15001969287E+02  0.17738398781E+02  0.59301968395E+02  0.50000044440E+02 0.  0.
         12    1    1    2    0    0 -0.21840538860E+02  0.15001969287E+02 -0.17738398781E+02  0.31886031605E+02  0.00000000000E+00 0. -1.
         11    1    3    3    0    0  0.11414272222E+02  0.17106107668E+01  0.98007000597E+00  0.11583278337E+02  0.51100000000E-03 0. -1.
        -11    1    3    3    0    0  0.18706179599E+02 -0.25701217288E+02  0.15695166350E+02  0.35451544004E+02  0.51100000000E-03 0.  1.
         12    1    3    3    0    0 -0.82799129606E+01  0.89886372343E+01  0.10631624254E+01  0.12267146054E+02  0.00000000000E+00 0. -1.
</event>
<event>
 7    1  0.6672802E-013  0.5930190E+02  0.7816164E-02  0.1266605E+00
        -11   -1    0    0    0    0  0.00000000000E+00  0.00000000000E+00  0.45593999997E+02  0.45594000000E+02  0.51100000000E-03 0. -1.
         11   -1    0    0    0    0 -0.00000000000E+00 -0.00000000000E+00 -0.45593999997E+02  0.45594000000E+02  0.51100000000E-03 0.  1.
    9900012    2    1    2    0    0 -0.29189234167E+02 -0.49476372203E+01  0.11841988084E+02  0.59301902919E+02  0.49999925027E+02 0.  0.
         12    1    1    2    0    0  0.29189234167E+02  0.49476372203E+01 -0.11841988084E+02  0.31886097081E+02  0.00000000000E+00 0. -1.
         11    1    3    3    0    0 -0.72257199104E+01 -0.99852064305E+01  0.80149087332E+00  0.12351427592E+02  0.51100000000E-03 0. -1.
        -11    1    3    3    0    0 -0.24146262699E+02  0.67346267750E+01 -0.90644106743E+01  0.26656345235E+02  0.51100000000E-03 0.  1.
         12    1    3    3    0    0  0.21827484430E+01 -0.16970575648E+01  0.20104907885E+02  0.20294130092E+02  0.00000000000E+00 0. -1.
</event>
<event>
 7    1  0.6672802E-013  0.5930226E+02  0.7816164E-02  0.1266604E+00
        -11   -1    0    0    0    0  0.00000000000E+00  0.00000000000E+00  0.45593999997E+02  0.45594000000E+02  0.51100000000E-03 0.  1.
         11   -1    0    0    0    0 -0.00000000000E+00 -0.00000000000E+00 -0.45593999997E+02  0.45594000000E+02  0.51100000000E-03 0. -1.
    9900012    2    1    2    0    0  0.53601720656E+01  0.11352524863E+02  0.29310220566E+02  0.59302261888E+02  0.50000579697E+02 0.  0.
         12    1    1    2    0    0 -0.53601720656E+01 -0.11352524863E+02 -0.29310220566E+02  0.31885738112E+02  0.00000000000E+00 0. -1.
         11    1    3    3    0    0 -0.77917403874E+01 -0.46372839889E+00  0.20620097223E+02  0.22048008346E+02  0.51100000000E-03 0. -1.
        -11    1    3    3    0    0  0.15553859061E+02  0.14413968348E+02  0.17669839283E+02  0.27602685300E+02  0.51100000000E-03 0.  1.
         12    1    3    3    0    0 -0.24019466083E+01 -0.25977150858E+01 -0.89797159395E+01  0.96515682420E+01  0.00000000000E+00 0. -1.
</event>
<event>
 7    1  0.6672802E-013  0.5930194E+02  0.7816164E-02  0.1266605E+00
        -11   -1    0    0    0    0  0.00000000000E+00  0.00000000000E+00  0.45593999997E+02  0.45594000000E+02  0.51100000000E-03 0.  1.
         11   -1    0    0    0    0 -0.00000000000E+00 -0.00000000000E+00 -0.45593999997E+02  0.45594000000E+02  0.51100000000E-03 0. -1.
    9900012    2    1    2    0    0 -0.18394503193E+02  0.20729658439E+02  0.15768467152E+02  0.59301936539E+02  0.49999986342E+02 0.  0.
         12    1    1    2    0    0  0.18394503193E+02 -0.20729658439E+02 -0.15768467152E+02  0.31886063461E+02  0.00000000000E+00 0. -1.
         11    1    3    3    0    0 -0.11357687748E+02 -0.75530186663E+01 -0.47306642163E+01  0.14436909162E+02  0.51100000000E-03 0. -1.
        -11    1    3    3    0    0 -0.91821867924E+01  0.56063512654E+01 -0.39399125449E+01  0.11457165440E+02  0.51100000000E-03 0.  1.
        -12    1    3    3    0    0  0.21453713476E+01  0.22676325840E+02  0.24439043913E+02  0.33407861937E+02  0.00000000000E+00 0.  1.
</event>
<event>
 7    1  0.6672802E-013  0.5930194E+02  0.7816164E-02  0.1266605E+00
        -11   -1    0    0    0    0  0.00000000000E+00  0.00000000000E+00  0.45593999997E+02  0.45594000000E+02  0.51100000000E-03 0.  1.
         11   -1    0    0    0    0 -0.00000000000E+00 -0.00000000000E+00 -0.45593999997E+02  0.45594000000E+02  0.51100000000E-03 0. -1.
    9900012    2    1    2    0    0 -0.12763058882E+01  0.30504186555E+02  0.91970804967E+01  0.59301942800E+02  0.49999997762E+02 0.  0.
         12    1    1    2    0    0  0.12763058882E+01 -0.30504186555E+02 -0.91970804967E+01  0.31886057200E+02  0.00000000000E+00 0. -1.
         11    1    3    3    0    0 -0.55523918061E+01  0.25873037232E+01 -0.14136242782E+02  0.15406380353E+02  0.51100000000E-03 0. -1.
        -11    1    3    3    0    0 -0.11117384646E+01  0.19476055495E+02  0.11322314912E+01  0.19540589768E+02  0.51100000000E-03 0.  1.
         12    1    3    3    0    0  0.53878243825E+01  0.84408273363E+01  0.22201091787E+02  0.24354972680E+02  0.00000000000E+00 0. -1.
</event>
<event>
 7    1  0.6672802E-013  0.5930192E+02  0.7816164E-02  0.1266605E+00
        -11   -1    0    0    0    0  0.00000000000E+00  0.00000000000E+00  0.45593999997E+02  0.45594000000E+02  0.51100000000E-03 0. -1.
         11   -1    0    0    0    0 -0.00000000000E+00 -0.00000000000E+00 -0.45593999997E+02  0.45594000000E+02  0.51100000000E-03 0.  1.
    9900012    2    1    2    0    0  0.15208906412E+02 -0.25277873498E+02 -0.12101247507E+02  0.59301922881E+02  0.49999961433E+02 0.  0.
         12    1    1    2    0    0 -0.15208906412E+02  0.25277873498E+02  0.12101247507E+02  0.31886077119E+02  0.00000000000E+00 0. -1.
         11    1    3    3    0    0  0.12123788310E+01 -0.35970078149E+02 -0.14442281746E+02  0.38780096529E+02  0.51100000000E-03 0.  1.
        -11    1    3    3    0    0  0.47684386598E+01  0.89364584722E+01  0.41663851648E+01  0.10952491172E+02  0.51100000000E-03 0. -1.
        -12    1    3    3    0    0  0.92280889209E+01  0.17557461789E+01 -0.18253509261E+01  0.95693351797E+01  0.00000000000E+00 0.  1.
</event>
<event>
 7    1  0.6672802E-013  0.5930194E+02  0.7816164E-02  0.1266605E+00
        -11   -1    0    0    0    0  0.00000000000E+00  0.00000000000E+00  0.45593999997E+02  0.45594000000E+02  0.51100000000E-03 0.  1.
         11   -1    0    0    0    0 -0.00000000000E+00 -0.00000000000E+00 -0.45593999997E+02  0.45594000000E+02  0.51100000000E-03 0. -1.
    9900012    2    1    2    0    0 -0.15401796409E+02 -0.12218083624E+02  0.25104259870E+02  0.59301940920E+02  0.49999994332E+02 0.  0.
         12    1    1    2    0    0  0.15401796409E+02  0.12218083624E+02 -0.25104259870E+02  0.31886059080E+02  0.00000000000E+00 0. -1.
         11    1    3    3    0    0 -0.10276822528E+01  0.27714659519E+01  0.21148286974E+02  0.21353856713E+02  0.51100000000E-03 0. -1.
        -11    1    3    3    0    0  0.19951877120E+01 -0.15711495809E+01  0.14205595493E+02  0.14430808314E+02  0.51100000000E-03 0.  1.
         12    1    3    3    0    0 -0.16369301868E+02 -0.13418399995E+02 -0.10249622597E+02  0.23517275893E+02  0.00000000000E+00 0. -1.
</event>
<event>
 7    1  0.6672802E-013  0.5930194E+02  0.7816164E-02  0.1266605E+00
        -11   -1    0    0    0    0  0.00000000000E+00  0.00000000000E+00  0.45593999997E+02  0.45594000000E+02  0.51100000000E-03 0.  1.
         11   -1    0    0    0    0 -0.00000000000E+00 -0.00000000000E+00 -0.45593999997E+02  0.45594000000E+02  0.51100000000E-03 0. -1.
    9900012    2    1    2    0    0  0.95634349064E+01 -0.11856485885E+02  0.28012232627E+02  0.59301941581E+02  0.49999995538E+02 0.  0.
         12    1    1    2    0    0 -0.95634349064E+01  0.11856485885E+02 -0.28012232627E+02  0.31886058419E+02  0.00000000000E+00 0. -1.
         11    1    3    3    0    0 -0.62442590600E+01 -0.21502993552E+02  0.93031867699E+01  0.24247036670E+02  0.51100000000E-03 0. -1.
        -11    1    3    3    0    0 -0.10674847075E+01  0.57925377658E+01 -0.35349723287E+01  0.68694284329E+01  0.51100000000E-03 0.  1.
        -12    1    3    3    0    0  0.16875178674E+02  0.38539699016E+01  0.22244018186E+02  0.28185476479E+02  0.00000000000E+00 0.  1.
</event>
<event>
 7    1  0.6672802E-013  0.5930196E+02  0.7816164E-02  0.1266605E+00
        -11   -1    0    0    0    0  0.00000000000E+00  0.00000000000E+00  0.45593999997E+02  0.45594000000E+02  0.51100000000E-03 0. -1.
         11   -1    0    0    0    0 -0.00000000000E+00 -0.00000000000E+00 -0.45593999997E+02  0.45594000000E+02  0.51100000000E-03 0.  1.
    9900012    2    1    2    0    0 -0.19240440430E+02 -0.25328534807E+02  0.22339551093E+01  0.59301956362E+02  0.50000022496E+02 0.  0.
         12    1    1    2    0    0  0.19240440430E+02  0.25328534807E+02 -0.22339551093E+01  0.31886043638E+02  0.00000000000E+00 0. -1.
         11    1    3    3    0    0  0.21134153192E+01 -0.22592588198E+01 -0.28808114601E+01  0.42272744949E+01  0.51100000000E-03 0. -1.
        -11    1    3    3    0    0  0.12872441947E+02 -0.14763877416E+02  0.26949658226E+01  0.19772068153E+02  0.51100000000E-03 0.  1.
        -12    1    3    3    0    0 -0.34226297696E+02 -0.83053985718E+01  0.24198007468E+01  0.35302613714E+02  0.00000000000E+00 0.  1.
</event>
<event>
 7    1  0.6672802E-013  0.5930196E+02  0.7816164E-02  0.1266605E+00
        -11   -1    0    0    0    0  0.00000000000E+00  0.00000000000E+00  0.45593999997E+02  0.45594000000E+02  0.51100000000E-03 0. -1.
         11   -1    0    0    0    0 -0.00000000000E+00 -0.00000000000E+00 -0.45593999997E+02  0.45594000000E+02  0.51100000000E-03 0.  1.
    9900012    2    1    2    0    0 -0.81338892505E+01  0.21594626508E+02 -0.22005257359E+02  0.59301962307E+02  0.50000033336E+02 0.  0.
         12    1    1    2    0    0  0.81338892505E+01 -0.21594626508E+02  0.22005257359E+02  0.31886037693E+02  0.00000000000E+00 0. -1.
         11    1    3    3    0    0  0.11165998171E+02  0.80621619095E+01  0.51012045577E+01  0.14686737487E+02  0.51100000000E-03 0. -1.
        -11    1    3    3    0    0 -0.10992223777E+02 -0.59872231764E+01 -0.37587341646E+01  0.13069196904E+02  0.51100000000E-03 0.  1.
         12    1    3    3    0    0 -0.83076636448E+01  0.19519687775E+02 -0.23347727752E+02  0.31546027915E+02  0.00000000000E+00 0. -1.
</event>
<event>
 7    1  0.6672802E-013  0.5930194E+02  0.7816164E-02  0.1266605E+00
        -11   -1    0    0    0    0  0.00000000000E+00  0.00000000000E+00  0.45593999997E+02  0.45594000000E+02  0.51100000000E-03 0. -1.
         11   -1    0    0    0    0 -0.00000000000E+00 -0.00000000000E+00 -0.45593999997E+02  0.45594000000E+02  0.51100000000E-03 0.  1.
    9900012    2    1    2    0    0  0.26164504716E+02  0.16772454567E+02  0.71291015261E+01  0.59301943050E+02  0.49999998217E+02 0.  0.
         12    1    1    2    0    0 -0.26164504716E+02 -0.16772454567E+02 -0.71291015261E+01  0.31886056950E+02  0.00000000000E+00 0. -1.
         11    1    3    3    0    0  0.15706612997E+02  0.18134337201E+00  0.17403953289E+02  0.23444149965E+02  0.51100000000E-03 0. -1.
        -11    1    3    3    0    0  0.77494076168E+00  0.13004926720E+02  0.76962561828E+01  0.15131457685E+02  0.51100000000E-03 0.  1.
        -12    1    3    3    0    0  0.96829509573E+01  0.35861844751E+01 -0.17971107945E+02  0.20726335400E+02  0.00000000000E+00 0.  1.
</event>
<event>
 7    1  0.6672802E-013  0.5930193E+02  0.7816164E-02  0.1266605E+00
        -11   -1    0    0    0    0  0.00000000000E+00  0.00000000000E+00  0.45593999997E+02  0.45594000000E+02  0.51100000000E-03 0. -1.
         11   -1    0    0    0    0 -0.00000000000E+00 -0.00000000000E+00 -0.45593999997E+02  0.45594000000E+02  0.51100000000E-03 0.  1.
    9900012    2    1    2    0    0 -0.24140331190E+02 -0.29398705534E+01 -0.20623363478E+02  0.59301928590E+02  0.49999971845E+02 0.  0.
         12    1    1    2    0    0  0.24140331190E+02  0.29398705534E+01  0.20623363478E+02  0.31886071410E+02  0.00000000000E+00 0. -1.
         11    1    3    3    0    0 -0.65996288847E+01 -0.67424545770E+01  0.13943027399E+01  0.95372886886E+01  0.51100000000E-03 0. -1.
        -11    1    3    3    0    0 -0.24067368042E+02  0.39116501028E+01  0.23892044707E+01  0.24499949168E+02  0.51100000000E-03 0.  1.
        -12    1    3    3    0    0  0.65266657363E+01 -0.10906607921E+00 -0.24406870688E+02  0.25264690733E+02  0.00000000000E+00 0.  1.
</event>
<event>
 7    1  0.6672802E-013  0.5930196E+02  0.7816164E-02  0.1266605E+00
        -11   -1    0    0    0    0  0.00000000000E+00  0.00000000000E+00  0.45593999997E+02  0.45594000000E+02  0.51100000000E-03 0.  1.
         11   -1    0    0    0    0 -0.00000000000E+00 -0.00000000000E+00 -0.45593999997E+02  0.45594000000E+02  0.51100000000E-03 0. -1.
    9900012    2    1    2    0    0  0.29202942770E+02 -0.10222880459E+02  0.77071636470E+01  0.59301960378E+02  0.50000029818E+02 0.  0.
         12    1    1    2    0    0 -0.29202942770E+02  0.10222880459E+02 -0.77071636470E+01  0.31886039622E+02  0.00000000000E+00 0. -1.
         11    1    3    3    0    0  0.17749703600E+02 -0.26622563211E+02  0.87602390323E+01  0.33174608332E+02  0.51100000000E-03 0.  1.
        -11    1    3    3    0    0 -0.38805126013E+01  0.49773386077E+00  0.67147905725E+00  0.39695089659E+01  0.51100000000E-03 0. -1.
        -12    1    3    3    0    0  0.15333751772E+02  0.15901948891E+02 -0.17245544426E+01  0.22157843080E+02  0.00000000000E+00 0.  1.
</event>
<event>
 7    1  0.6672802E-013  0.5930193E+02  0.7816164E-02  0.1266605E+00
        -11   -1    0    0    0    0  0.00000000000E+00  0.00000000000E+00  0.45593999997E+02  0.45594000000E+02  0.51100000000E-03 0.  1.
         11   -1    0    0    0    0 -0.00000000000E+00 -0.00000000000E+00 -0.45593999997E+02  0.45594000000E+02  0.51100000000E-03 0. -1.
    9900012    2    1    2    0    0 -0.29743459920E+02  0.47244929766E+01  0.10475072224E+02  0.59301931255E+02  0.49999976705E+02 0.  0.
         12    1    1    2    0    0  0.29743459920E+02 -0.47244929766E+01 -0.10475072224E+02  0.31886068745E+02  0.00000000000E+00 0. -1.
         11    1    3    3    0    0 -0.31632988063E+02  0.75088010372E+01  0.21358049548E+02  0.38899798297E+02  0.51100000000E-03 0. -1.
        -11    1    3    3    0    0  0.23073984358E+01  0.22548178867E+01  0.37343557802E+01  0.49349472741E+01  0.51100000000E-03 0.  1.
         12    1    3    3    0    0 -0.41787029286E+00 -0.50391259473E+01 -0.14617333104E+02  0.15467185683E+02  0.00000000000E+00 0. -1.
</event>
<event>
 7    1  0.6672802E-013  0.5930196E+02  0.7816164E-02  0.1266605E+00
        -11   -1    0    0    0    0  0.00000000000E+00  0.00000000000E+00  0.45593999997E+02  0.45594000000E+02  0.51100000000E-03 0.  1.
         11   -1    0    0    0    0 -0.00000000000E+00 -0.00000000000E+00 -0.45593999997E+02  0.45594000000E+02  0.51100000000E-03 0. -1.
    9900012    2    1    2    0    0 -0.10421273437E+02 -0.20135073186E+02  0.22420866705E+02  0.59301962679E+02  0.50000034015E+02 0.  0.
         12    1    1    2    0    0  0.10421273437E+02  0.20135073186E+02 -0.22420866705E+02  0.31886037321E+02  0.00000000000E+00 0. -1.
         11    1    3    3    0    0 -0.62532968690E+01 -0.78726453237E+01 -0.10870205902E+02  0.14806878224E+02  0.51100000000E-03 0. -1.
        -11    1    3    3    0    0  0.25459985531E+01 -0.36541610401E+01 -0.37852628754E+01  0.58449308667E+01  0.51100000000E-03 0.  1.
        -12    1    3    3    0    0 -0.67139751209E+01 -0.86082668219E+01  0.37076335482E+02  0.38650153588E+02  0.00000000000E+00 0.  1.
</event>
<event>
 7    1  0.6672802E-013  0.5930196E+02  0.7816164E-02  0.1266605E+00
        -11   -1    0    0    0    0  0.00000000000E+00  0.00000000000E+00  0.45593999997E+02  0.45594000000E+02  0.51100000000E-03 0.  1.
         11   -1    0    0    0    0 -0.00000000000E+00 -0.00000000000E+00 -0.45593999997E+02  0.45594000000E+02  0.51100000000E-03 0. -1.
    9900012    2    1    2    0    0 -0.29998541304E+02 -0.21801074219E+01  0.10585562965E+02  0.59301960860E+02  0.50000030698E+02 0.  0.
         12    1    1    2    0    0  0.29998541304E+02  0.21801074219E+01 -0.10585562965E+02  0.31886039140E+02  0.00000000000E+00 0. -1.
         11    1    3    3    0    0  0.86605934013E+01  0.50136758825E+01 -0.77989833480E+01  0.12687275730E+02  0.51100000000E-03 0. -1.
        -11    1    3    3    0    0 -0.17301941067E+02  0.32622715011E+01  0.19624681141E+01  0.17715836458E+02  0.51100000000E-03 0.  1.
        -12    1    3    3    0    0 -0.21357193638E+02 -0.10456054806E+02  0.16422078199E+02  0.28898848672E+02  0.00000000000E+00 0.  1.
</event>
<event>
 7    1  0.6672802E-013  0.5930199E+02  0.7816164E-02  0.1266605E+00
        -11   -1    0    0    0    0  0.00000000000E+00  0.00000000000E+00  0.45593999997E+02  0.45594000000E+02  0.51100000000E-03 0. -1.
         11   -1    0    0    0    0 -0.00000000000E+00 -0.00000000000E+00 -0.45593999997E+02  0.45594000000E+02  0.51100000000E-03 0.  1.
    9900012    2    1    2    0    0  0.19573654841E+02  0.13230564370E+02  0.21413583399E+02  0.59301994428E+02  0.50000091917E+02 0.  0.
         12    1    1    2    0    0 -0.19573654841E+02 -0.13230564370E+02 -0.21413583399E+02  0.31886005572E+02  0.00000000000E+00 0. -1.
         11    1    3    3    0    0 -0.31070271106E+01  0.58552178650E+00 -0.70967405346E+01  0.77691814050E+01  0.51100000000E-03 0. -1.
        -11    1    3    3    0    0 -0.51054568786E+01 -0.71685231501E+01  0.58072938002E+01  0.10544101462E+02  0.51100000000E-03 0.  1.
        -12    1    3    3    0    0  0.27786138830E+02  0.19813565734E+02  0.22703030133E+02  0.40988711561E+02  0.00000000000E+00 0.  1.
</event>
<event>
 7    1  0.6672802E-013  0.5930195E+02  0.7816164E-02  0.1266605E+00
        -11   -1    0    0    0    0  0.00000000000E+00  0.00000000000E+00  0.45593999997E+02  0.45594000000E+02  0.51100000000E-03 0. -1.
         11   -1    0    0    0    0 -0.00000000000E+00 -0.00000000000E+00 -0.45593999997E+02  0.45594000000E+02  0.51100000000E-03 0.  1.
    9900012    2    1    2    0    0 -0.28259386358E+02 -0.64367277326E+01 -0.13292688817E+02  0.59301953565E+02  0.50000017394E+02 0.  0.
         12    1    1    2    0    0  0.28259386358E+02  0.64367277326E+01  0.13292688817E+02  0.31886046435E+02  0.00000000000E+00 0. -1.
         11    1    3    3    0    0  0.28987646322E+01 -0.24227246514E+00  0.51749114747E+01  0.59364333882E+01  0.51100000000E-03 0. -1.
        -11    1    3    3    0    0 -0.17268306663E+01 -0.13146890751E+01 -0.23076636606E+02  0.23178470804E+02  0.51100000000E-03 0.  1.
         12    1    3    3    0    0 -0.29431320324E+02 -0.48797661924E+01  0.46090363141E+01  0.30187049373E+02  0.00000000000E+00 0. -1.
</event>
<event>
 7    1  0.6672802E-013  0.5930194E+02  0.7816164E-02  0.1266605E+00
        -11   -1    0    0    0    0  0.00000000000E+00  0.00000000000E+00  0.45593999997E+02  0.45594000000E+02  0.51100000000E-03 0.  1.
         11   -1    0    0    0    0 -0.00000000000E+00 -0.00000000000E+00 -0.45593999997E+02  0.45594000000E+02  0.51100000000E-03 0. -1.
    9900012    2    1    2    0    0  0.14033927580E+02 -0.27329582460E+02  0.85360208779E+01  0.59301939517E+02  0.49999991773E+02 0.  0.
         12    1    1    2    0    0 -0.14033927580E+02  0.27329582460E+02 -0.85360208779E+01  0.31886060483E+02  0.00000000000E+00 0. -1.
         11    1    3    3    0    0  0.11970377090E+02  0.30979312733E+01 -0.46486471473E+01  0.13209732261E+02  0.51100000000E-03 0. -1.
        -11    1    3    3    0    0  0.36054561887E+01  0.53675128120E+01 -0.25635673980E+01  0.69556729495E+01  0.51100000000E-03 0.  1.
        -12    1    3    3    0    0 -0.15419056988E+01 -0.35795026545E+02  0.15748235423E+02  0.39136534306E+02  0.00000000000E+00 0.  1.
</event>
<event>
 7    1  0.6672802E-013  0.5930193E+02  0.7816164E-02  0.1266605E+00
        -11   -1    0    0    0    0  0.00000000000E+00  0.00000000000E+00  0.45593999997E+02  0.45594000000E+02  0.51100000000E-03 0.  1.
         11   -1    0    0    0    0 -0.00000000000E+00 -0.00000000000E+00 -0.45593999997E+02  0.45594000000E+02  0.51100000000E-03 0. -1.
    9900012    2    1    2    0    0  0.44294292401E+01 -0.19032824916E+01  0.31519507708E+02  0.59301926335E+02  0.49999967733E+02 0.  0.
         12    1    1    2    0    0 -0.44294292401E+01  0.19032824916E+01 -0.31519507708E+02  0.31886073665E+02  0.00000000000E+00 0. -1.
         11    1    3    3    0    0 -0.63083104810E+01  0.12496094965E+02  0.46751948024E+01  0.14758205081E+02  0.51100000000E-03 0. -1.
        -11    1    3    3    0    0 -0.50800788990E+01 -0.12946461707E+02  0.24926713537E+02  0.28543985712E+02  0.51100000000E-03 0.  1.
         12    1    3    3    0    0  0.15817818620E+02 -0.14529157501E+01  0.19175993687E+01  0.15999735542E+02  0.00000000000E+00 0. -1.
</event>
<event>
 7    1  0.6672802E-013  0.5930194E+02  0.7816164E-02  0.1266605E+00
        -11   -1    0    0    0    0  0.00000000000E+00  0.00000000000E+00  0.45593999997E+02  0.45594000000E+02  0.51100000000E-03 0. -1.
         11   -1    0    0    0    0 -0.00000000000E+00 -0.00000000000E+00 -0.45593999997E+02  0.45594000000E+02  0.51100000000E-03 0.  1.
    9900012    2    1    2    0    0 -0.15805252949E+01 -0.28805451899E+01 -0.31716325399E+02  0.59301938820E+02  0.49999990502E+02 0.  0.
         12    1    1    2    0    0  0.15805252949E+01  0.28805451899E+01  0.31716325399E+02  0.31886061180E+02  0.00000000000E+00 0. -1.
         11    1    3    3    0    0  0.32276026649E+01 -0.44397350790E+01  0.58355287687E+01  0.80113708444E+01  0.51100000000E-03 0. -1.
        -11    1    3    3    0    0 -0.28605828630E+01 -0.16475948040E+02 -0.19686974442E+02  0.25830539310E+02  0.51100000000E-03 0.  1.
        -12    1    3    3    0    0 -0.19475450968E+01  0.18035137929E+02 -0.17864879726E+02  0.25460028665E+02  0.00000000000E+00 0.  1.
</event>
<event>
 7    1  0.6672802E-013  0.5930196E+02  0.7816164E-02  0.1266605E+00
        -11   -1    0    0    0    0  0.00000000000E+00  0.00000000000E+00  0.45593999997E+02  0.45594000000E+02  0.51100000000E-03 0.  1.
         11   -1    0    0    0    0 -0.00000000000E+00 -0.00000000000E+00 -0.45593999997E+02  0.45594000000E+02  0.51100000000E-03 0. -1.
    9900012    2    1    2    0    0  0.32771643558E+01  0.13306344453E+02  0.28790987546E+02  0.59301959594E+02  0.50000028388E+02 0.  0.
         12    1    1    2    0    0 -0.32771643558E+01 -0.13306344453E+02 -0.28790987546E+02  0.31886040406E+02  0.00000000000E+00 0. -1.
         11    1    3    3    0    0  0.10719944532E+01 -0.15310435049E+02  0.18798074462E+02  0.24267801656E+02  0.51100000000E-03 0. -1.
        -11    1    3    3    0    0 -0.22135073638E+01  0.40569996703E+00  0.57384492859E+01  0.61639279507E+01  0.51100000000E-03 0.  1.
         12    1    3    3    0    0  0.44186772664E+01  0.28211079534E+02  0.42544637986E+01  0.28870229987E+02  0.00000000000E+00 0. -1.
</event>
<event>
 7    1  0.6672802E-013  0.5930194E+02  0.7816164E-02  0.1266605E+00
        -11   -1    0    0    0    0  0.00000000000E+00  0.00000000000E+00  0.45593999997E+02  0.45594000000E+02  0.51100000000E-03 0.  1.
         11   -1    0    0    0    0 -0.00000000000E+00 -0.00000000000E+00 -0.45593999997E+02  0.45594000000E+02  0.51100000000E-03 0. -1.
    9900012    2    1    2    0    0 -0.61006638264E+01 -0.15315003064E+02  0.27293829275E+02  0.59301944514E+02  0.50000000886E+02 0.  0.
         12    1    1    2    0    0  0.61006638264E+01  0.15315003064E+02 -0.27293829275E+02  0.31886055486E+02  0.00000000000E+00 0. -1.
         11    1    3    3    0    0 -0.97323108129E+00 -0.27000700356E+01  0.90552938976E+01  0.94992581167E+01  0.51100000000E-03 0. -1.
        -11    1    3    3    0    0 -0.83611499611E+01 -0.23910397383E+02  0.25538883370E+02  0.35970133385E+02  0.51100000000E-03 0.  1.
         12    1    3    3    0    0  0.32337172159E+01  0.11295464354E+02 -0.73003479925E+01  0.13832553012E+02  0.00000000000E+00 0. -1.
</event>
<event>
 7    1  0.6672802E-013  0.5930198E+02  0.7816164E-02  0.1266605E+00
        -11   -1    0    0    0    0  0.00000000000E+00  0.00000000000E+00  0.45593999997E+02  0.45594000000E+02  0.51100000000E-03 0. -1.
         11   -1    0    0    0    0 -0.00000000000E+00 -0.00000000000E+00 -0.45593999997E+02  0.45594000000E+02  0.51100000000E-03 0.  1.
    9900012    2    1    2    0    0 -0.45993515118E+01 -0.19252722612E+02 -0.24997936647E+02  0.59301981137E+02  0.50000067679E+02 0.  0.
         12    1    1    2    0    0  0.45993515118E+01  0.19252722612E+02  0.24997936647E+02  0.31886018863E+02  0.00000000000E+00 0. -1.
         11    1    3    3    0    0 -0.23676182900E+01  0.15421579354E+00 -0.16899375033E+02  0.17065118683E+02  0.51100000000E-03 0. -1.
        -11    1    3    3    0    0  0.27796152040E+01 -0.53675263611E+01 -0.21412847610E+02  0.22249643659E+02  0.51100000000E-03 0.  1.
         12    1    3    3    0    0 -0.50113484258E+01 -0.14039412044E+02  0.13314285996E+02  0.19987218796E+02  0.00000000000E+00 0. -1.
</event>
<event>
 7    1  0.6672802E-013  0.5930195E+02  0.7816164E-02  0.1266605E+00
        -11   -1    0    0    0    0  0.00000000000E+00  0.00000000000E+00  0.45593999997E+02  0.45594000000E+02  0.51100000000E-03 0.  1.
         11   -1    0    0    0    0 -0.00000000000E+00 -0.00000000000E+00 -0.45593999997E+02  0.45594000000E+02  0.51100000000E-03 0. -1.
    9900012    2    1    2    0    0  0.10616260732E+02  0.22903440077E+02  0.19479417169E+02  0.59301948935E+02  0.50000008949E+02 0.  0.
         12    1    1    2    0    0 -0.10616260732E+02 -0.22903440077E+02 -0.19479417169E+02  0.31886051065E+02  0.00000000000E+00 0. -1.
         11    1    3    3    0    0  0.54539069900E+01 -0.29815257850E+01  0.25639265721E+01  0.67237130509E+01  0.51100000000E-03 0. -1.
        -11    1    3    3    0    0  0.23057479837E+02  0.79311410840E+01  0.71111265709E+01  0.25399182993E+02  0.51100000000E-03 0.  1.
         12    1    3    3    0    0 -0.17895126095E+02  0.17953824778E+02  0.98043640256E+01  0.27179052891E+02  0.00000000000E+00 0. -1.
</event>
<event>
 7    1  0.6672802E-013  0.5930195E+02  0.7816164E-02  0.1266605E+00
        -11   -1    0    0    0    0  0.00000000000E+00  0.00000000000E+00  0.45593999997E+02  0.45594000000E+02  0.51100000000E-03 0. -1.
         11   -1    0    0    0    0 -0.00000000000E+00 -0.00000000000E+00 -0.45593999997E+02  0.45594000000E+02  0.51100000000E-03 0.  1.
    9900012    2    1    2    0    0 -0.46818169874E+01  0.30051334197E+02  0.95769425947E+01  0.59301954043E+02  0.50000018265E+02 0.  0.
         12    1    1    2    0    0  0.46818169874E+01 -0.30051334197E+02 -0.95769425947E+01  0.31886045957E+02  0.00000000000E+00 0. -1.
         11    1    3    3    0    0  0.93701314651E+01  0.12445721709E+02 -0.20727548146E+01  0.15715968482E+02  0.51100000000E-03 0. -1.
        -11    1    3    3    0    0  0.85807257111E+01  0.16867337033E+02  0.84163048697E+01  0.20711593378E+02  0.51100000000E-03 0.  1.
         12    1    3    3    0    0 -0.22632674163E+02  0.73827545470E+00  0.32333925396E+01  0.22874392183E+02  0.00000000000E+00 0. -1.
</event>
<event>
 7    1  0.6672802E-013  0.5930194E+02  0.7816164E-02  0.1266605E+00
        -11   -1    0    0    0    0  0.00000000000E+00  0.00000000000E+00  0.45593999997E+02  0.45594000000E+02  0.51100000000E-03 0.  1.
         11   -1    0    0    0    0 -0.00000000000E+00 -0.00000000000E+00 -0.45593999997E+02  0.45594000000E+02  0.51100000000E-03 0. -1.
    9900012    2    1    2    0    0  0.71107231626E+01  0.30999023309E+02  0.22845309599E+01  0.59301938598E+02  0.49999990097E+02 0.  0.
         12    1    1    2    0    0 -0.71107231626E+01 -0.30999023309E+02 -0.22845309599E+01  0.31886061402E+02  0.00000000000E+00 0. -1.
         11    1    3    3    0    0 -0.26634374761E+01  0.18790974107E+02  0.15840744399E+02  0.24720918074E+02  0.51100000000E-03 0.  1.
        -11    1    3    3    0    0 -0.22430624522E+01  0.17860941878E+02 -0.10879694998E+02  0.21033600202E+02  0.51100000000E-03 0. -1.
        -12    1    3    3    0    0  0.12017223091E+02 -0.56528926752E+01 -0.26765184409E+01  0.13547420322E+02  0.00000000000E+00 0.  1.
</event>
<event>
 7    1  0.6672802E-013  0.5930195E+02  0.7816164E-02  0.1266605E+00
        -11   -1    0    0    0    0  0.00000000000E+00  0.00000000000E+00  0.45593999997E+02  0.45594000000E+02  0.51100000000E-03 0.  1.
         11   -1    0    0    0    0 -0.00000000000E+00 -0.00000000000E+00 -0.45593999997E+02  0.45594000000E+02  0.51100000000E-03 0. -1.
    9900012    2    1    2    0    0 -0.11895228659E+02 -0.29540337683E+02  0.16099590015E+01  0.59301953158E+02  0.50000016651E+02 0.  0.
         12    1    1    2    0    0  0.11895228659E+02  0.29540337683E+02 -0.16099590015E+01  0.31886046842E+02  0.00000000000E+00 0. -1.
         11    1    3    3    0    0 -0.15191663266E+02 -0.21062888510E+02 -0.18198555296E+01  0.26033512625E+02  0.51100000000E-03 0. -1.
        -11    1    3    3    0    0 -0.11814563850E+02  0.35643521852E+00  0.90476946553E+01  0.14885286154E+02  0.51100000000E-03 0.  1.
         12    1    3    3    0    0  0.15110998458E+02 -0.88338843917E+01 -0.56178801242E+01  0.18383154379E+02  0.00000000000E+00 0. -1.
</event>
<event>
 7    1  0.6672802E-013  0.5930194E+02  0.7816164E-02  0.1266605E+00
        -11   -1    0    0    0    0  0.00000000000E+00  0.00000000000E+00  0.45593999997E+02  0.45594000000E+02  0.51100000000E-03 0. -1.
         11   -1    0    0    0    0 -0.00000000000E+00 -0.00000000000E+00 -0.45593999997E+02  0.45594000000E+02  0.51100000000E-03 0.  1.
    9900012    2    1    2    0    0 -0.32223438209E+01  0.91723284584E+01 -0.30367839890E+02  0.59301940215E+02  0.49999993046E+02 0.  0.
         12    1    1    2    0    0  0.32223438209E+01 -0.91723284584E+01  0.30367839890E+02  0.31886059785E+02  0.00000000000E+00 0. -1.
         11    1    3    3    0    0 -0.72107085857E+01 -0.72999200112E+01 -0.73558487530E+01  0.12625041054E+02  0.51100000000E-03 0. -1.
        -11    1    3    3    0    0 -0.13239658915E+02  0.13219724758E+02 -0.12784487664E+01  0.18753242982E+02  0.51100000000E-03 0.  1.
         12    1    3    3    0    0  0.17228023679E+02  0.32525237116E+01 -0.21733542371E+02  0.27923656178E+02  0.00000000000E+00 0. -1.
</event>
<event>
 7    1  0.6672802E-013  0.5930193E+02  0.7816164E-02  0.1266605E+00
        -11   -1    0    0    0    0  0.00000000000E+00  0.00000000000E+00  0.45593999997E+02  0.45594000000E+02  0.51100000000E-03 0.  1.
         11   -1    0    0    0    0 -0.00000000000E+00 -0.00000000000E+00 -0.45593999997E+02  0.45594000000E+02  0.51100000000E-03 0. -1.
    9900012    2    1    2    0    0  0.28794720572E+02 -0.66272527895E+01  0.11986027932E+02  0.59301932855E+02  0.49999979624E+02 0.  0.
         12    1    1    2    0    0 -0.28794720572E+02  0.66272527895E+01 -0.11986027932E+02  0.31886067145E+02  0.00000000000E+00 0. -1.
         11    1    3    3    0    0  0.88053721991E+01 -0.33504765222E+01  0.17754849260E+02  0.20099625494E+02  0.51100000000E-03 0. -1.
        -11    1    3    3    0    0  0.14657873237E+02  0.12681551055E+02 -0.10061128812E+02  0.21838069929E+02  0.51100000000E-03 0.  1.
         12    1    3    3    0    0  0.53314751365E+01 -0.15958327322E+02  0.42923074837E+01  0.17364237432E+02  0.00000000000E+00 0. -1.
</event>
<event>
 7    1  0.6672802E-013  0.5930195E+02  0.7816164E-02  0.1266605E+00
        -11   -1    0    0    0    0  0.00000000000E+00  0.00000000000E+00  0.45593999997E+02  0.45594000000E+02  0.51100000000E-03 0.  1.
         11   -1    0    0    0    0 -0.00000000000E+00 -0.00000000000E+00 -0.45593999997E+02  0.45594000000E+02  0.51100000000E-03 0. -1.
    9900012    2    1    2    0    0 -0.20131684370E+01  0.31155098091E+02  0.64828284062E+01  0.59301952136E+02  0.50000014788E+02 0.  0.
         12    1    1    2    0    0  0.20131684370E+01 -0.31155098091E+02 -0.64828284062E+01  0.31886047864E+02  0.00000000000E+00 0. -1.
         11    1    3    3    0    0  0.19932497124E+01  0.24231137642E+01  0.58849232574E+01  0.66690963958E+01  0.51100000000E-03 0. -1.
        -11    1    3    3    0    0  0.31687741529E+01 -0.81023113155E+01  0.10680430231E+02  0.13775346401E+02  0.51100000000E-03 0.  1.
        -12    1    3    3    0    0 -0.71751923023E+01  0.36834295642E+02 -0.10082525082E+02  0.38857509340E+02  0.00000000000E+00 0.  1.
</event>
<event>
 7    1  0.6672802E-013  0.5930193E+02  0.7816164E-02  0.1266605E+00
        -11   -1    0    0    0    0  0.00000000000E+00  0.00000000000E+00  0.45593999997E+02  0.45594000000E+02  0.51100000000E-03 0. -1.
         11   -1    0    0    0    0 -0.00000000000E+00 -0.00000000000E+00 -0.45593999997E+02  0.45594000000E+02  0.51100000000E-03 0.  1.
    9900012    2    1    2    0    0 -0.10770100307E+01 -0.31841268004E+02 -0.13019840134E+01  0.59301929984E+02  0.49999974387E+02 0.  0.
         12    1    1    2    0    0  0.10770100307E+01  0.31841268004E+02  0.13019840134E+01  0.31886070016E+02  0.00000000000E+00 0. -1.
         11    1    3    3    0    0 -0.21213863841E+02 -0.11888747585E+02  0.53637721859E+01  0.24902618146E+02  0.51100000000E-03 0. -1.
        -11    1    3    3    0    0 -0.22897035407E+01 -0.88708220519E+00 -0.41944739261E+01  0.48603774464E+01  0.51100000000E-03 0.  1.
         12    1    3    3    0    0  0.22426557351E+02 -0.19065438214E+02 -0.24712822731E+01  0.29538934391E+02  0.00000000000E+00 0. -1.
</event>
<event>
 7    1  0.6672802E-013  0.5930202E+02  0.7816164E-02  0.1266604E+00
        -11   -1    0    0    0    0  0.00000000000E+00  0.00000000000E+00  0.45593999997E+02  0.45594000000E+02  0.51100000000E-03 0. -1.
         11   -1    0    0    0    0 -0.00000000000E+00 -0.00000000000E+00 -0.45593999997E+02  0.45594000000E+02  0.51100000000E-03 0.  1.
    9900012    2    1    2    0    0 -0.20741900714E+02 -0.86792630625E+01 -0.22608840094E+02  0.59302020277E+02  0.50000139060E+02 0.  0.
         12    1    1    2    0    0  0.20741900714E+02  0.86792630625E+01  0.22608840094E+02  0.31885979723E+02  0.00000000000E+00 0. -1.
         11    1    3    3    0    0 -0.46161413743E+01  0.83327009917E+01 -0.69847930005E+01  0.11812281766E+02  0.51100000000E-03 0. -1.
        -11    1    3    3    0    0  0.84585999760E+01 -0.15061680684E+02  0.16905899744E+01  0.17356849752E+02  0.51100000000E-03 0.  1.
         12    1    3    3    0    0 -0.24584359315E+02 -0.19502833698E+01 -0.17314637068E+02  0.30132888759E+02  0.00000000000E+00 0. -1.
</event>
<event>
 7    1  0.6672802E-013  0.5930205E+02  0.7816164E-02  0.1266604E+00
        -11   -1    0    0    0    0  0.00000000000E+00  0.00000000000E+00  0.45593999997E+02  0.45594000000E+02  0.51100000000E-03 0.  1.
         11   -1    0    0    0    0 -0.00000000000E+00 -0.00000000000E+00 -0.45593999997E+02  0.45594000000E+02  0.51100000000E-03 0. -1.
    9900012    2    1    2    0    0  0.22769149260E+02 -0.15035273646E+02  0.16499092245E+02  0.59302052366E+02  0.50000197583E+02 0.  0.
         12    1    1    2    0    0 -0.22769149260E+02  0.15035273646E+02 -0.16499092245E+02  0.31885947634E+02  0.00000000000E+00 0. -1.
         11    1    3    3    0    0 -0.46667731647E+01 -0.96201629176E+01  0.25811992368E+01  0.10999495265E+02  0.51100000000E-03 0. -1.
        -11    1    3    3    0    0  0.18904271548E+01 -0.15438069671E+02 -0.33096605086E+01  0.15901621393E+02  0.51100000000E-03 0.  1.
         12    1    3    3    0    0  0.25545495270E+02  0.10022958943E+02  0.17227553516E+02  0.32400935707E+02  0.00000000000E+00 0. -1.
</event>
<event>
 7    1  0.6672802E-013  0.5930195E+02  0.7816164E-02  0.1266605E+00
        -11   -1    0    0    0    0  0.00000000000E+00  0.00000000000E+00  0.45593999997E+02  0.45594000000E+02  0.51100000000E-03 0.  1.
         11   -1    0    0    0    0 -0.00000000000E+00 -0.00000000000E+00 -0.45593999997E+02  0.45594000000E+02  0.51100000000E-03 0. -1.
    9900012    2    1    2    0    0  0.23791561802E+02  0.56494471755E+01  0.20463758507E+02  0.59301951663E+02  0.50000013924E+02 0.  0.
         12    1    1    2    0    0 -0.23791561802E+02 -0.56494471755E+01 -0.20463758507E+02  0.31886048337E+02  0.00000000000E+00 0. -1.
         11    1    3    3    0    0  0.25733292715E+02  0.14976169775E+02  0.18071778531E+01  0.29828742970E+02  0.51100000000E-03 0. -1.
        -11    1    3    3    0    0  0.93479419227E+01 -0.28060910250E+01  0.85879070120E+01  0.13000396615E+02  0.51100000000E-03 0.  1.
        -12    1    3    3    0    0 -0.11289672836E+02 -0.65206315743E+01  0.10068673641E+02  0.16472812078E+02  0.00000000000E+00 0.  1.
</event>
<event>
 7    1  0.6672802E-013  0.5930199E+02  0.7816164E-02  0.1266605E+00
        -11   -1    0    0    0    0  0.00000000000E+00  0.00000000000E+00  0.45593999997E+02  0.45594000000E+02  0.51100000000E-03 0. -1.
         11   -1    0    0    0    0 -0.00000000000E+00 -0.00000000000E+00 -0.45593999997E+02  0.45594000000E+02  0.51100000000E-03 0.  1.
    9900012    2    1    2    0    0  0.12216282297E+02  0.39613778193E+01 -0.29185404363E+02  0.59301985900E+02  0.50000076364E+02 0.  0.
         12    1    1    2    0    0 -0.12216282297E+02 -0.39613778193E+01  0.29185404363E+02  0.31886014100E+02  0.00000000000E+00 0. -1.
         11    1    3    3    0    0  0.13630547576E+02  0.15660693270E+02 -0.15561089779E+02  0.25946033536E+02  0.51100000000E-03 0. -1.
        -11    1    3    3    0    0  0.13123795636E+02 -0.33786936868E+01 -0.77117487828E+01  0.15592326718E+02  0.51100000000E-03 0.  1.
         12    1    3    3    0    0 -0.14538060915E+02 -0.83206217637E+01 -0.59125658016E+01  0.17763625645E+02  0.00000000000E+00 0. -1.
</event>
<event>
 7    1  0.6672802E-013  0.5930195E+02  0.7816164E-02  0.1266605E+00
        -11   -1    0    0    0    0  0.00000000000E+00  0.00000000000E+00  0.45593999997E+02  0.45594000000E+02  0.51100000000E-03 0.  1.
         11   -1    0    0    0    0 -0.00000000000E+00 -0.00000000000E+00 -0.45593999997E+02  0.45594000000E+02  0.51100000000E-03 0. -1.
    9900012    2    1    2    0    0 -0.31747962843E+02 -0.19782232577E+01  0.22076321234E+01  0.59301950519E+02  0.50000011838E+02 0.  0.
         12    1    1    2    0    0  0.31747962843E+02  0.19782232577E+01 -0.22076321234E+01  0.31886049481E+02  0.00000000000E+00 0. -1.
         11    1    3    3    0    0 -0.14293880073E+02  0.97183594035E+01  0.12022599338E+02  0.21054795467E+02  0.51100000000E-03 0. -1.
        -11    1    3    3    0    0 -0.22082977712E+02  0.17958365595E+01 -0.27401387727E+01  0.22324679042E+02  0.51100000000E-03 0.  1.
         12    1    3    3    0    0  0.46288949423E+01 -0.13492419221E+02 -0.70748284418E+01  0.15922476010E+02  0.00000000000E+00 0. -1.
</event>
<event>
 7    1  0.6672802E-013  0.5930195E+02  0.7816164E-02  0.1266605E+00
        -11   -1    0    0    0    0  0.00000000000E+00  0.00000000000E+00  0.45593999997E+02  0.45594000000E+02  0.51100000000E-03 0.  1.
         11   -1    0    0    0    0 -0.00000000000E+00 -0.00000000000E+00 -0.45593999997E+02  0.45594000000E+02  0.51100000000E-03 0. -1.
    9900012    2    1    2    0    0  0.22978601852E+02  0.16395219561E+02  0.14829054159E+02  0.59301949527E+02  0.50000010029E+02 0.  0.
         12    1    1    2    0    0 -0.22978601852E+02 -0.16395219561E+02 -0.14829054159E+02  0.31886050473E+02  0.00000000000E+00 0. -1.
         11    1    3    3    0    0 -0.95128291663E+01  0.11472925408E+02  0.83826290979E+01  0.17099427097E+02  0.51100000000E-03 0. -1.
        -11    1    3    3    0    0  0.10925600183E+02  0.90887064785E+01  0.13021207746E+02  0.19274988359E+02  0.51100000000E-03 0.  1.
        -12    1    3    3    0    0  0.21565830835E+02 -0.41664123257E+01 -0.65747826844E+01  0.22927534072E+02  0.00000000000E+00 0.  1.
</event>
<event>
 7    1  0.6672802E-013  0.5930192E+02  0.7816164E-02  0.1266605E+00
        -11   -1    0    0    0    0  0.00000000000E+00  0.00000000000E+00  0.45593999997E+02  0.45594000000E+02  0.51100000000E-03 0.  1.
         11   -1    0    0    0    0 -0.00000000000E+00 -0.00000000000E+00 -0.45593999997E+02  0.45594000000E+02  0.51100000000E-03 0. -1.
    9900012    2    1    2    0    0  0.20154469915E+02  0.19245980112E+02  0.15495545114E+02  0.59301916415E+02  0.49999949641E+02 0.  0.
         12    1    1    2    0    0 -0.20154469915E+02 -0.19245980112E+02 -0.15495545114E+02  0.31886083585E+02  0.00000000000E+00 0. -1.
         11    1    3    3    0    0  0.18840591376E+00 -0.14929690138E+01  0.14592753847E+02  0.14670136958E+02  0.51100000000E-03 0. -1.
        -11    1    3    3    0    0  0.12316892157E+02 -0.78773371419E+01 -0.24403894139E+01  0.14822745144E+02  0.51100000000E-03 0.  1.
         12    1    3    3    0    0  0.76491718443E+01  0.28616286267E+02  0.33431806805E+01  0.29809034314E+02  0.00000000000E+00 0. -1.
</event>
<event>
 7    1  0.6672802E-013  0.5930196E+02  0.7816164E-02  0.1266605E+00
        -11   -1    0    0    0    0  0.00000000000E+00  0.00000000000E+00  0.45593999997E+02  0.45594000000E+02  0.51100000000E-03 0.  1.
         11   -1    0    0    0    0 -0.00000000000E+00 -0.00000000000E+00 -0.45593999997E+02  0.45594000000E+02  0.51100000000E-03 0. -1.
    9900012    2    1    2    0    0  0.38256985601E+01  0.25239986857E+02  0.19105665509E+02  0.59301962922E+02  0.50000034458E+02 0.  0.
         12    1    1    2    0    0 -0.38256985601E+01 -0.25239986857E+02 -0.19105665509E+02  0.31886037078E+02  0.00000000000E+00 0. -1.
         11    1    3    3    0    0 -0.58534785552E+01  0.28828117326E+02  0.16999000460E+02  0.33974837404E+02  0.51100000000E-03 0. -1.
        -11    1    3    3    0    0 -0.25135212262E+01  0.72218775152E+01 -0.30549247155E+01  0.82344319219E+01  0.51100000000E-03 0.  1.
         12    1    3    3    0    0  0.12192698342E+02 -0.10810007984E+02  0.51615897641E+01  0.17092693596E+02  0.00000000000E+00 0. -1.
</event>
<event>
 7    1  0.6672802E-013  0.5930207E+02  0.7816164E-02  0.1266604E+00
        -11   -1    0    0    0    0  0.00000000000E+00  0.00000000000E+00  0.45593999997E+02  0.45594000000E+02  0.51100000000E-03 0. -1.
         11   -1    0    0    0    0 -0.00000000000E+00 -0.00000000000E+00 -0.45593999997E+02  0.45594000000E+02  0.51100000000E-03 0.  1.
    9900012    2    1    2    0    0  0.23738647899E+02 -0.10993499375E+02 -0.18229980795E+02  0.59302068425E+02  0.50000226871E+02 0.  0.
         12    1    1    2    0    0 -0.23738647899E+02  0.10993499375E+02  0.18229980795E+02  0.31885931575E+02  0.00000000000E+00 0. -1.
         11    1    3    3    0    0  0.38796110832E+01 -0.34236076462E+01 -0.33253669718E+01  0.61506533987E+01  0.51100000000E-03 0. -1.
        -11    1    3    3    0    0  0.32482194728E+02 -0.14132081135E+01  0.21717722228E+00  0.32513647869E+02  0.51100000000E-03 0.  1.
        -12    1    3    3    0    0 -0.12623157913E+02 -0.61566836154E+01 -0.15121791046E+02  0.20637767158E+02  0.00000000000E+00 0.  1.
</event>
<event>
 7    1  0.6672802E-013  0.5930195E+02  0.7816164E-02  0.1266605E+00
        -11   -1    0    0    0    0  0.00000000000E+00  0.00000000000E+00  0.45593999997E+02  0.45594000000E+02  0.51100000000E-03 0.  1.
         11   -1    0    0    0    0 -0.00000000000E+00 -0.00000000000E+00 -0.45593999997E+02  0.45594000000E+02  0.51100000000E-03 0. -1.
    9900012    2    1    2    0    0 -0.20796688206E+02  0.75792043148E+01  0.22951551453E+02  0.59301948308E+02  0.50000007807E+02 0.  0.
         12    1    1    2    0    0  0.20796688206E+02 -0.75792043148E+01 -0.22951551453E+02  0.31886051692E+02  0.00000000000E+00 0. -1.
         11    1    3    3    0    0 -0.10336307381E+01 -0.78376400893E+01  0.12587842095E+01  0.80050941668E+01  0.51100000000E-03 0.  1.
        -11    1    3    3    0    0 -0.13045804927E+02 -0.12141679816E+02  0.11222308373E+02  0.21060712724E+02  0.51100000000E-03 0. -1.
         12    1    3    3    0    0 -0.67172525403E+01  0.27558524220E+02  0.10470458871E+02  0.30236141418E+02  0.00000000000E+00 0. -1.
</event>
<event>
 7    1  0.6672802E-013  0.5930194E+02  0.7816164E-02  0.1266605E+00
        -11   -1    0    0    0    0  0.00000000000E+00  0.00000000000E+00  0.45593999997E+02  0.45594000000E+02  0.51100000000E-03 0. -1.
         11   -1    0    0    0    0 -0.00000000000E+00 -0.00000000000E+00 -0.45593999997E+02  0.45594000000E+02  0.51100000000E-03 0.  1.
    9900012    2    1    2    0    0  0.20043707619E+02  0.18283509473E+02 -0.16753624369E+02  0.59301939358E+02  0.49999991483E+02 0.  0.
         12    1    1    2    0    0 -0.20043707619E+02 -0.18283509473E+02  0.16753624369E+02  0.31886060642E+02  0.00000000000E+00 0. -1.
         11    1    3    3    0    0 -0.18096347044E+01  0.52793480516E+00  0.10031924260E+02  0.10207497124E+02  0.51100000000E-03 0. -1.
        -11    1    3    3    0    0  0.20829111617E+00 -0.70679054269E+01 -0.96647880717E+01  0.11975257870E+02  0.51100000000E-03 0.  1.
         12    1    3    3    0    0  0.21645051207E+02  0.24823480095E+02 -0.17120760558E+02  0.37119184364E+02  0.00000000000E+00 0. -1.
</event>
<event>
 7    1  0.7073610E-013  0.5930193E+02  0.7816164E-02  0.1266605E+00
        -11   -1    0    0    0    0  0.00000000000E+00  0.00000000000E+00  0.45593999997E+02  0.45594000000E+02  0.51100000000E-03 0. -1.
         11   -1    0    0    0    0 -0.00000000000E+00 -0.00000000000E+00 -0.45593999997E+02  0.45594000000E+02  0.51100000000E-03 0.  1.
    9900012    2    1    2    0    0  0.16883348382E+02 -0.17289660893E+02 -0.20802445051E+02  0.59301928645E+02  0.49999971946E+02 0.  0.
         12    1    1    2    0    0 -0.16883348382E+02  0.17289660893E+02  0.20802445051E+02  0.31886071355E+02  0.00000000000E+00 0. -1.
         11    1    3    3    0    0  0.90475171429E+01  0.95546092127E+01  0.82046742674E+01  0.15506927605E+02  0.51100000000E-03 0.  1.
        -11    1    3    3    0    0 -0.46142261611E+01 -0.13946432334E+02 -0.10709123680E+02  0.18179092061E+02  0.51100000000E-03 0. -1.
        -12    1    3    3    0    0  0.12450057400E+02 -0.12897837771E+02 -0.18297995638E+02  0.25615908979E+02  0.00000000000E+00 0.  1.
</event>
<event>
 7    1  0.6672802E-013  0.5930195E+02  0.7816164E-02  0.1266605E+00
        -11   -1    0    0    0    0  0.00000000000E+00  0.00000000000E+00  0.45593999997E+02  0.45594000000E+02  0.51100000000E-03 0.  1.
         11   -1    0    0    0    0 -0.00000000000E+00 -0.00000000000E+00 -0.45593999997E+02  0.45594000000E+02  0.51100000000E-03 0. -1.
    9900012    2    1    2    0    0 -0.31235121827E+02  0.64085772725E+01  0.13267944788E+00  0.59301948159E+02  0.50000007534E+02 0.  0.
         12    1    1    2    0    0  0.31235121827E+02 -0.64085772725E+01 -0.13267944788E+00  0.31886051841E+02  0.00000000000E+00 0. -1.
         11    1    3    3    0    0 -0.19417360043E+01 -0.83970435293E+01  0.10023397661E+01  0.86767138948E+01  0.51100000000E-03 0. -1.
        -11    1    3    3    0    0 -0.16387981900E+02 -0.12085902655E+02 -0.35783048890E+01  0.20674604226E+02  0.51100000000E-03 0.  1.
         12    1    3    3    0    0 -0.12905403922E+02  0.26891523457E+02  0.27086445708E+01  0.29950630038E+02  0.00000000000E+00 0. -1.
</event>
<event>
 7    1  0.6672802E-013  0.5930194E+02  0.7816164E-02  0.1266605E+00
        -11   -1    0    0    0    0  0.00000000000E+00  0.00000000000E+00  0.45593999997E+02  0.45594000000E+02  0.51100000000E-03 0. -1.
         11   -1    0    0    0    0 -0.00000000000E+00 -0.00000000000E+00 -0.45593999997E+02  0.45594000000E+02  0.51100000000E-03 0.  1.
    9900012    2    1    2    0    0 -0.23474294723E+01 -0.86066648494E+01 -0.30612668699E+02  0.59301943645E+02  0.49999999303E+02 0.  0.
         12    1    1    2    0    0  0.23474294723E+01  0.86066648494E+01  0.30612668699E+02  0.31886056355E+02  0.00000000000E+00 0. -1.
         11    1    3    3    0    0  0.23337859287E+00 -0.59288680478E+01 -0.92252637285E+01  0.10968656847E+02  0.51100000000E-03 0. -1.
        -11    1    3    3    0    0 -0.66830389566E+01  0.55602750946E+01 -0.32650725177E+02  0.33788304540E+02  0.51100000000E-03 0.  1.
         12    1    3    3    0    0  0.41022308914E+01 -0.82380718962E+01  0.11263320206E+02  0.14544982259E+02  0.00000000000E+00 0. -1.
</event>
<event>
 7    1  0.6672802E-013  0.5930195E+02  0.7816164E-02  0.1266605E+00
        -11   -1    0    0    0    0  0.00000000000E+00  0.00000000000E+00  0.45593999997E+02  0.45594000000E+02  0.51100000000E-03 0.  1.
         11   -1    0    0    0    0 -0.00000000000E+00 -0.00000000000E+00 -0.45593999997E+02  0.45594000000E+02  0.51100000000E-03 0. -1.
    9900012    2    1    2    0    0  0.30827433873E+02  0.33848974454E+01  0.74116253226E+01  0.59301946625E+02  0.50000004736E+02 0.  0.
         12    1    1    2    0    0 -0.30827433873E+02 -0.33848974454E+01 -0.74116253226E+01  0.31886053375E+02  0.00000000000E+00 0. -1.
         11    1    3    3    0    0  0.20808744493E+02  0.46014193614E-01  0.12386827836E+02  0.24216512316E+02  0.51100000000E-03 0. -1.
        -11    1    3    3    0    0  0.98708373698E+01 -0.26433123412E+01  0.12771852799E+02  0.16356673094E+02  0.51100000000E-03 0.  1.
         12    1    3    3    0    0  0.14785201074E+00  0.59821955930E+01 -0.17747055313E+02  0.18728761214E+02  0.00000000000E+00 0. -1.
</event>
<event>
 7    1  0.6672802E-013  0.5930192E+02  0.7816164E-02  0.1266605E+00
        -11   -1    0    0    0    0  0.00000000000E+00  0.00000000000E+00  0.45593999997E+02  0.45594000000E+02  0.51100000000E-03 0. -1.
         11   -1    0    0    0    0 -0.00000000000E+00 -0.00000000000E+00 -0.45593999997E+02  0.45594000000E+02  0.51100000000E-03 0.  1.
    9900012    2    1    2    0    0 -0.26068344446E+01  0.96486344832E+01 -0.30279205181E+02  0.59301921539E+02  0.49999958986E+02 0.  0.
         12    1    1    2    0    0  0.26068344446E+01 -0.96486344832E+01  0.30279205181E+02  0.31886078461E+02  0.00000000000E+00 0. -1.
         11    1    3    3    0    0  0.16166304649E+02 -0.60805416277E+01 -0.13250183825E+02  0.21769009260E+02  0.51100000000E-03 0. -1.
        -11    1    3    3    0    0 -0.36405429282E+01  0.72600312088E+00  0.54271850192E+01  0.65753304736E+01  0.51100000000E-03 0.  1.
        -12    1    3    3    0    0 -0.15132596166E+02  0.15003172990E+02 -0.22456206375E+02  0.30957581806E+02  0.00000000000E+00 0.  1.
</event>
<event>
 7    1  0.6672802E-013  0.5930196E+02  0.7816164E-02  0.1266605E+00
        -11   -1    0    0    0    0  0.00000000000E+00  0.00000000000E+00  0.45593999997E+02  0.45594000000E+02  0.51100000000E-03 0.  1.
         11   -1    0    0    0    0 -0.00000000000E+00 -0.00000000000E+00 -0.45593999997E+02  0.45594000000E+02  0.51100000000E-03 0. -1.
    9900012    2    1    2    0    0  0.27788770704E+02  0.36077313809E+01  0.15214735352E+02  0.59301957995E+02  0.50000025473E+02 0.  0.
         12    1    1    2    0    0 -0.27788770704E+02 -0.36077313809E+01 -0.15214735352E+02  0.31886042005E+02  0.00000000000E+00 0. -1.
         11    1    3    3    0    0  0.61207046629E+01 -0.74759671337E+01 -0.10434188116E+02  0.14220597458E+02  0.51100000000E-03 0. -1.
        -11    1    3    3    0    0 -0.30984981199E+01  0.10224609788E+02  0.20853290321E+01  0.10885400008E+02  0.51100000000E-03 0.  1.
        -12    1    3    3    0    0  0.24766564161E+02  0.85908872683E+00  0.23563594436E+02  0.34195960529E+02  0.00000000000E+00 0.  1.
</event>
<event>
 7    1  0.6672802E-013  0.5930195E+02  0.7816164E-02  0.1266605E+00
        -11   -1    0    0    0    0  0.00000000000E+00  0.00000000000E+00  0.45593999997E+02  0.45594000000E+02  0.51100000000E-03 0.  1.
         11   -1    0    0    0    0 -0.00000000000E+00 -0.00000000000E+00 -0.45593999997E+02  0.45594000000E+02  0.51100000000E-03 0. -1.
    9900012    2    1    2    0    0  0.27948727193E+02 -0.78426275119E+01  0.13194013066E+02  0.59301950719E+02  0.50000012202E+02 0.  0.
         12    1    1    2    0    0 -0.27948727193E+02  0.78426275119E+01 -0.13194013066E+02  0.31886049281E+02  0.00000000000E+00 0. -1.
         11    1    3    3    0    0  0.17881374574E+02 -0.54457996892E+01  0.21298629808E+02  0.28337817892E+02  0.51100000000E-03 0. -1.
        -11    1    3    3    0    0  0.63484211442E+01  0.10251266412E+01  0.10153995035E+02  0.12019024548E+02  0.51100000000E-03 0.  1.
         12    1    3    3    0    0  0.37189314743E+01 -0.34219544639E+01 -0.18258611777E+02  0.18945108278E+02  0.00000000000E+00 0. -1.
</event>
<event>
 7    1  0.6672802E-013  0.5930181E+02  0.7816164E-02  0.1266605E+00
        -11   -1    0    0    0    0  0.00000000000E+00  0.00000000000E+00  0.45593999997E+02  0.45594000000E+02  0.51100000000E-03 0.  1.
         11   -1    0    0    0    0 -0.00000000000E+00 -0.00000000000E+00 -0.45593999997E+02  0.45594000000E+02  0.51100000000E-03 0. -1.
    9900012    2    1    2    0    0 -0.23002647137E+02 -0.22058247363E+02  0.10202185239E+01  0.59301813369E+02  0.49999761710E+02 0.  0.
         12    1    1    2    0    0  0.23002647137E+02  0.22058247363E+02 -0.10202185239E+01  0.31886186631E+02  0.00000000000E+00 0. -1.
         11    1    3    3    0    0 -0.11706876092E+01 -0.18012409683E+02  0.14380520040E+02  0.23078491480E+02  0.51100000000E-03 0. -1.
        -11    1    3    3    0    0 -0.10106587463E+02 -0.14567422441E+02 -0.89651214223E+01  0.19867720280E+02  0.51100000000E-03 0.  1.
         12    1    3    3    0    0 -0.11725372065E+02  0.10521584762E+02 -0.43951800943E+01  0.16355601610E+02  0.00000000000E+00 0. -1.
</event>
<event>
 7    1  0.6672802E-013  0.5930194E+02  0.7816164E-02  0.1266605E+00
        -11   -1    0    0    0    0  0.00000000000E+00  0.00000000000E+00  0.45593999997E+02  0.45594000000E+02  0.51100000000E-03 0.  1.
         11   -1    0    0    0    0 -0.00000000000E+00 -0.00000000000E+00 -0.45593999997E+02  0.45594000000E+02  0.51100000000E-03 0. -1.
    9900012    2    1    2    0    0 -0.19481743627E+01  0.31196619472E+02  0.63004810377E+01  0.59301944880E+02  0.50000001554E+02 0.  0.
         12    1    1    2    0    0  0.19481743627E+01 -0.31196619472E+02 -0.63004810377E+01  0.31886055120E+02  0.00000000000E+00 0. -1.
         11    1    3    3    0    0 -0.15419742994E+01  0.12056820148E+02 -0.21249065718E+01  0.12339360803E+02  0.51100000000E-03 0. -1.
        -11    1    3    3    0    0 -0.98447621843E+01  0.30081547323E+02  0.43526276906E+01  0.31949400619E+02  0.51100000000E-03 0.  1.
         12    1    3    3    0    0  0.94385621209E+01 -0.10941747999E+02  0.40727599189E+01  0.15013183458E+02  0.00000000000E+00 0. -1.
</event>
<event>
 7    1  0.6672802E-013  0.5930203E+02  0.7816164E-02  0.1266604E+00
        -11   -1    0    0    0    0  0.00000000000E+00  0.00000000000E+00  0.45593999997E+02  0.45594000000E+02  0.51100000000E-03 0. -1.
         11   -1    0    0    0    0 -0.00000000000E+00 -0.00000000000E+00 -0.45593999997E+02  0.45594000000E+02  0.51100000000E-03 0.  1.
    9900012    2    1    2    0    0 -0.46107879534E+01  0.31303698895E+02 -0.39413273276E+01  0.59302031437E+02  0.50000159414E+02 0.  0.
         12    1    1    2    0    0  0.46107879534E+01 -0.31303698895E+02  0.39413273276E+01  0.31885968563E+02  0.00000000000E+00 0. -1.
         11    1    3    3    0    0 -0.60276313089E+00  0.48937641901E+01  0.10553831657E+02  0.11648846048E+02  0.51100000000E-03 0. -1.
        -11    1    3    3    0    0  0.15803017358E+02  0.17078858163E+02 -0.98495320321E+01  0.25267291807E+02  0.51100000000E-03 0.  1.
         12    1    3    3    0    0 -0.19811042180E+02  0.93310765425E+01 -0.46456269525E+01  0.22385893583E+02  0.00000000000E+00 0. -1.
</event>
<event>
 7    1  0.6672802E-013  0.5930193E+02  0.7816164E-02  0.1266605E+00
        -11   -1    0    0    0    0  0.00000000000E+00  0.00000000000E+00  0.45593999997E+02  0.45594000000E+02  0.51100000000E-03 0. -1.
         11   -1    0    0    0    0 -0.00000000000E+00 -0.00000000000E+00 -0.45593999997E+02  0.45594000000E+02  0.51100000000E-03 0.  1.
    9900012    2    1    2    0    0  0.24344247530E+02  0.25424690692E+01 -0.20435626792E+02  0.59301931268E+02  0.49999976730E+02 0.  0.
         12    1    1    2    0    0 -0.24344247530E+02 -0.25424690692E+01  0.20435626792E+02  0.31886068732E+02  0.00000000000E+00 0. -1.
         11    1    3    3    0    0  0.15950648888E+02  0.13633367261E+02 -0.26731292516E+02  0.33983141448E+02  0.51100000000E-03 0. -1.
        -11    1    3    3    0    0  0.81427769788E+01 -0.35179525524E+01 -0.61179193974E+01  0.10775423198E+02  0.51100000000E-03 0.  1.
         12    1    3    3    0    0  0.25082166228E+00 -0.75729456394E+01  0.12413585121E+02  0.14543366622E+02  0.00000000000E+00 0. -1.
</event>
<event>
 7    1  0.6672802E-013  0.5930210E+02  0.7816164E-02  0.1266604E+00
        -11   -1    0    0    0    0  0.00000000000E+00  0.00000000000E+00  0.45593999997E+02  0.45594000000E+02  0.51100000000E-03 0. -1.
         11   -1    0    0    0    0 -0.00000000000E+00 -0.00000000000E+00 -0.45593999997E+02  0.45594000000E+02  0.51100000000E-03 0.  1.
    9900012    2    1    2    0    0 -0.27140445497E+02 -0.15988602449E+02  0.49468512430E+01  0.59302101436E+02  0.50000287074E+02 0.  0.
         12    1    1    2    0    0  0.27140445497E+02  0.15988602449E+02 -0.49468512430E+01  0.31885898564E+02  0.00000000000E+00 0. -1.
         11    1    3    3    0    0  0.33322209230E+01  0.16962501125E+01  0.14372068260E+02  0.14850498545E+02  0.51100000000E-03 0. -1.
        -11    1    3    3    0    0 -0.31285295130E+02 -0.76059191003E+01 -0.27039740297E+01  0.32309923747E+02  0.51100000000E-03 0.  1.
         12    1    3    3    0    0  0.81262871018E+00 -0.10078933461E+02 -0.67212429870E+01  0.12141679143E+02  0.00000000000E+00 0. -1.
</event>
<event>
 7    1  0.6672802E-013  0.5930193E+02  0.7816164E-02  0.1266605E+00
        -11   -1    0    0    0    0  0.00000000000E+00  0.00000000000E+00  0.45593999997E+02  0.45594000000E+02  0.51100000000E-03 0. -1.
         11   -1    0    0    0    0 -0.00000000000E+00 -0.00000000000E+00 -0.45593999997E+02  0.45594000000E+02  0.51100000000E-03 0.  1.
    9900012    2    1    2    0    0  0.11475212348E+02  0.95006636503E+01 -0.28191808759E+02  0.59301934245E+02  0.49999982159E+02 0.  0.
         12    1    1    2    0    0 -0.11475212348E+02 -0.95006636503E+01  0.28191808759E+02  0.31886065755E+02  0.00000000000E+00 0. -1.
         11    1    3    3    0    0  0.86794228433E+01  0.12310946844E+01 -0.29352253079E+02  0.30633359856E+02  0.51100000000E-03 0. -1.
        -11    1    3    3    0    0  0.12071909730E+02 -0.44772564045E+01  0.25864459360E+00  0.12878032720E+02  0.51100000000E-03 0.  1.
         12    1    3    3    0    0 -0.92761202254E+01  0.12746825370E+02  0.90179972611E+00  0.15790541669E+02  0.00000000000E+00 0. -1.
</event>
<event>
 7    1  0.6672802E-013  0.5930186E+02  0.7816164E-02  0.1266605E+00
        -11   -1    0    0    0    0  0.00000000000E+00  0.00000000000E+00  0.45593999997E+02  0.45594000000E+02  0.51100000000E-03 0.  1.
         11   -1    0    0    0    0 -0.00000000000E+00 -0.00000000000E+00 -0.45593999997E+02  0.45594000000E+02  0.51100000000E-03 0. -1.
    9900012    2    1    2    0    0 -0.25686333859E+02 -0.18345164580E+02  0.45159068590E+01  0.59301855276E+02  0.49999838138E+02 0.  0.
         12    1    1    2    0    0  0.25686333859E+02  0.18345164580E+02 -0.45159068590E+01  0.31886144724E+02  0.00000000000E+00 0. -1.
         11    1    3    3    0    0 -0.12525121252E+02 -0.41795335357E+01  0.18752209789E+02  0.22934527141E+02  0.51100000000E-03 0. -1.
        -11    1    3    3    0    0 -0.10619814964E+02  0.49373180228E+01  0.10656128881E+01  0.11759809107E+02  0.51100000000E-03 0.  1.
         12    1    3    3    0    0 -0.25413976425E+01 -0.19102949068E+02 -0.15301915818E+02  0.24607519029E+02  0.00000000000E+00 0. -1.
</event>
<event>
 7    1  0.6672802E-013  0.5930192E+02  0.7816164E-02  0.1266605E+00
        -11   -1    0    0    0    0  0.00000000000E+00  0.00000000000E+00  0.45593999997E+02  0.45594000000E+02  0.51100000000E-03 0.  1.
         11   -1    0    0    0    0 -0.00000000000E+00 -0.00000000000E+00 -0.45593999997E+02  0.45594000000E+02  0.51100000000E-03 0. -1.
    9900012    2    1    2    0    0  0.13902132691E+02 -0.13023801178E+02  0.25570172445E+02  0.59301915114E+02  0.49999947269E+02 0.  0.
         12    1    1    2    0    0 -0.13902132691E+02  0.13023801178E+02 -0.25570172445E+02  0.31886084886E+02  0.00000000000E+00 0. -1.
         11    1    3    3    0    0  0.40317624835E+01  0.81055084472E+01 -0.45097102446E+01  0.10113943972E+02  0.51100000000E-03 0. -1.
        -11    1    3    3    0    0  0.14312379048E+02  0.27835469825E+01  0.11962302003E+02  0.18859718908E+02  0.51100000000E-03 0.  1.
        -12    1    3    3    0    0 -0.44420088407E+01 -0.23912856608E+02  0.18117580686E+02  0.30328252235E+02  0.00000000000E+00 0.  1.
</event>
<event>
 7    1  0.6672802E-013  0.5930194E+02  0.7816164E-02  0.1266605E+00
        -11   -1    0    0    0    0  0.00000000000E+00  0.00000000000E+00  0.45593999997E+02  0.45594000000E+02  0.51100000000E-03 0. -1.
         11   -1    0    0    0    0 -0.00000000000E+00 -0.00000000000E+00 -0.45593999997E+02  0.45594000000E+02  0.51100000000E-03 0.  1.
    9900012    2    1    2    0    0  0.13407200282E+01 -0.31715873452E+02  0.30044088574E+01  0.59301942991E+02  0.49999998109E+02 0.  0.
         12    1    1    2    0    0 -0.13407200282E+01  0.31715873452E+02 -0.30044088574E+01  0.31886057009E+02  0.00000000000E+00 0. -1.
         11    1    3    3    0    0 -0.10886908959E+02 -0.32502725334E+01 -0.14325975661E+02  0.18284491710E+02  0.51100000000E-03 0. -1.
        -11    1    3    3    0    0 -0.22645706391E+01  0.51944661477E+00 -0.21844905655E+01  0.31890600899E+01  0.51100000000E-03 0.  1.
        -12    1    3    3    0    0  0.14492199626E+02 -0.28985047533E+02  0.19514875084E+02  0.37828391190E+02  0.00000000000E+00 0.  1.
</event>
<event>
 7    1  0.6672802E-013  0.5930195E+02  0.7816164E-02  0.1266605E+00
        -11   -1    0    0    0    0  0.00000000000E+00  0.00000000000E+00  0.45593999997E+02  0.45594000000E+02  0.51100000000E-03 0. -1.
         11   -1    0    0    0    0 -0.00000000000E+00 -0.00000000000E+00 -0.45593999997E+02  0.45594000000E+02  0.51100000000E-03 0.  1.
    9900012    2    1    2    0    0  0.19018584045E+02  0.10120738331E+02 -0.23507116397E+02  0.59301946548E+02  0.50000004596E+02 0.  0.
         12    1    1    2    0    0 -0.19018584045E+02 -0.10120738331E+02  0.23507116397E+02  0.31886053452E+02  0.00000000000E+00 0. -1.
         11    1    3    3    0    0  0.17683999428E-01  0.13102136174E+02  0.98593601976E+01  0.16397355543E+02  0.51100000000E-03 0. -1.
        -11    1    3    3    0    0  0.12573952082E+01  0.28877263795E+01  0.13895114328E+01  0.34424916319E+01  0.51100000000E-03 0.  1.
        -12    1    3    3    0    0  0.17743504838E+02 -0.58691242230E+01 -0.34755988028E+02  0.39462099372E+02  0.00000000000E+00 0.  1.
</event>
<event>
 7    1  0.6672802E-013  0.5930194E+02  0.7816164E-02  0.1266605E+00
        -11   -1    0    0    0    0  0.00000000000E+00  0.00000000000E+00  0.45593999997E+02  0.45594000000E+02  0.51100000000E-03 0.  1.
         11   -1    0    0    0    0 -0.00000000000E+00 -0.00000000000E+00 -0.45593999997E+02  0.45594000000E+02  0.51100000000E-03 0. -1.
    9900012    2    1    2    0    0 -0.10283790425E+02 -0.26483673789E+02 -0.14476854736E+02  0.59301942767E+02  0.49999997700E+02 0.  0.
         12    1    1    2    0    0  0.10283790425E+02  0.26483673789E+02  0.14476854736E+02  0.31886057233E+02  0.00000000000E+00 0. -1.
         11    1    3    3    0    0 -0.51032123037E+01  0.50415322056E+01  0.16794327322E+01  0.73675177204E+01  0.51100000000E-03 0. -1.
        -11    1    3    3    0    0 -0.15338234060E+02 -0.25090324135E+02  0.27422931116E+01  0.29534826240E+02  0.51100000000E-03 0.  1.
         12    1    3    3    0    0  0.10157655939E+02 -0.64348818591E+01 -0.18898580580E+02  0.22399598806E+02  0.00000000000E+00 0. -1.
</event>
<event>
 7    1  0.6672802E-013  0.5930193E+02  0.7816164E-02  0.1266605E+00
        -11   -1    0    0    0    0  0.00000000000E+00  0.00000000000E+00  0.45593999997E+02  0.45594000000E+02  0.51100000000E-03 0. -1.
         11   -1    0    0    0    0 -0.00000000000E+00 -0.00000000000E+00 -0.45593999997E+02  0.45594000000E+02  0.51100000000E-03 0.  1.
    9900012    2    1    2    0    0 -0.16852777489E+01  0.31778915679E+02  0.19954210767E+01  0.59301931756E+02  0.49999977619E+02 0.  0.
         12    1    1    2    0    0  0.16852777489E+01 -0.31778915679E+02 -0.19954210767E+01  0.31886068244E+02  0.00000000000E+00 0. -1.
         11    1    3    3    0    0  0.31639613191E+01 -0.25323956694E+01 -0.13210418844E+01  0.42624911703E+01  0.51100000000E-03 0. -1.
        -11    1    3    3    0    0 -0.87797367312E+01  0.49810882618E+01 -0.16558114946E+02  0.19392426052E+02  0.51100000000E-03 0.  1.
        -12    1    3    3    0    0  0.39304976632E+01  0.29330223086E+02  0.19874577907E+02  0.35647014534E+02  0.00000000000E+00 0.  1.
</event>
<event>
 7    1  0.6672802E-013  0.5930195E+02  0.7816164E-02  0.1266605E+00
        -11   -1    0    0    0    0  0.00000000000E+00  0.00000000000E+00  0.45593999997E+02  0.45594000000E+02  0.51100000000E-03 0.  1.
         11   -1    0    0    0    0 -0.00000000000E+00 -0.00000000000E+00 -0.45593999997E+02  0.45594000000E+02  0.51100000000E-03 0. -1.
    9900012    2    1    2    0    0  0.29645919432E+02 -0.45001586866E+01  0.10843818496E+02  0.59301947144E+02  0.50000005684E+02 0.  0.
         12    1    1    2    0    0 -0.29645919432E+02  0.45001586866E+01 -0.10843818496E+02  0.31886052856E+02  0.00000000000E+00 0. -1.
         11    1    3    3    0    0 -0.84663854636E+00 -0.19023076422E+02  0.55870480135E+00  0.19050101960E+02  0.51100000000E-03 0. -1.
        -11    1    3    3    0    0  0.16718367645E+02 -0.17391778760E+01  0.85809174614E+01  0.18872220355E+02  0.51100000000E-03 0.  1.
        -12    1    3    3    0    0  0.13774190333E+02  0.16262095611E+02  0.17041962334E+01  0.21379624828E+02  0.00000000000E+00 0.  1.
</event>
<event>
 7    1  0.6672802E-013  0.5930198E+02  0.7816164E-02  0.1266605E+00
        -11   -1    0    0    0    0  0.00000000000E+00  0.00000000000E+00  0.45593999997E+02  0.45594000000E+02  0.51100000000E-03 0.  1.
         11   -1    0    0    0    0 -0.00000000000E+00 -0.00000000000E+00 -0.45593999997E+02  0.45594000000E+02  0.51100000000E-03 0. -1.
    9900012    2    1    2    0    0 -0.10645037251E+02  0.73447395211E+01  0.29145428225E+02  0.59301984207E+02  0.50000073278E+02 0.  0.
         12    1    1    2    0    0  0.10645037251E+02 -0.73447395211E+01 -0.29145428225E+02  0.31886015793E+02  0.00000000000E+00 0. -1.
         11    1    3    3    0    0  0.13140927923E+02 -0.85361567893E+00  0.81903739051E+01  0.15507897065E+02  0.51100000000E-03 0. -1.
        -11    1    3    3    0    0 -0.81048354081E-01  0.13788484365E+02  0.49479077112E+01  0.14649595929E+02  0.51100000000E-03 0.  1.
        -12    1    3    3    0    0 -0.23704916820E+02 -0.55901291648E+01  0.16007146609E+02  0.29144491213E+02  0.00000000000E+00 0.  1.
</event>
<event>
 7    1  0.6672802E-013  0.5930194E+02  0.7816164E-02  0.1266605E+00
        -11   -1    0    0    0    0  0.00000000000E+00  0.00000000000E+00  0.45593999997E+02  0.45594000000E+02  0.51100000000E-03 0.  1.
         11   -1    0    0    0    0 -0.00000000000E+00 -0.00000000000E+00 -0.45593999997E+02  0.45594000000E+02  0.51100000000E-03 0. -1.
    9900012    2    1    2    0    0 -0.14582181286E+02  0.17164368050E+02  0.22571331066E+02  0.59301944620E+02  0.50000001080E+02 0.  0.
         12    1    1    2    0    0  0.14582181286E+02 -0.17164368050E+02 -0.22571331066E+02  0.31886055380E+02  0.00000000000E+00 0. -1.
         11    1    3    3    0    0 -0.94564572602E+01 -0.36314047487E+01  0.51918322397E+01  0.11382741613E+02  0.51100000000E-03 0. -1.
        -11    1    3    3    0    0 -0.48427599938E+01  0.19849518013E+01  0.26500084687E+02  0.27011975986E+02  0.51100000000E-03 0.  1.
         12    1    3    3    0    0 -0.28296403184E+00  0.18810820998E+02 -0.91205858609E+01  0.20907227021E+02  0.00000000000E+00 0. -1.
</event>
<event>
 7    1  0.6672802E-013  0.5930193E+02  0.7816164E-02  0.1266605E+00
        -11   -1    0    0    0    0  0.00000000000E+00  0.00000000000E+00  0.45593999997E+02  0.45594000000E+02  0.51100000000E-03 0.  1.
         11   -1    0    0    0    0 -0.00000000000E+00 -0.00000000000E+00 -0.45593999997E+02  0.45594000000E+02  0.51100000000E-03 0. -1.
    9900012    2    1    2    0    0 -0.92764226661E+01 -0.11560811987E+01  0.30484959752E+02  0.59301932317E+02  0.49999978642E+02 0.  0.
         12    1    1    2    0    0  0.92764226661E+01  0.11560811987E+01 -0.30484959752E+02  0.31886067683E+02  0.00000000000E+00 0. -1.
         11    1    3    3    0    0 -0.35872826410E+00 -0.66727739492E+01  0.64646855987E+01  0.92976748865E+01  0.51100000000E-03 0. -1.
        -11    1    3    3    0    0 -0.15887265999E+02  0.76906879542E+01  0.33603322214E+02  0.37957017351E+02  0.51100000000E-03 0.  1.
         12    1    3    3    0    0  0.69695715967E+01 -0.21739952037E+01 -0.95830480605E+01  0.12047240079E+02  0.00000000000E+00 0. -1.
</event>
<event>
 7    1  0.6672802E-013  0.5930192E+02  0.7816164E-02  0.1266605E+00
        -11   -1    0    0    0    0  0.00000000000E+00  0.00000000000E+00  0.45593999997E+02  0.45594000000E+02  0.51100000000E-03 0. -1.
         11   -1    0    0    0    0 -0.00000000000E+00 -0.00000000000E+00 -0.45593999997E+02  0.45594000000E+02  0.51100000000E-03 0.  1.
    9900012    2    1    2    0    0  0.12268630430E+02  0.22299390392E+02 -0.19207803552E+02  0.59301924328E+02  0.49999964073E+02 0.  0.
         12    1    1    2    0    0 -0.12268630430E+02 -0.22299390392E+02  0.19207803552E+02  0.31886075672E+02  0.00000000000E+00 0. -1.
         11    1    3    3    0    0  0.35006591062E+01  0.75581736246E+00 -0.93104059856E+01  0.99754465535E+01  0.51100000000E-03 0. -1.
        -11    1    3    3    0    0  0.15024652796E+00  0.42659760911E+01 -0.24656941688E+02  0.25023706754E+02  0.51100000000E-03 0.  1.
         12    1    3    3    0    0  0.86177247954E+01  0.17277596938E+02  0.14759544122E+02  0.24302771021E+02  0.00000000000E+00 0. -1.
</event>
<event>
 7    1  0.6672802E-013  0.5930194E+02  0.7816164E-02  0.1266605E+00
        -11   -1    0    0    0    0  0.00000000000E+00  0.00000000000E+00  0.45593999997E+02  0.45594000000E+02  0.51100000000E-03 0.  1.
         11   -1    0    0    0    0 -0.00000000000E+00 -0.00000000000E+00 -0.45593999997E+02  0.45594000000E+02  0.51100000000E-03 0. -1.
    9900012    2    1    2    0    0  0.19474888746E+02 -0.17989232654E+02 -0.17715445091E+02  0.59301940696E+02  0.49999993924E+02 0.  0.
         12    1    1    2    0    0 -0.19474888746E+02  0.17989232654E+02  0.17715445091E+02  0.31886059304E+02  0.00000000000E+00 0. -1.
         11    1    3    3    0    0 -0.45433366742E+01 -0.11963930489E+02  0.41662991170E+01  0.13458662247E+02  0.51100000000E-03 0. -1.
        -11    1    3    3    0    0  0.12839809571E+02 -0.90636081013E+01  0.50646800527E+01  0.16512440338E+02  0.51100000000E-03 0.  1.
         12    1    3    3    0    0  0.11178415850E+02  0.30383059370E+01 -0.26946424260E+02  0.29330838111E+02  0.00000000000E+00 0. -1.
</event>
<event>
 7    1  0.6672802E-013  0.5930196E+02  0.7816164E-02  0.1266605E+00
        -11   -1    0    0    0    0  0.00000000000E+00  0.00000000000E+00  0.45593999997E+02  0.45594000000E+02  0.51100000000E-03 0.  1.
         11   -1    0    0    0    0 -0.00000000000E+00 -0.00000000000E+00 -0.45593999997E+02  0.45594000000E+02  0.51100000000E-03 0. -1.
    9900012    2    1    2    0    0 -0.21053792409E+02  0.23929536899E+02  0.91371531625E+00  0.59301956239E+02  0.50000022271E+02 0.  0.
         12    1    1    2    0    0  0.21053792409E+02 -0.23929536899E+02 -0.91371531625E+00  0.31886043761E+02  0.00000000000E+00 0. -1.
         11    1    3    3    0    0 -0.19891838914E+01  0.18608924218E+02 -0.11572718861E+02  0.22004016343E+02  0.51100000000E-03 0. -1.
        -11    1    3    3    0    0  0.28891327731E+01  0.50203455451E+01 -0.61869140521E+01  0.84751910493E+01  0.51100000000E-03 0.  1.
        -12    1    3    3    0    0 -0.21953741291E+02  0.30026713585E+00  0.18673348229E+02  0.28822748847E+02  0.00000000000E+00 0.  1.
</event>
<event>
 7    1  0.6672802E-013  0.5930195E+02  0.7816164E-02  0.1266605E+00
        -11   -1    0    0    0    0  0.00000000000E+00  0.00000000000E+00  0.45593999997E+02  0.45594000000E+02  0.51100000000E-03 0.  1.
         11   -1    0    0    0    0 -0.00000000000E+00 -0.00000000000E+00 -0.45593999997E+02  0.45594000000E+02  0.51100000000E-03 0. -1.
    9900012    2    1    2    0    0  0.10214456308E+02  0.64799175493E+01  0.29502467411E+02  0.59301952386E+02  0.50000015243E+02 0.  0.
         12    1    1    2    0    0 -0.10214456308E+02 -0.64799175493E+01 -0.29502467411E+02  0.31886047614E+02  0.00000000000E+00 0. -1.
         11    1    3    3    0    0 -0.15873804875E+00  0.11322426356E+01  0.15180947727E+01  0.19004691931E+01  0.51100000000E-03 0. -1.
        -11    1    3    3    0    0  0.15047769731E+02  0.84488300786E+01  0.40315774795E+02  0.43854073941E+02  0.51100000000E-03 0.  1.
        -12    1    3    3    0    0 -0.46745753748E+01 -0.31011551649E+01 -0.12331402157E+02  0.13547409252E+02  0.00000000000E+00 0.  1.
</event>
<event>
 7    1  0.6672802E-013  0.5930198E+02  0.7816164E-02  0.1266605E+00
        -11   -1    0    0    0    0  0.00000000000E+00  0.00000000000E+00  0.45593999997E+02  0.45594000000E+02  0.51100000000E-03 0. -1.
         11   -1    0    0    0    0 -0.00000000000E+00 -0.00000000000E+00 -0.45593999997E+02  0.45594000000E+02  0.51100000000E-03 0.  1.
    9900012    2    1    2    0    0  0.13903849587E+02  0.13073114249E+02 -0.25543979344E+02  0.59301980646E+02  0.50000066783E+02 0.  0.
         12    1    1    2    0    0 -0.13903849587E+02 -0.13073114249E+02  0.25543979344E+02  0.31886019354E+02  0.00000000000E+00 0. -1.
         11    1    3    3    0    0  0.74802567986E+01 -0.50264121147E+01  0.31025829176E+01  0.95312686218E+01  0.51100000000E-03 0. -1.
        -11    1    3    3    0    0  0.98350398620E+00  0.43752941198E+01 -0.33828596892E+02  0.34124543172E+02  0.51100000000E-03 0.  1.
         12    1    3    3    0    0  0.54400888020E+01  0.13724232244E+02  0.51820346305E+01  0.15646168853E+02  0.00000000000E+00 0. -1.
</event>
<event>
 7    1  0.6672802E-013  0.5930195E+02  0.7816164E-02  0.1266605E+00
        -11   -1    0    0    0    0  0.00000000000E+00  0.00000000000E+00  0.45593999997E+02  0.45594000000E+02  0.51100000000E-03 0.  1.
         11   -1    0    0    0    0 -0.00000000000E+00 -0.00000000000E+00 -0.45593999997E+02  0.45594000000E+02  0.51100000000E-03 0. -1.
    9900012    2    1    2    0    0  0.18135824307E+02 -0.18097819041E+02  0.18981077522E+02  0.59301945349E+02  0.50000002410E+02 0.  0.
         12    1    1    2    0    0 -0.18135824307E+02  0.18097819041E+02 -0.18981077522E+02  0.31886054651E+02  0.00000000000E+00 0. -1.
         11    1    3    3    0    0  0.13319657295E+02 -0.65737843622E+01  0.29770439522E+01  0.15148950533E+02  0.51100000000E-03 0. -1.
        -11    1    3    3    0    0 -0.30769895838E+01 -0.24132600406E+02  0.16284111247E+02  0.29274947423E+02  0.51100000000E-03 0.  1.
         12    1    3    3    0    0  0.78931565955E+01  0.12608565727E+02 -0.28007767732E+00  0.14878047393E+02  0.00000000000E+00 0. -1.
</event>
<event>
 7    1  0.6672802E-013  0.5930191E+02  0.7816164E-02  0.1266605E+00
        -11   -1    0    0    0    0  0.00000000000E+00  0.00000000000E+00  0.45593999997E+02  0.45594000000E+02  0.51100000000E-03 0. -1.
         11   -1    0    0    0    0 -0.00000000000E+00 -0.00000000000E+00 -0.45593999997E+02  0.45594000000E+02  0.51100000000E-03 0.  1.
    9900012    2    1    2    0    0 -0.18149577499E+02  0.34765779669E+01 -0.25985166035E+02  0.59301911942E+02  0.49999941484E+02 0.  0.
         12    1    1    2    0    0  0.18149577499E+02 -0.34765779669E+01  0.25985166035E+02  0.31886088058E+02  0.00000000000E+00 0. -1.
         11    1    3    3    0    0  0.10416711928E+02  0.64147468767E+01 -0.62026861670E+01  0.13716055585E+02  0.51100000000E-03 0. -1.
        -11    1    3    3    0    0 -0.26463907444E+02  0.97281899248E+01 -0.12716662805E+02  0.30930399118E+02  0.51100000000E-03 0.  1.
         12    1    3    3    0    0 -0.21023819829E+01 -0.12666358835E+02 -0.70658170630E+01  0.14655457239E+02  0.00000000000E+00 0. -1.
</event>
<event>
 7    1  0.6672802E-013  0.5930201E+02  0.7816164E-02  0.1266605E+00
        -11   -1    0    0    0    0  0.00000000000E+00  0.00000000000E+00  0.45593999997E+02  0.45594000000E+02  0.51100000000E-03 0. -1.
         11   -1    0    0    0    0 -0.00000000000E+00 -0.00000000000E+00 -0.45593999997E+02  0.45594000000E+02  0.51100000000E-03 0.  1.
    9900012    2    1    2    0    0 -0.37169741206E+01  0.22513549786E+02 -0.22271970343E+02  0.59302008036E+02  0.50000116735E+02 0.  0.
         12    1    1    2    0    0  0.37169741206E+01 -0.22513549786E+02  0.22271970343E+02  0.31885991964E+02  0.00000000000E+00 0. -1.
         11    1    3    3    0    0 -0.72102349728E+01  0.18205805137E+00 -0.37975109848E+00  0.72225234271E+01  0.51100000000E-03 0. -1.
        -11    1    3    3    0    0  0.13286717557E+01 -0.19144489376E+01 -0.27088602476E+02  0.27188653291E+02  0.51100000000E-03 0.  1.
        -12    1    3    3    0    0  0.21645890965E+01  0.24245940672E+02  0.51963832313E+01  0.24890831318E+02  0.00000000000E+00 0.  1.
</event>
<event>
 7    1  0.6672802E-013  0.5930194E+02  0.7816164E-02  0.1266605E+00
        -11   -1    0    0    0    0  0.00000000000E+00  0.00000000000E+00  0.45593999997E+02  0.45594000000E+02  0.51100000000E-03 0.  1.
         11   -1    0    0    0    0 -0.00000000000E+00 -0.00000000000E+00 -0.45593999997E+02  0.45594000000E+02  0.51100000000E-03 0. -1.
    9900012    2    1    2    0    0  0.17287228803E+02 -0.13319409165E+02  0.23247924502E+02  0.59301938251E+02  0.49999989465E+02 0.  0.
         12    1    1    2    0    0 -0.17287228803E+02  0.13319409165E+02 -0.23247924502E+02  0.31886061749E+02  0.00000000000E+00 0. -1.
         11    1    3    3    0    0 -0.13801549786E+02 -0.18955360707E+01  0.73262897101E+01  0.15740087505E+02  0.51100000000E-03 0. -1.
        -11    1    3    3    0    0 -0.18839178779E+01  0.13972374526E+01 -0.27049431443E+01  0.35802425539E+01  0.51100000000E-03 0.  1.
        -12    1    3    3    0    0  0.32972696468E+02 -0.12821110547E+02  0.18626577936E+02  0.39981608192E+02  0.00000000000E+00 0.  1.
</event>
<event>
 7    1  0.6672802E-013  0.5930196E+02  0.7816164E-02  0.1266605E+00
        -11   -1    0    0    0    0  0.00000000000E+00  0.00000000000E+00  0.45593999997E+02  0.45594000000E+02  0.51100000000E-03 0.  1.
         11   -1    0    0    0    0 -0.00000000000E+00 -0.00000000000E+00 -0.45593999997E+02  0.45594000000E+02  0.51100000000E-03 0. -1.
    9900012    2    1    2    0    0  0.31097093532E+01  0.21522597944E+02  0.23320101518E+02  0.59301958393E+02  0.50000026199E+02 0.  0.
         12    1    1    2    0    0 -0.31097093532E+01 -0.21522597944E+02 -0.23320101518E+02  0.31886041607E+02  0.00000000000E+00 0. -1.
         11    1    3    3    0    0  0.28888467466E+01  0.57276980457E+01 -0.87117630695E+01  0.10818815853E+02  0.51100000000E-03 0. -1.
        -11    1    3    3    0    0  0.80577704174E+01  0.22118599999E+02  0.12851956936E+02  0.26820382685E+02  0.51100000000E-03 0.  1.
        -12    1    3    3    0    0 -0.78369078108E+01 -0.63237001005E+01  0.19179907652E+02  0.21662759855E+02  0.00000000000E+00 0.  1.
</event>
<event>
 7    1  0.6672802E-013  0.5930193E+02  0.7816164E-02  0.1266605E+00
        -11   -1    0    0    0    0  0.00000000000E+00  0.00000000000E+00  0.45593999997E+02  0.45594000000E+02  0.51100000000E-03 0. -1.
         11   -1    0    0    0    0 -0.00000000000E+00 -0.00000000000E+00 -0.45593999997E+02  0.45594000000E+02  0.51100000000E-03 0.  1.
    9900012    2    1    2    0    0 -0.12653836687E+02  0.29208998546E+02  0.18537035916E+01  0.59301931005E+02  0.49999976250E+02 0.  0.
         12    1    1    2    0    0  0.12653836687E+02 -0.29208998546E+02 -0.18537035916E+01  0.31886068995E+02  0.00000000000E+00 0. -1.
         11    1    3    3    0    0 -0.48214703858E+01 -0.28637310344E+01  0.85755818621E+01  0.10246371878E+02  0.51100000000E-03 0. -1.
        -11    1    3    3    0    0  0.54968551489E+01 -0.46590172114E+01 -0.69045320949E+01  0.99797004772E+01  0.51100000000E-03 0.  1.
        -12    1    3    3    0    0 -0.13329221450E+02  0.36731746792E+02  0.18265382439E+00  0.39075858650E+02  0.00000000000E+00 0.  1.
</event>
<event>
 7    1  0.6672802E-013  0.5930183E+02  0.7816164E-02  0.1266605E+00
        -11   -1    0    0    0    0  0.00000000000E+00  0.00000000000E+00  0.45593999997E+02  0.45594000000E+02  0.51100000000E-03 0. -1.
         11   -1    0    0    0    0 -0.00000000000E+00 -0.00000000000E+00 -0.45593999997E+02  0.45594000000E+02  0.51100000000E-03 0.  1.
    9900012    2    1    2    0    0  0.27785949909E+02  0.12279423360E+02  0.96894023930E+01  0.59301831069E+02  0.49999793989E+02 0.  0.
         12    1    1    2    0    0 -0.27785949909E+02 -0.12279423360E+02 -0.96894023930E+01  0.31886168931E+02  0.00000000000E+00 0. -1.
         11    1    3    3    0    0  0.45350519333E+00 -0.70827268505E+01  0.21904818659E+02  0.23025893410E+02  0.51100000000E-03 0. -1.
        -11    1    3    3    0    0  0.93890451225E+01  0.31648614566E+01 -0.24595201573E+01  0.10208807767E+02  0.51100000000E-03 0.  1.
        -12    1    3    3    0    0  0.17943399593E+02  0.16197288754E+02 -0.97558961083E+01  0.26067129892E+02  0.00000000000E+00 0.  1.
</event>
<event>
 7    1  0.6672802E-013  0.5930195E+02  0.7816164E-02  0.1266605E+00
        -11   -1    0    0    0    0  0.00000000000E+00  0.00000000000E+00  0.45593999997E+02  0.45594000000E+02  0.51100000000E-03 0.  1.
         11   -1    0    0    0    0 -0.00000000000E+00 -0.00000000000E+00 -0.45593999997E+02  0.45594000000E+02  0.51100000000E-03 0. -1.
    9900012    2    1    2    0    0 -0.48340381581E+01  0.31109742727E+02  0.50533020993E+01  0.59301954783E+02  0.50000019615E+02 0.  0.
         12    1    1    2    0    0  0.48340381581E+01 -0.31109742727E+02 -0.50533020993E+01  0.31886045217E+02  0.00000000000E+00 0. -1.
         11    1    3    3    0    0  0.99023049270E+01 -0.20507326264E+01 -0.25911891074E+01  0.10439128720E+02  0.51100000000E-03 0. -1.
        -11    1    3    3    0    0  0.83847858845E+01  0.10410044245E+01  0.32138217696E+01  0.90397441982E+01  0.51100000000E-03 0.  1.
         12    1    3    3    0    0 -0.23121128970E+02  0.32119470929E+02  0.44306694370E+01  0.39823081865E+02  0.00000000000E+00 0. -1.
</event>
<event>
 7    1  0.8445639E-013  0.5930194E+02  0.7816164E-02  0.1266605E+00
        -11   -1    0    0    0    0  0.00000000000E+00  0.00000000000E+00  0.45593999997E+02  0.45594000000E+02  0.51100000000E-03 0. -1.
         11   -1    0    0    0    0 -0.00000000000E+00 -0.00000000000E+00 -0.45593999997E+02  0.45594000000E+02  0.51100000000E-03 0.  1.
    9900012    2    1    2    0    0 -0.11818357873E+01 -0.15170312626E+02 -0.28021167411E+02  0.59301938091E+02  0.49999989172E+02 0.  0.
         12    1    1    2    0    0  0.11818357873E+01  0.15170312626E+02  0.28021167411E+02  0.31886061909E+02  0.00000000000E+00 0. -1.
         11    1    3    3    0    0  0.90394730508E+01  0.62907063173E+01 -0.48135886920E+01  0.12018972309E+02  0.51100000000E-03 0. -1.
        -11    1    3    3    0    0  0.51224202654E+01 -0.19087343118E+02 -0.24759187056E+02  0.31679381317E+02  0.51100000000E-03 0.  1.
         12    1    3    3    0    0 -0.15343729104E+02 -0.23736758248E+01  0.15516083361E+01  0.15603584465E+02  0.00000000000E+00 0. -1.
</event>
<event>
 7    1  0.6672802E-013  0.5930199E+02  0.7816164E-02  0.1266605E+00
        -11   -1    0    0    0    0  0.00000000000E+00  0.00000000000E+00  0.45593999997E+02  0.45594000000E+02  0.51100000000E-03 0. -1.
         11   -1    0    0    0    0 -0.00000000000E+00 -0.00000000000E+00 -0.45593999997E+02  0.45594000000E+02  0.51100000000E-03 0.  1.
    9900012    2    1    2    0    0  0.97689394618E+01  0.12352704601E+02 -0.27725374657E+02  0.59301985996E+02  0.50000076540E+02 0.  0.
         12    1    1    2    0    0 -0.97689394618E+01 -0.12352704601E+02  0.27725374657E+02  0.31886014004E+02  0.00000000000E+00 0. -1.
         11    1    3    3    0    0 -0.64731424455E+01 -0.10192921786E+02  0.17722752668E+01  0.12204023416E+02  0.51100000000E-03 0. -1.
        -11    1    3    3    0    0  0.12705301405E+01 -0.69312920670E+00  0.36556210035E+01  0.39316968496E+01  0.51100000000E-03 0.  1.
        -12    1    3    3    0    0  0.14971551767E+02  0.23238755594E+02 -0.33153270928E+02  0.43166265730E+02  0.00000000000E+00 0.  1.
</event>
<event>
 7    1  0.6672802E-013  0.5930197E+02  0.7816164E-02  0.1266605E+00
        -11   -1    0    0    0    0  0.00000000000E+00  0.00000000000E+00  0.45593999997E+02  0.45594000000E+02  0.51100000000E-03 0.  1.
         11   -1    0    0    0    0 -0.00000000000E+00 -0.00000000000E+00 -0.45593999997E+02  0.45594000000E+02  0.51100000000E-03 0. -1.
    9900012    2    1    2    0    0  0.29044944154E+02 -0.39754411297E+01  0.12542181300E+02  0.59301965050E+02  0.50000038339E+02 0.  0.
         12    1    1    2    0    0 -0.29044944154E+02  0.39754411297E+01 -0.12542181300E+02  0.31886034950E+02  0.00000000000E+00 0. -1.
         11    1    3    3    0    0  0.11228451376E+02 -0.17478653111E+02 -0.21838282483E+01  0.20889005265E+02  0.51100000000E-03 0. -1.
        -11    1    3    3    0    0  0.13629370735E+02 -0.28667916823E+01  0.16303423814E+02  0.21442478156E+02  0.51100000000E-03 0.  1.
         12    1    3    3    0    0  0.41871220430E+01  0.16370003663E+02 -0.15774142654E+01  0.16970481629E+02  0.00000000000E+00 0. -1.
</event>
<event>
 7    1  0.6672802E-013  0.5930195E+02  0.7816164E-02  0.1266605E+00
        -11   -1    0    0    0    0  0.00000000000E+00  0.00000000000E+00  0.45593999997E+02  0.45594000000E+02  0.51100000000E-03 0. -1.
         11   -1    0    0    0    0 -0.00000000000E+00 -0.00000000000E+00 -0.45593999997E+02  0.45594000000E+02  0.51100000000E-03 0.  1.
    9900012    2    1    2    0    0 -0.13798801789E+02 -0.22650276010E+02 -0.17699659198E+02  0.59301954935E+02  0.50000019893E+02 0.  0.
         12    1    1    2    0    0  0.13798801789E+02  0.22650276010E+02  0.17699659198E+02  0.31886045065E+02  0.00000000000E+00 0. -1.
         11    1    3    3    0    0 -0.10456598119E+01 -0.11923613322E+02  0.14797653256E+01  0.12060500188E+02  0.51100000000E-03 0. -1.
        -11    1    3    3    0    0 -0.92308849088E+01 -0.25365414803E+02 -0.17317134282E+02  0.32070183104E+02  0.51100000000E-03 0.  1.
         12    1    3    3    0    0 -0.35222570682E+01  0.14638752115E+02 -0.18622902413E+01  0.15171271643E+02  0.00000000000E+00 0. -1.
</event>
<event>
 7    1  0.6672802E-013  0.5930199E+02  0.7816164E-02  0.1266605E+00
        -11   -1    0    0    0    0  0.00000000000E+00  0.00000000000E+00  0.45593999997E+02  0.45594000000E+02  0.51100000000E-03 0.  1.
         11   -1    0    0    0    0 -0.00000000000E+00 -0.00000000000E+00 -0.45593999997E+02  0.45594000000E+02  0.51100000000E-03 0. -1.
    9900012    2    1    2    0    0  0.82921077750E+01  0.11929806962E+02  0.28383766391E+02  0.59301991469E+02  0.50000086522E+02 0.  0.
         12    1    1    2    0    0 -0.82921077750E+01 -0.11929806962E+02 -0.28383766391E+02  0.31886008531E+02  0.00000000000E+00 0. -1.
         11    1    3    3    0    0  0.11843725381E+02  0.52252048904E+01  0.15650004786E+02  0.20310077477E+02  0.51100000000E-03 0. -1.
        -11    1    3    3    0    0  0.14745450570E+02  0.45967243797E+01  0.13563065646E+02  0.20555168146E+02  0.51100000000E-03 0.  1.
         12    1    3    3    0    0 -0.18297068176E+02  0.21078776924E+01 -0.82930404131E+00  0.18436745846E+02  0.00000000000E+00 0. -1.
</event>
<event>
 7    1  0.6672802E-013  0.5930190E+02  0.7816164E-02  0.1266605E+00
        -11   -1    0    0    0    0  0.00000000000E+00  0.00000000000E+00  0.45593999997E+02  0.45594000000E+02  0.51100000000E-03 0.  1.
         11   -1    0    0    0    0 -0.00000000000E+00 -0.00000000000E+00 -0.45593999997E+02  0.45594000000E+02  0.51100000000E-03 0. -1.
    9900012    2    1    2    0    0 -0.13097736852E+02 -0.74904062796E+01  0.28090325925E+02  0.59301901031E+02  0.49999921584E+02 0.  0.
         12    1    1    2    0    0  0.13097736852E+02  0.74904062796E+01 -0.28090325925E+02  0.31886098969E+02  0.00000000000E+00 0. -1.
         11    1    3    3    0    0  0.17976454804E+01  0.74173445677E+01 -0.29509571414E+01  0.81827060329E+01  0.51100000000E-03 0. -1.
        -11    1    3    3    0    0 -0.14786253788E+02 -0.40701704733E+01 -0.27955937066E+01  0.15588936243E+02  0.51100000000E-03 0.  1.
        -12    1    3    3    0    0 -0.10912854472E+00 -0.10837580374E+02  0.33836876773E+02  0.35530258755E+02  0.00000000000E+00 0.  1.
</event>
<event>
 7    1  0.6672802E-013  0.5930191E+02  0.7816164E-02  0.1266605E+00
        -11   -1    0    0    0    0  0.00000000000E+00  0.00000000000E+00  0.45593999997E+02  0.45594000000E+02  0.51100000000E-03 0. -1.
         11   -1    0    0    0    0 -0.00000000000E+00 -0.00000000000E+00 -0.45593999997E+02  0.45594000000E+02  0.51100000000E-03 0.  1.
    9900012    2    1    2    0    0  0.17016836407E+02  0.26721985205E+02 -0.36174110209E+01  0.59301907779E+02  0.49999933892E+02 0.  0.
         12    1    1    2    0    0 -0.17016836407E+02 -0.26721985205E+02  0.36174110209E+01  0.31886092221E+02  0.00000000000E+00 0. -1.
         11    1    3    3    0    0 -0.12182044818E+02  0.40925751980E+01  0.13287228863E+01  0.12919632056E+02  0.51100000000E-03 0. -1.
        -11    1    3    3    0    0 -0.26921849849E+01  0.56401424305E+01  0.59621849852E+01  0.86375179704E+01  0.51100000000E-03 0.  1.
         12    1    3    3    0    0  0.31891066210E+02  0.16989267576E+02 -0.10908318892E+02  0.37744757753E+02  0.00000000000E+00 0. -1.
</event>
<event>
 7    1  0.6672802E-013  0.5930194E+02  0.7816164E-02  0.1266605E+00
        -11   -1    0    0    0    0  0.00000000000E+00  0.00000000000E+00  0.45593999997E+02  0.45594000000E+02  0.51100000000E-03 0.  1.
         11   -1    0    0    0    0 -0.00000000000E+00 -0.00000000000E+00 -0.45593999997E+02  0.45594000000E+02  0.51100000000E-03 0. -1.
    9900012    2    1    2    0    0 -0.23357978448E+02 -0.20940970500E+02 -0.57097805326E+01  0.59301937270E+02  0.49999987676E+02 0.  0.
         12    1    1    2    0    0  0.23357978448E+02  0.20940970500E+02  0.57097805326E+01  0.31886062730E+02  0.00000000000E+00 0. -1.
         11    1    3    3    0    0 -0.24932377038E+02 -0.96022238438E+01  0.43244424252E+01  0.27065234713E+02  0.51100000000E-03 0. -1.
        -11    1    3    3    0    0  0.65831649715E+01  0.37019332183E+01  0.60322158853E+01  0.96659194774E+01  0.51100000000E-03 0.  1.
         12    1    3    3    0    0 -0.50087663815E+01 -0.15040679874E+02 -0.16066438843E+02  0.22570783080E+02  0.00000000000E+00 0. -1.
</event>
<event>
 7    1  0.6672802E-013  0.5930196E+02  0.7816164E-02  0.1266605E+00
        -11   -1    0    0    0    0  0.00000000000E+00  0.00000000000E+00  0.45593999997E+02  0.45594000000E+02  0.51100000000E-03 0. -1.
         11   -1    0    0    0    0 -0.00000000000E+00 -0.00000000000E+00 -0.45593999997E+02  0.45594000000E+02  0.51100000000E-03 0.  1.
    9900012    2    1    2    0    0 -0.20174726860E+02 -0.92941026894E+01 -0.22876182830E+02  0.59301957763E+02  0.50000025049E+02 0.  0.
         12    1    1    2    0    0  0.20174726860E+02  0.92941026894E+01  0.22876182830E+02  0.31886042237E+02  0.00000000000E+00 0. -1.
         11    1    3    3    0    0 -0.72042384430E+01 -0.73910700440E+01 -0.10499074595E+02  0.14722755705E+02  0.51100000000E-03 0. -1.
        -11    1    3    3    0    0  0.13910486445E+02  0.29077071813E+00 -0.10708510945E+02  0.17557288734E+02  0.51100000000E-03 0.  1.
         12    1    3    3    0    0 -0.26880974863E+02 -0.21938033635E+01 -0.16685972898E+01  0.27021913324E+02  0.00000000000E+00 0. -1.
</event>
<event>
 7    1  0.6672802E-013  0.5930194E+02  0.7816164E-02  0.1266605E+00
        -11   -1    0    0    0    0  0.00000000000E+00  0.00000000000E+00  0.45593999997E+02  0.45594000000E+02  0.51100000000E-03 0.  1.
         11   -1    0    0    0    0 -0.00000000000E+00 -0.00000000000E+00 -0.45593999997E+02  0.45594000000E+02  0.51100000000E-03 0. -1.
    9900012    2    1    2    0    0 -0.14426666225E+02  0.79541313898E+01  0.27300615450E+02  0.59301944921E+02  0.50000001630E+02 0.  0.
         12    1    1    2    0    0  0.14426666225E+02 -0.79541313898E+01 -0.27300615450E+02  0.31886055079E+02  0.00000000000E+00 0. -1.
         11    1    3    3    0    0  0.14731336285E+02 -0.46946651051E+01  0.19297924419E+02  0.24727758417E+02  0.51100000000E-03 0. -1.
        -11    1    3    3    0    0  0.61158396282E+00  0.13233257973E+01 -0.60821834881E+00  0.15796062580E+01  0.51100000000E-03 0.  1.
        -12    1    3    3    0    0 -0.29769586473E+02  0.11325470698E+02  0.86109093796E+01  0.32994580247E+02  0.00000000000E+00 0.  1.
</event>
<event>
 7    1  0.6672802E-013  0.5930194E+02  0.7816164E-02  0.1266605E+00
        -11   -1    0    0    0    0  0.00000000000E+00  0.00000000000E+00  0.45593999997E+02  0.45594000000E+02  0.51100000000E-03 0. -1.
         11   -1    0    0    0    0 -0.00000000000E+00 -0.00000000000E+00 -0.45593999997E+02  0.45594000000E+02  0.51100000000E-03 0.  1.
    9900012    2    1    2    0    0  0.12582840392E+02  0.99573713067E+01 -0.27554373215E+02  0.59301943503E+02  0.49999999042E+02 0.  0.
         12    1    1    2    0    0 -0.12582840392E+02 -0.99573713067E+01  0.27554373215E+02  0.31886056497E+02  0.00000000000E+00 0. -1.
         11    1    3    3    0    0 -0.10687775709E+02  0.11437763854E+01 -0.21358697663E+02  0.23910891663E+02  0.51100000000E-03 0. -1.
        -11    1    3    3    0    0  0.12257277297E+02 -0.67824232248E+01 -0.81362684486E+01  0.16200030126E+02  0.51100000000E-03 0.  1.
         12    1    3    3    0    0  0.11013338804E+02  0.15596018146E+02  0.19405928959E+01  0.19191021713E+02  0.00000000000E+00 0. -1.
</event>
<event>
 7    1  0.6672802E-013  0.5930196E+02  0.7816164E-02  0.1266605E+00
        -11   -1    0    0    0    0  0.00000000000E+00  0.00000000000E+00  0.45593999997E+02  0.45594000000E+02  0.51100000000E-03 0. -1.
         11   -1    0    0    0    0 -0.00000000000E+00 -0.00000000000E+00 -0.45593999997E+02  0.45594000000E+02  0.51100000000E-03 0.  1.
    9900012    2    1    2    0    0  0.28458838135E+02 -0.35109578795E+01 -0.13945869910E+02  0.59301959469E+02  0.50000028160E+02 0.  0.
         12    1    1    2    0    0 -0.28458838135E+02  0.35109578795E+01  0.13945869910E+02  0.31886040531E+02  0.00000000000E+00 0. -1.
         11    1    3    3    0    0  0.15655851105E+02  0.13595750324E+02 -0.32734297795E+01  0.20992032857E+02  0.51100000000E-03 0. -1.
        -11    1    3    3    0    0 -0.94518349204E+01 -0.14102564524E+01 -0.25405538423E+01  0.98883982884E+01  0.51100000000E-03 0.  1.
         12    1    3    3    0    0  0.22254821950E+02 -0.15696451751E+02 -0.81318862878E+01  0.28421528323E+02  0.00000000000E+00 0. -1.
</event>
<event>
 7    1  0.6672802E-013  0.5930199E+02  0.7816164E-02  0.1266605E+00
        -11   -1    0    0    0    0  0.00000000000E+00  0.00000000000E+00  0.45593999997E+02  0.45594000000E+02  0.51100000000E-03 0.  1.
         11   -1    0    0    0    0 -0.00000000000E+00 -0.00000000000E+00 -0.45593999997E+02  0.45594000000E+02  0.51100000000E-03 0. -1.
    9900012    2    1    2    0    0 -0.20537861545E+02  0.67327300832E+01  0.23443218186E+02  0.59301985979E+02  0.50000076509E+02 0.  0.
         12    1    1    2    0    0  0.20537861545E+02 -0.67327300832E+01 -0.23443218186E+02  0.31886014021E+02  0.00000000000E+00 0. -1.
         11    1    3    3    0    0  0.14016121344E+01  0.10565686362E+02 -0.32341200191E+01  0.11138122707E+02  0.51100000000E-03 0. -1.
        -11    1    3    3    0    0 -0.19932798202E+02  0.11718536925E+02  0.97617270360E+01  0.25098443514E+02  0.51100000000E-03 0.  1.
         12    1    3    3    0    0 -0.20066754768E+01 -0.15551493204E+02  0.16915611170E+02  0.23065419758E+02  0.00000000000E+00 0. -1.
</event>
<event>
 7    1  0.6672802E-013  0.5930196E+02  0.7816164E-02  0.1266605E+00
        -11   -1    0    0    0    0  0.00000000000E+00  0.00000000000E+00  0.45593999997E+02  0.45594000000E+02  0.51100000000E-03 0.  1.
         11   -1    0    0    0    0 -0.00000000000E+00 -0.00000000000E+00 -0.45593999997E+02  0.45594000000E+02  0.51100000000E-03 0. -1.
    9900012    2    1    2    0    0  0.21274336754E+02 -0.28272601844E+00  0.23749569891E+02  0.59301962173E+02  0.50000033092E+02 0.  0.
         12    1    1    2    0    0 -0.21274336754E+02  0.28272601844E+00 -0.23749569891E+02  0.31886037827E+02  0.00000000000E+00 0. -1.
         11    1    3    3    0    0 -0.12667307669E+02 -0.66599848509E+01  0.39189490295E+01  0.14838269560E+02  0.51100000000E-03 0. -1.
        -11    1    3    3    0    0  0.14289523763E+02  0.73080939467E+01 -0.65159452529E+00  0.16063103753E+02  0.51100000000E-03 0.  1.
        -12    1    3    3    0    0  0.19652120660E+02 -0.93083511427E+00  0.20482215387E+02  0.28400588860E+02  0.00000000000E+00 0.  1.
</event>
<event>
 7    1  0.6672802E-013  0.5930193E+02  0.7816164E-02  0.1266605E+00
        -11   -1    0    0    0    0  0.00000000000E+00  0.00000000000E+00  0.45593999997E+02  0.45594000000E+02  0.51100000000E-03 0.  1.
         11   -1    0    0    0    0 -0.00000000000E+00 -0.00000000000E+00 -0.45593999997E+02  0.45594000000E+02  0.51100000000E-03 0. -1.
    9900012    2    1    2    0    0  0.24252375420E+01 -0.33497811575E+01  0.31616744063E+02  0.59301932258E+02  0.49999978534E+02 0.  0.
         12    1    1    2    0    0 -0.24252375420E+01  0.33497811575E+01 -0.31616744063E+02  0.31886067742E+02  0.00000000000E+00 0. -1.
         11    1    3    3    0    0 -0.52563135164E+01  0.12201146207E+02 -0.47038199705E+01  0.14093357412E+02  0.51100000000E-03 0. -1.
        -11    1    3    3    0    0 -0.28701086518E+01 -0.21110561146E+01  0.23699252185E+02  0.23965571889E+02  0.51100000000E-03 0.  1.
        -12    1    3    3    0    0  0.10551659710E+02 -0.13439871250E+02  0.12621311849E+02  0.21243002957E+02  0.00000000000E+00 0.  1.
</event>
<event>
 7    1  0.6672802E-013  0.5930201E+02  0.7816164E-02  0.1266605E+00
        -11   -1    0    0    0    0  0.00000000000E+00  0.00000000000E+00  0.45593999997E+02  0.45594000000E+02  0.51100000000E-03 0. -1.
         11   -1    0    0    0    0 -0.00000000000E+00 -0.00000000000E+00 -0.45593999997E+02  0.45594000000E+02  0.51100000000E-03 0.  1.
    9900012    2    1    2    0    0  0.57039096620E+01  0.31345497081E+02 -0.12813068078E+01  0.59302007467E+02  0.50000115698E+02 0.  0.
         12    1    1    2    0    0 -0.57039096620E+01 -0.31345497081E+02  0.12813068078E+01  0.31885992533E+02  0.00000000000E+00 0. -1.
         11    1    3    3    0    0  0.18146361357E+01 -0.50803549153E+01 -0.11528408128E+02  0.12728201153E+02  0.51100000000E-03 0. -1.
        -11    1    3    3    0    0 -0.93890351389E+00  0.24588230973E+02 -0.65518517178E+01  0.25463491579E+02  0.51100000000E-03 0.  1.
         12    1    3    3    0    0  0.48281770402E+01  0.11837621024E+02  0.16798953038E+02  0.21110314735E+02  0.00000000000E+00 0. -1.
</event>
<event>
 7    1  0.6672802E-013  0.5930197E+02  0.7816164E-02  0.1266605E+00
        -11   -1    0    0    0    0  0.00000000000E+00  0.00000000000E+00  0.45593999997E+02  0.45594000000E+02  0.51100000000E-03 0.  1.
         11   -1    0    0    0    0 -0.00000000000E+00 -0.00000000000E+00 -0.45593999997E+02  0.45594000000E+02  0.51100000000E-03 0. -1.
    9900012    2    1    2    0    0  0.65171819491E+01  0.93545465286E+01  0.29778144781E+02  0.59301966884E+02  0.50000041684E+02 0.  0.
         12    1    1    2    0    0 -0.65171819491E+01 -0.93545465286E+01 -0.29778144781E+02  0.31886033116E+02  0.00000000000E+00 0. -1.
         11    1    3    3    0    0  0.13084290370E+01  0.93096403658E+01  0.30589610006E+00  0.94061130639E+01  0.51100000000E-03 0. -1.
        -11    1    3    3    0    0  0.20103906808E+02 -0.79206974718E+01  0.23636614575E+02  0.32024897599E+02  0.51100000000E-03 0.  1.
         12    1    3    3    0    0 -0.14895153896E+02  0.79656036345E+01  0.58356341059E+01  0.17870956221E+02  0.00000000000E+00 0. -1.
</event>
<event>
 7    1  0.6672802E-013  0.5930196E+02  0.7816164E-02  0.1266605E+00
        -11   -1    0    0    0    0  0.00000000000E+00  0.00000000000E+00  0.45593999997E+02  0.45594000000E+02  0.51100000000E-03 0.  1.
         11   -1    0    0    0    0 -0.00000000000E+00 -0.00000000000E+00 -0.45593999997E+02  0.45594000000E+02  0.51100000000E-03 0. -1.
    9900012    2    1    2    0    0 -0.21339638536E+02 -0.23613663442E+02  0.19324745151E+01  0.59301957101E+02  0.50000023842E+02 0.  0.
         12    1    1    2    0    0  0.21339638536E+02  0.23613663442E+02 -0.19324745151E+01  0.31886042899E+02  0.00000000000E+00 0. -1.
         11    1    3    3    0    0 -0.29125220044E+02 -0.14008511745E+02 -0.11862540944E+02  0.34427267127E+02  0.51100000000E-03 0. -1.
        -11    1    3    3    0    0 -0.15696938291E+01 -0.70683924500E+01  0.13331074584E+02  0.15170486491E+02  0.51100000000E-03 0.  1.
        -12    1    3    3    0    0  0.93552753362E+01 -0.25367592475E+01  0.46394087508E+00  0.97042034826E+01  0.00000000000E+00 0.  1.
</event>
<event>
 7    1  0.6672802E-013  0.5930195E+02  0.7816164E-02  0.1266605E+00
        -11   -1    0    0    0    0  0.00000000000E+00  0.00000000000E+00  0.45593999997E+02  0.45594000000E+02  0.51100000000E-03 0. -1.
         11   -1    0    0    0    0 -0.00000000000E+00 -0.00000000000E+00 -0.45593999997E+02  0.45594000000E+02  0.51100000000E-03 0.  1.
    9900012    2    1    2    0    0  0.18928800498E+02  0.12739125498E+02 -0.22274095502E+02  0.59301950744E+02  0.50000012248E+02 0.  0.
         12    1    1    2    0    0 -0.18928800498E+02 -0.12739125498E+02  0.22274095502E+02  0.31886049256E+02  0.00000000000E+00 0. -1.
         11    1    3    3    0    0  0.45155675100E+01 -0.50390151541E+01 -0.17146474111E+02  0.18433219967E+02  0.51100000000E-03 0. -1.
        -11    1    3    3    0    0 -0.50247475661E+00 -0.80214040439E+00 -0.15034766308E+02  0.15064531466E+02  0.51100000000E-03 0.  1.
        -12    1    3    3    0    0  0.14915707744E+02  0.18580281057E+02  0.99071449161E+01  0.25804199310E+02  0.00000000000E+00 0.  1.
</event>
<event>
 7    1  0.6672802E-013  0.5930196E+02  0.7816164E-02  0.1266605E+00
        -11   -1    0    0    0    0  0.00000000000E+00  0.00000000000E+00  0.45593999997E+02  0.45594000000E+02  0.51100000000E-03 0. -1.
         11   -1    0    0    0    0 -0.00000000000E+00 -0.00000000000E+00 -0.45593999997E+02  0.45594000000E+02  0.51100000000E-03 0.  1.
    9900012    2    1    2    0    0 -0.12343844884E+02 -0.29138729303E+02 -0.39093905415E+01  0.59301962517E+02  0.50000033721E+02 0.  0.
         12    1    1    2    0    0  0.12343844884E+02  0.29138729303E+02  0.39093905415E+01  0.31886037483E+02  0.00000000000E+00 0. -1.
         11    1    3    3    0    0  0.44112836739E+01  0.61857951653E+01 -0.90797700154E+01  0.11839159990E+02  0.51100000000E-03 0. -1.
        -11    1    3    3    0    0 -0.10287189358E+02  0.95253657603E+00  0.11408020723E+01  0.10393989630E+02  0.51100000000E-03 0.  1.
        -12    1    3    3    0    0 -0.64679392007E+01 -0.36277061045E+02  0.40295774016E+01  0.37068812897E+02  0.00000000000E+00 0.  1.
</event>
<event>
 7    1  0.6672802E-013  0.5930194E+02  0.7816164E-02  0.1266605E+00
        -11   -1    0    0    0    0  0.00000000000E+00  0.00000000000E+00  0.45593999997E+02  0.45594000000E+02  0.51100000000E-03 0. -1.
         11   -1    0    0    0    0 -0.00000000000E+00 -0.00000000000E+00 -0.45593999997E+02  0.45594000000E+02  0.51100000000E-03 0.  1.
    9900012    2    1    2    0    0 -0.28358980216E+02  0.10636196294E+02 -0.99679574138E+01  0.59301943400E+02  0.49999998855E+02 0.  0.
         12    1    1    2    0    0  0.28358980216E+02 -0.10636196294E+02  0.99679574138E+01  0.31886056600E+02  0.00000000000E+00 0. -1.
         11    1    3    3    0    0  0.35632112014E+01 -0.41827369510E+01 -0.55352517093E+01  0.77994085810E+01  0.51100000000E-03 0. -1.
        -11    1    3    3    0    0 -0.33430394554E+02 -0.28669693727E+01 -0.33375152743E+01  0.33718686242E+02  0.51100000000E-03 0.  1.
         12    1    3    3    0    0  0.15082031371E+01  0.17685902618E+02 -0.10951904302E+01  0.17783848577E+02  0.00000000000E+00 0. -1.
</event>
<event>
 7    1  0.6672802E-013  0.5930197E+02  0.7816164E-02  0.1266605E+00
        -11   -1    0    0    0    0  0.00000000000E+00  0.00000000000E+00  0.45593999997E+02  0.45594000000E+02  0.51100000000E-03 0. -1.
         11   -1    0    0    0    0 -0.00000000000E+00 -0.00000000000E+00 -0.45593999997E+02  0.45594000000E+02  0.51100000000E-03 0.  1.
    9900012    2    1    2    0    0  0.27302693666E+02  0.50734330490E+01 -0.15669788629E+02  0.59301967321E+02  0.50000042482E+02 0.  0.
         12    1    1    2    0    0 -0.27302693666E+02 -0.50734330490E+01  0.15669788629E+02  0.31886032679E+02  0.00000000000E+00 0. -1.
         11    1    3    3    0    0  0.21665478381E+02  0.14992042140E+02 -0.23667572100E+02  0.35416214513E+02  0.51100000000E-03 0.  1.
        -11    1    3    3    0    0 -0.30473146485E+01 -0.82833832654E+01 -0.34043759872E+01  0.94599334570E+01  0.51100000000E-03 0. -1.
        -12    1    3    3    0    0  0.86845299329E+01 -0.16352258256E+01  0.11402159458E+02  0.14425819352E+02  0.00000000000E+00 0.  1.
</event>
<event>
 7    1  0.6672802E-013  0.5930194E+02  0.7816164E-02  0.1266605E+00
        -11   -1    0    0    0    0  0.00000000000E+00  0.00000000000E+00  0.45593999997E+02  0.45594000000E+02  0.51100000000E-03 0.  1.
         11   -1    0    0    0    0 -0.00000000000E+00 -0.00000000000E+00 -0.45593999997E+02  0.45594000000E+02  0.51100000000E-03 0. -1.
    9900012    2    1    2    0    0  0.23343037576E+02  0.15435653717E+00  0.21720953675E+02  0.59301936307E+02  0.49999985920E+02 0.  0.
         12    1    1    2    0    0 -0.23343037576E+02 -0.15435653717E+00 -0.21720953675E+02  0.31886063693E+02  0.00000000000E+00 0. -1.
         11    1    3    3    0    0 -0.12307426415E+01 -0.42539991238E+01 -0.19272043022E+01  0.48296327684E+01  0.51100000000E-03 0. -1.
        -11    1    3    3    0    0  0.52833960450E+01 -0.10636040259E+02 -0.81126048105E+01  0.14382419241E+02  0.51100000000E-03 0.  1.
        -12    1    3    3    0    0  0.19290384173E+02  0.15044395920E+02  0.31760762788E+02  0.40089884298E+02  0.00000000000E+00 0.  1.
</event>
<event>
 7    1  0.6672802E-013  0.5930196E+02  0.7816164E-02  0.1266605E+00
        -11   -1    0    0    0    0  0.00000000000E+00  0.00000000000E+00  0.45593999997E+02  0.45594000000E+02  0.51100000000E-03 0.  1.
         11   -1    0    0    0    0 -0.00000000000E+00 -0.00000000000E+00 -0.45593999997E+02  0.45594000000E+02  0.51100000000E-03 0. -1.
    9900012    2    1    2    0    0 -0.23999979101E+02  0.16157185074E+02  0.13403957677E+02  0.59301957477E+02  0.50000024528E+02 0.  0.
         12    1    1    2    0    0  0.23999979101E+02 -0.16157185074E+02 -0.13403957677E+02  0.31886042523E+02  0.00000000000E+00 0. -1.
         11    1    3    3    0    0 -0.17994461566E+02  0.20214078503E+02 -0.16404857363E+01  0.27112742585E+02  0.51100000000E-03 0. -1.
        -11    1    3    3    0    0  0.80341394360E+01 -0.26610684900E+00 -0.33772847942E+01  0.87191893072E+01  0.51100000000E-03 0.  1.
        -12    1    3    3    0    0 -0.14039656971E+02 -0.37907865798E+01  0.18421728208E+02  0.23470025584E+02  0.00000000000E+00 0.  1.
</event>
<event>
 7    1  0.6672802E-013  0.5930199E+02  0.7816164E-02  0.1266605E+00
        -11   -1    0    0    0    0  0.00000000000E+00  0.00000000000E+00  0.45593999997E+02  0.45594000000E+02  0.51100000000E-03 0. -1.
         11   -1    0    0    0    0 -0.00000000000E+00 -0.00000000000E+00 -0.45593999997E+02  0.45594000000E+02  0.51100000000E-03 0.  1.
    9900012    2    1    2    0    0 -0.13031378978E+01  0.18123302736E+02 -0.26202392811E+02  0.59301989597E+02  0.50000083107E+02 0.  0.
         12    1    1    2    0    0  0.13031378978E+01 -0.18123302736E+02  0.26202392811E+02  0.31886010403E+02  0.00000000000E+00 0. -1.
         11    1    3    3    0    0  0.28031689242E+01 -0.52573817959E+01 -0.12310570492E+02  0.13676548010E+02  0.51100000000E-03 0. -1.
        -11    1    3    3    0    0  0.12875138519E+02  0.13280205519E+02  0.40516838147E+01  0.18935395230E+02  0.51100000000E-03 0.  1.
         12    1    3    3    0    0 -0.16981445341E+02  0.10100479012E+02 -0.17943506133E+02  0.26690046356E+02  0.00000000000E+00 0. -1.
</event>
<event>
 7    1  0.6672802E-013  0.5930196E+02  0.7816164E-02  0.1266605E+00
        -11   -1    0    0    0    0  0.00000000000E+00  0.00000000000E+00  0.45593999997E+02  0.45594000000E+02  0.51100000000E-03 0.  1.
         11   -1    0    0    0    0 -0.00000000000E+00 -0.00000000000E+00 -0.45593999997E+02  0.45594000000E+02  0.51100000000E-03 0. -1.
    9900012    2    1    2    0    0  0.27193485083E+02 -0.69447842504E+00  0.16635853808E+02  0.59301959744E+02  0.50000028664E+02 0.  0.
         12    1    1    2    0    0 -0.27193485083E+02  0.69447842504E+00 -0.16635853808E+02  0.31886040256E+02  0.00000000000E+00 0. -1.
         11    1    3    3    0    0  0.19087672936E+01 -0.89707232963E+01 -0.25997082293E+01  0.95328774344E+01  0.51100000000E-03 0. -1.
        -11    1    3    3    0    0 -0.56172695759E+01  0.84806582378E+01  0.15641266027E+02  0.18658094351E+02  0.51100000000E-03 0.  1.
         12    1    3    3    0    0  0.30901987365E+02 -0.20441336652E+00  0.35942960105E+01  0.31110987959E+02  0.00000000000E+00 0. -1.
</event>
<event>
 7    1  0.6672802E-013  0.5930192E+02  0.7816164E-02  0.1266605E+00
        -11   -1    0    0    0    0  0.00000000000E+00  0.00000000000E+00  0.45593999997E+02  0.45594000000E+02  0.51100000000E-03 0.  1.
         11   -1    0    0    0    0 -0.00000000000E+00 -0.00000000000E+00 -0.45593999997E+02  0.45594000000E+02  0.51100000000E-03 0. -1.
    9900012    2    1    2    0    0  0.13218177523E+02  0.19230776091E+02  0.21729683560E+02  0.59301919750E+02  0.49999955723E+02 0.  0.
         12    1    1    2    0    0 -0.13218177523E+02 -0.19230776091E+02 -0.21729683560E+02  0.31886080250E+02  0.00000000000E+00 0. -1.
         11    1    3    3    0    0 -0.29929564205E+01  0.12367874739E+01 -0.64456777999E+01  0.72134730853E+01  0.51100000000E-03 0.  1.
        -11    1    3    3    0    0 -0.82063911285E+01  0.96113352031E+00 -0.31777067455E+01  0.88524828957E+01  0.51100000000E-03 0. -1.
        -12    1    3    3    0    0  0.24417525072E+02  0.17032855096E+02  0.31353068106E+02  0.43235963769E+02  0.00000000000E+00 0.  1.
</event>
<event>
 7    1  0.6672802E-013  0.5930193E+02  0.7816164E-02  0.1266605E+00
        -11   -1    0    0    0    0  0.00000000000E+00  0.00000000000E+00  0.45593999997E+02  0.45594000000E+02  0.51100000000E-03 0.  1.
         11   -1    0    0    0    0 -0.00000000000E+00 -0.00000000000E+00 -0.45593999997E+02  0.45594000000E+02  0.51100000000E-03 0. -1.
    9900012    2    1    2    0    0  0.24337071492E+02 -0.18726820681E+02  0.85868929451E+01  0.59301927930E+02  0.49999970641E+02 0.  0.
         12    1    1    2    0    0 -0.24337071492E+02  0.18726820681E+02 -0.85868929451E+01  0.31886072070E+02  0.00000000000E+00 0. -1.
         11    1    3    3    0    0 -0.10418157078E+01  0.68084671706E+01 -0.12193864383E+02  0.14004675435E+02  0.51100000000E-03 0. -1.
        -11    1    3    3    0    0  0.35934020157E+00 -0.52982655356E+01 -0.22066182018E+01  0.57506440696E+01  0.51100000000E-03 0.  1.
         12    1    3    3    0    0  0.25019546998E+02 -0.20237022316E+02  0.22987375530E+02  0.39546608425E+02  0.00000000000E+00 0. -1.
</event>
<event>
 7    1  0.6672802E-013  0.5930187E+02  0.7816164E-02  0.1266605E+00
        -11   -1    0    0    0    0  0.00000000000E+00  0.00000000000E+00  0.45593999997E+02  0.45594000000E+02  0.51100000000E-03 0.  1.
         11   -1    0    0    0    0 -0.00000000000E+00 -0.00000000000E+00 -0.45593999997E+02  0.45594000000E+02  0.51100000000E-03 0. -1.
    9900012    2    1    2    0    0 -0.30070519887E+02  0.53599977725E+01  0.91520072369E+01  0.59301874823E+02  0.49999873786E+02 0.  0.
         12    1    1    2    0    0  0.30070519887E+02 -0.53599977725E+01 -0.91520072369E+01  0.31886125177E+02  0.00000000000E+00 0. -1.
         11    1    3    3    0    0 -0.11644540676E+02 -0.12604338838E+02  0.48469148313E+00  0.17166817154E+02  0.51100000000E-03 0. -1.
        -11    1    3    3    0    0 -0.16811271107E+02  0.59459179433E+01  0.19106047318E+02  0.26134533109E+02  0.51100000000E-03 0.  1.
        -12    1    3    3    0    0 -0.16147081032E+01  0.12018418667E+02 -0.10438731564E+02  0.16000524560E+02  0.00000000000E+00 0.  1.
</event>
<event>
 7    1  0.6672802E-013  0.5930202E+02  0.7816164E-02  0.1266604E+00
        -11   -1    0    0    0    0  0.00000000000E+00  0.00000000000E+00  0.45593999997E+02  0.45594000000E+02  0.51100000000E-03 0. -1.
         11   -1    0    0    0    0 -0.00000000000E+00 -0.00000000000E+00 -0.45593999997E+02  0.45594000000E+02  0.51100000000E-03 0.  1.
    9900012    2    1    2    0    0 -0.26935823904E+02  0.14368944008E+02 -0.92038201917E+01  0.59302023970E+02  0.50000145794E+02 0.  0.
         12    1    1    2    0    0  0.26935823904E+02 -0.14368944008E+02  0.92038201917E+01  0.31885976030E+02  0.00000000000E+00 0. -1.
         11    1    3    3    0    0  0.10966512720E+02  0.32256438978E+01  0.59185487498E+00  0.11446373759E+02  0.51100000000E-03 0. -1.
        -11    1    3    3    0    0 -0.22685739028E+02  0.13187473543E+02  0.47954809601E+01  0.26674873038E+02  0.51100000000E-03 0.  1.
         12    1    3    3    0    0 -0.15216597596E+02 -0.20441734333E+01 -0.14591156027E+02  0.21180777172E+02  0.00000000000E+00 0. -1.
</event>
<event>
 7    1  0.6672802E-013  0.5930195E+02  0.7816164E-02  0.1266605E+00
        -11   -1    0    0    0    0  0.00000000000E+00  0.00000000000E+00  0.45593999997E+02  0.45594000000E+02  0.51100000000E-03 0.  1.
         11   -1    0    0    0    0 -0.00000000000E+00 -0.00000000000E+00 -0.45593999997E+02  0.45594000000E+02  0.51100000000E-03 0. -1.
    9900012    2    1    2    0    0  0.87682796348E+01  0.20684129537E+02  0.22627510695E+02  0.59301950030E+02  0.50000010947E+02 0.  0.
         12    1    1    2    0    0 -0.87682796348E+01 -0.20684129537E+02 -0.22627510695E+02  0.31886049970E+02  0.00000000000E+00 0. -1.
         11    1    3    3    0    0  0.16213573470E+02  0.10994511158E+02  0.38007823918E+01  0.19955079236E+02  0.51100000000E-03 0. -1.
        -11    1    3    3    0    0 -0.92235755738E+00  0.20358045312E+02  0.55771078072E+01  0.21128295817E+02  0.51100000000E-03 0.  1.
        -12    1    3    3    0    0 -0.65229362777E+01 -0.10668426933E+02  0.13249620496E+02  0.18218574977E+02  0.00000000000E+00 0.  1.
</event>
<event>
 7    1  0.6672802E-013  0.5930199E+02  0.7816164E-02  0.1266605E+00
        -11   -1    0    0    0    0  0.00000000000E+00  0.00000000000E+00  0.45593999997E+02  0.45594000000E+02  0.51100000000E-03 0. -1.
         11   -1    0    0    0    0 -0.00000000000E+00 -0.00000000000E+00 -0.45593999997E+02  0.45594000000E+02  0.51100000000E-03 0.  1.
    9900012    2    1    2    0    0 -0.35816040372E+01 -0.29244059661E+02 -0.12193225123E+02  0.59301989716E+02  0.50000083324E+02 0.  0.
         12    1    1    2    0    0  0.35816040372E+01  0.29244059661E+02  0.12193225123E+02  0.31886010284E+02  0.00000000000E+00 0. -1.
         11    1    3    3    0    0 -0.17960699846E+02 -0.86630469902E+01 -0.70672609558E+01  0.21156117313E+02  0.51100000000E-03 0.  1.
        -11    1    3    3    0    0 -0.42798481533E+01  0.16793448365E+01  0.55436572452E+01  0.72020438216E+01  0.51100000000E-03 0. -1.
         12    1    3    3    0    0  0.18658943962E+02 -0.22260357508E+02 -0.10669621413E+02  0.30943828581E+02  0.00000000000E+00 0. -1.
</event>
<event>
 7    1  0.6672802E-013  0.5930196E+02  0.7816164E-02  0.1266605E+00
        -11   -1    0    0    0    0  0.00000000000E+00  0.00000000000E+00  0.45593999997E+02  0.45594000000E+02  0.51100000000E-03 0. -1.
         11   -1    0    0    0    0 -0.00000000000E+00 -0.00000000000E+00 -0.45593999997E+02  0.45594000000E+02  0.51100000000E-03 0.  1.
    9900012    2    1    2    0    0  0.10479336527E+02 -0.11079385339E+02 -0.28002684079E+02  0.59301959337E+02  0.50000027921E+02 0.  0.
         12    1    1    2    0    0 -0.10479336527E+02  0.11079385339E+02  0.28002684079E+02  0.31886040663E+02  0.00000000000E+00 0. -1.
         11    1    3    3    0    0  0.14224761614E+02  0.19651401490E+01 -0.56978038301E+01  0.15448967200E+02  0.51100000000E-03 0. -1.
        -11    1    3    3    0    0  0.23745870650E+01 -0.23733256667E+02 -0.84244814280E+01  0.25295810391E+02  0.51100000000E-03 0.  1.
         12    1    3    3    0    0 -0.61200121520E+01  0.10688731179E+02 -0.13880398820E+02  0.18557181747E+02  0.00000000000E+00 0. -1.
</event>
<event>
 7    1  0.6672802E-013  0.5930200E+02  0.7816164E-02  0.1266605E+00
        -11   -1    0    0    0    0  0.00000000000E+00  0.00000000000E+00  0.45593999997E+02  0.45594000000E+02  0.51100000000E-03 0. -1.
         11   -1    0    0    0    0 -0.00000000000E+00 -0.00000000000E+00 -0.45593999997E+02  0.45594000000E+02  0.51100000000E-03 0.  1.
    9900012    2    1    2    0    0 -0.25157455425E+02 -0.62387317262E+01 -0.18571425594E+02  0.59301997027E+02  0.50000096657E+02 0.  0.
         12    1    1    2    0    0  0.25157455425E+02  0.62387317262E+01  0.18571425594E+02  0.31886002973E+02  0.00000000000E+00 0. -1.
         11    1    3    3    0    0  0.46548445286E+01  0.19238259881E+01  0.23411877326E+01  0.55542636126E+01  0.51100000000E-03 0. -1.
        -11    1    3    3    0    0 -0.37652824977E+02 -0.92760013308E+01 -0.96181320489E+01  0.39953571727E+02  0.51100000000E-03 0.  1.
         12    1    3    3    0    0  0.78405250227E+01  0.11134436165E+01 -0.11294481277E+02  0.13794161687E+02  0.00000000000E+00 0. -1.
</event>
<event>
 7    1  0.6672802E-013  0.5930194E+02  0.7816164E-02  0.1266605E+00
        -11   -1    0    0    0    0  0.00000000000E+00  0.00000000000E+00  0.45593999997E+02  0.45594000000E+02  0.51100000000E-03 0.  1.
         11   -1    0    0    0    0 -0.00000000000E+00 -0.00000000000E+00 -0.45593999997E+02  0.45594000000E+02  0.51100000000E-03 0. -1.
    9900012    2    1    2    0    0  0.25416451786E+01  0.30763046229E+02  0.79935064902E+01  0.59301935340E+02  0.49999984156E+02 0.  0.
         12    1    1    2    0    0 -0.25416451786E+01 -0.30763046229E+02 -0.79935064902E+01  0.31886064660E+02  0.00000000000E+00 0. -1.
         11    1    3    3    0    0 -0.86187886345E+01  0.15753201515E+02  0.12755177897E+02  0.22025926517E+02  0.51100000000E-03 0. -1.
        -11    1    3    3    0    0 -0.87632425638E+01  0.87212489919E+01  0.60359666726E+01  0.13758179318E+02  0.51100000000E-03 0.  1.
         12    1    3    3    0    0  0.19923676377E+02  0.62885957221E+01 -0.10797638080E+02  0.23517829505E+02  0.00000000000E+00 0. -1.
</event>
<event>
 7    1  0.6672802E-013  0.5930194E+02  0.7816164E-02  0.1266605E+00
        -11   -1    0    0    0    0  0.00000000000E+00  0.00000000000E+00  0.45593999997E+02  0.45594000000E+02  0.51100000000E-03 0.  1.
         11   -1    0    0    0    0 -0.00000000000E+00 -0.00000000000E+00 -0.45593999997E+02  0.45594000000E+02  0.51100000000E-03 0. -1.
    9900012    2    1    2    0    0 -0.83407218256E+01  0.25164906185E+02  0.17716678024E+02  0.59301939973E+02  0.49999992604E+02 0.  0.
         12    1    1    2    0    0  0.83407218256E+01 -0.25164906185E+02 -0.17716678024E+02  0.31886060027E+02  0.00000000000E+00 0. -1.
         11    1    3    3    0    0 -0.32552852293E+01 -0.19604928149E+01  0.31904526932E+01  0.49617942975E+01  0.51100000000E-03 0. -1.
        -11    1    3    3    0    0 -0.24545035792E+02  0.16030357065E+02  0.39925617640E+01  0.29586680776E+02  0.51100000000E-03 0.  1.
        -12    1    3    3    0    0  0.19459599195E+02  0.11095041935E+02  0.10533663566E+02  0.24753464899E+02  0.00000000000E+00 0.  1.
</event>
<event>
 7    1  0.6672802E-013  0.5930181E+02  0.7816164E-02  0.1266605E+00
        -11   -1    0    0    0    0  0.00000000000E+00  0.00000000000E+00  0.45593999997E+02  0.45594000000E+02  0.51100000000E-03 0.  1.
         11   -1    0    0    0    0 -0.00000000000E+00 -0.00000000000E+00 -0.45593999997E+02  0.45594000000E+02  0.51100000000E-03 0. -1.
    9900012    2    1    2    0    0  0.23945100048E+02 -0.11477230652E+02  0.17653167636E+02  0.59301812280E+02  0.49999759724E+02 0.  0.
         12    1    1    2    0    0 -0.23945100048E+02  0.11477230652E+02 -0.17653167636E+02  0.31886187720E+02  0.00000000000E+00 0. -1.
         11    1    3    3    0    0 -0.12963181128E+01  0.80418260499E+00  0.10691813600E+02  0.10800093918E+02  0.51100000000E-03 0. -1.
        -11    1    3    3    0    0  0.11598209311E+01 -0.83180788936E-01  0.18934932517E+02  0.18970602872E+02  0.51100000000E-03 0.  1.
         12    1    3    3    0    0  0.24081597229E+02 -0.12198232468E+02 -0.11973578482E+02  0.29531115491E+02  0.00000000000E+00 0. -1.
</event>
<event>
 7    1  0.6672802E-013  0.5930191E+02  0.7816164E-02  0.1266605E+00
        -11   -1    0    0    0    0  0.00000000000E+00  0.00000000000E+00  0.45593999997E+02  0.45594000000E+02  0.51100000000E-03 0. -1.
         11   -1    0    0    0    0 -0.00000000000E+00 -0.00000000000E+00 -0.45593999997E+02  0.45594000000E+02  0.51100000000E-03 0.  1.
    9900012    2    1    2    0    0  0.21342558187E+02  0.11112293956E+02 -0.20922115040E+02  0.59301909542E+02  0.49999937106E+02 0.  0.
         12    1    1    2    0    0 -0.21342558187E+02 -0.11112293956E+02  0.20922115040E+02  0.31886090458E+02  0.00000000000E+00 0. -1.
         11    1    3    3    0    0  0.20043590149E+02 -0.11459619183E+02 -0.12992652382E+02  0.26492968766E+02  0.51100000000E-03 0. -1.
        -11    1    3    3    0    0  0.28179747066E+01  0.12544640936E+02 -0.15510780815E+02  0.20146794271E+02  0.51100000000E-03 0.  1.
         12    1    3    3    0    0 -0.15190066679E+01  0.10027272203E+02  0.75813181571E+01  0.12662146504E+02  0.00000000000E+00 0. -1.
</event>
<event>
 7    1  0.6672802E-013  0.5930196E+02  0.7816164E-02  0.1266605E+00
        -11   -1    0    0    0    0  0.00000000000E+00  0.00000000000E+00  0.45593999997E+02  0.45594000000E+02  0.51100000000E-03 0.  1.
         11   -1    0    0    0    0 -0.00000000000E+00 -0.00000000000E+00 -0.45593999997E+02  0.45594000000E+02  0.51100000000E-03 0. -1.
    9900012    2    1    2    0    0  0.10661351155E+02 -0.26531374998E+02 -0.14111742754E+02  0.59301959931E+02  0.50000029004E+02 0.  0.
         12    1    1    2    0    0 -0.10661351155E+02  0.26531374998E+02  0.14111742754E+02  0.31886040069E+02  0.00000000000E+00 0. -1.
         11    1    3    3    0    0  0.19876515812E+01 -0.15322382276E+01 -0.85500587333E-01  0.25111398619E+01  0.51100000000E-03 0.  1.
        -11    1    3    3    0    0  0.19689741427E+02  0.69612360467E+01 -0.84480977859E+01  0.22528095375E+02  0.51100000000E-03 0. -1.
         12    1    3    3    0    0 -0.11016041853E+02 -0.31960372817E+02 -0.55781443802E+01  0.34262724694E+02  0.00000000000E+00 0. -1.
</event>
<event>
 7    1  0.6672802E-013  0.5930194E+02  0.7816164E-02  0.1266605E+00
        -11   -1    0    0    0    0  0.00000000000E+00  0.00000000000E+00  0.45593999997E+02  0.45594000000E+02  0.51100000000E-03 0.  1.
         11   -1    0    0    0    0 -0.00000000000E+00 -0.00000000000E+00 -0.45593999997E+02  0.45594000000E+02  0.51100000000E-03 0. -1.
    9900012    2    1    2    0    0  0.11427481485E+02  0.72696386548E+01  0.28866686389E+02  0.59301944076E+02  0.50000000089E+02 0.  0.
         12    1    1    2    0    0 -0.11427481485E+02 -0.72696386548E+01 -0.28866686389E+02  0.31886055924E+02  0.00000000000E+00 0. -1.
         11    1    3    3    0    0  0.22277651475E+01 -0.41839843707E+01 -0.58285738856E+01  0.75127183208E+01  0.51100000000E-03 0. -1.
        -11    1    3    3    0    0  0.18515396575E+01  0.23982354159E+01  0.39178457147E+02  0.39295435319E+02  0.51100000000E-03 0.  1.
         12    1    3    3    0    0  0.73481766797E+01  0.90553876096E+01 -0.44831968723E+01  0.12493790437E+02  0.00000000000E+00 0. -1.
</event>
<event>
 7    1  0.6672802E-013  0.5930194E+02  0.7816164E-02  0.1266605E+00
        -11   -1    0    0    0    0  0.00000000000E+00  0.00000000000E+00  0.45593999997E+02  0.45594000000E+02  0.51100000000E-03 0. -1.
         11   -1    0    0    0    0 -0.00000000000E+00 -0.00000000000E+00 -0.45593999997E+02  0.45594000000E+02  0.51100000000E-03 0.  1.
    9900012    2    1    2    0    0 -0.37066699737E+00 -0.34328535789E+01 -0.31698560372E+02  0.59301943371E+02  0.49999998802E+02 0.  0.
         12    1    1    2    0    0  0.37066699737E+00  0.34328535789E+01  0.31698560372E+02  0.31886056629E+02  0.00000000000E+00 0. -1.
         11    1    3    3    0    0  0.48831460405E+01 -0.17155243900E+01 -0.16536275065E+02  0.17327334835E+02  0.51100000000E-03 0. -1.
        -11    1    3    3    0    0  0.10195697782E+02 -0.10581266791E+02 -0.18733103970E+02  0.23808499423E+02  0.51100000000E-03 0.  1.
         12    1    3    3    0    0 -0.15449510820E+02  0.88639376023E+01  0.35708186636E+01  0.18166109113E+02  0.00000000000E+00 0. -1.
</event>
<event>
 7    1  0.6672802E-013  0.5930195E+02  0.7816164E-02  0.1266605E+00
        -11   -1    0    0    0    0  0.00000000000E+00  0.00000000000E+00  0.45593999997E+02  0.45594000000E+02  0.51100000000E-03 0.  1.
         11   -1    0    0    0    0 -0.00000000000E+00 -0.00000000000E+00 -0.45593999997E+02  0.45594000000E+02  0.51100000000E-03 0. -1.
    9900012    2    1    2    0    0  0.81906588865E+01 -0.26618903036E+02  0.15526346379E+02  0.59301947819E+02  0.50000006914E+02 0.  0.
         12    1    1    2    0    0 -0.81906588865E+01  0.26618903036E+02 -0.15526346379E+02  0.31886052181E+02  0.00000000000E+00 0. -1.
         11    1    3    3    0    0 -0.60502409089E+01 -0.97405707270E+01  0.17876551744E+02  0.21238061015E+02  0.51100000000E-03 0. -1.
        -11    1    3    3    0    0  0.39832971852E+01  0.31928332669E+01  0.10815765030E+02  0.11960000593E+02  0.51100000000E-03 0.  1.
         12    1    3    3    0    0  0.10257602610E+02 -0.20071165576E+02 -0.13165970395E+02  0.26103886211E+02  0.00000000000E+00 0. -1.
</event>
<event>
 7    1  0.6672802E-013  0.5930194E+02  0.7816164E-02  0.1266605E+00
        -11   -1    0    0    0    0  0.00000000000E+00  0.00000000000E+00  0.45593999997E+02  0.45594000000E+02  0.51100000000E-03 0.  1.
         11   -1    0    0    0    0 -0.00000000000E+00 -0.00000000000E+00 -0.45593999997E+02  0.45594000000E+02  0.51100000000E-03 0. -1.
    9900012    2    1    2    0    0 -0.28197965881E+02 -0.13010444095E+02 -0.72335143277E+01  0.59301942468E+02  0.49999997156E+02 0.  0.
         12    1    1    2    0    0  0.28197965881E+02  0.13010444095E+02  0.72335143277E+01  0.31886057532E+02  0.00000000000E+00 0. -1.
         11    1    3    3    0    0  0.53412330308E+01  0.59585605297E+00 -0.76223864142E+01  0.93265529342E+01  0.51100000000E-03 0. -1.
        -11    1    3    3    0    0  0.72149623477E+01 -0.11875105441E+01 -0.79130151207E+00  0.73547278206E+01  0.51100000000E-03 0.  1.
        -12    1    3    3    0    0 -0.40754161259E+02 -0.12418789604E+02  0.11801735985E+01  0.42620661714E+02  0.00000000000E+00 0.  1.
</event>
<event>
 7    1  0.6672802E-013  0.5930193E+02  0.7816164E-02  0.1266605E+00
        -11   -1    0    0    0    0  0.00000000000E+00  0.00000000000E+00  0.45593999997E+02  0.45594000000E+02  0.51100000000E-03 0.  1.
         11   -1    0    0    0    0 -0.00000000000E+00 -0.00000000000E+00 -0.45593999997E+02  0.45594000000E+02  0.51100000000E-03 0. -1.
    9900012    2    1    2    0    0 -0.14646575831E+01  0.11394006152E+02  0.29744794041E+02  0.59301931403E+02  0.49999976976E+02 0.  0.
         12    1    1    2    0    0  0.14646575831E+01 -0.11394006152E+02 -0.29744794041E+02  0.31886068597E+02  0.00000000000E+00 0. -1.
         11    1    3    3    0    0  0.98629043483E-01 -0.63884239260E+01 -0.12204934254E+01  0.65047130920E+01  0.51100000000E-03 0. -1.
        -11    1    3    3    0    0 -0.48527697287E+01 -0.10935712089E+02  0.24880170604E+01  0.12220041002E+02  0.51100000000E-03 0.  1.
        -12    1    3    3    0    0  0.32894831021E+01  0.28718142167E+02  0.28477270406E+02  0.40577177309E+02  0.00000000000E+00 0.  1.
</event>
<event>
 7    1  0.6672802E-013  0.5930197E+02  0.7816164E-02  0.1266605E+00
        -11   -1    0    0    0    0  0.00000000000E+00  0.00000000000E+00  0.45593999997E+02  0.45594000000E+02  0.51100000000E-03 0. -1.
         11   -1    0    0    0    0 -0.00000000000E+00 -0.00000000000E+00 -0.45593999997E+02  0.45594000000E+02  0.51100000000E-03 0.  1.
    9900012    2    1    2    0    0 -0.20232265559E+02  0.24155557645E+01 -0.24526307270E+02  0.59301965007E+02  0.50000038260E+02 0.  0.
         12    1    1    2    0    0  0.20232265559E+02 -0.24155557645E+01  0.24526307270E+02  0.31886034993E+02  0.00000000000E+00 0. -1.
         11    1    3    3    0    0 -0.46725918723E+01 -0.46897235899E+01 -0.92673174359E+01  0.11389020804E+02  0.51100000000E-03 0.  1.
        -11    1    3    3    0    0 -0.28287752185E+02 -0.24466599451E+01 -0.46104857027E+01  0.28765250689E+02  0.51100000000E-03 0. -1.
        -12    1    3    3    0    0  0.12728078498E+02  0.95519392995E+01 -0.10648504132E+02  0.19147693513E+02  0.00000000000E+00 0.  1.
</event>
<event>
 7    1  0.6672802E-013  0.5930188E+02  0.7816164E-02  0.1266605E+00
        -11   -1    0    0    0    0  0.00000000000E+00  0.00000000000E+00  0.45593999997E+02  0.45594000000E+02  0.51100000000E-03 0.  1.
         11   -1    0    0    0    0 -0.00000000000E+00 -0.00000000000E+00 -0.45593999997E+02  0.45594000000E+02  0.51100000000E-03 0. -1.
    9900012    2    1    2    0    0 -0.81816422856E+01  0.15468700222E+02  0.26655290708E+02  0.59301882648E+02  0.49999888058E+02 0.  0.
         12    1    1    2    0    0  0.81816422856E+01 -0.15468700222E+02 -0.26655290708E+02  0.31886117352E+02  0.00000000000E+00 0. -1.
         11    1    3    3    0    0  0.60095917978E+01  0.13408939941E+00  0.95834220234E+01  0.11312610286E+02  0.51100000000E-03 0. -1.
        -11    1    3    3    0    0 -0.35212619937E+01  0.26688044016E+02  0.17997358507E+02  0.32381412769E+02  0.51100000000E-03 0.  1.
        -12    1    3    3    0    0 -0.10669972090E+02 -0.11353433193E+02 -0.92548982229E+00  0.15607859593E+02  0.00000000000E+00 0.  1.
</event>
<event>
 7    1  0.6672802E-013  0.5930196E+02  0.7816164E-02  0.1266605E+00
        -11   -1    0    0    0    0  0.00000000000E+00  0.00000000000E+00  0.45593999997E+02  0.45594000000E+02  0.51100000000E-03 0. -1.
         11   -1    0    0    0    0 -0.00000000000E+00 -0.00000000000E+00 -0.45593999997E+02  0.45594000000E+02  0.51100000000E-03 0.  1.
    9900012    2    1    2    0    0  0.26206700352E+02  0.52395224231E+01 -0.17391829698E+02  0.59301961068E+02  0.50000031077E+02 0.  0.
         12    1    1    2    0    0 -0.26206700352E+02 -0.52395224231E+01  0.17391829698E+02  0.31886038932E+02  0.00000000000E+00 0. -1.
         11    1    3    3    0    0  0.13464156591E+02  0.99961696548E+01 -0.22771198880E+02  0.28279576007E+02  0.51100000000E-03 0. -1.
        -11    1    3    3    0    0  0.12557166663E+02 -0.70779088723E+01 -0.86435419576E+01  0.16807440211E+02  0.51100000000E-03 0.  1.
         12    1    3    3    0    0  0.18537709809E+00  0.23212616405E+01  0.14022911139E+02  0.14214944850E+02  0.00000000000E+00 0. -1.
</event>
<event>
 7    1  0.6672802E-013  0.5930193E+02  0.7816164E-02  0.1266605E+00
        -11   -1    0    0    0    0  0.00000000000E+00  0.00000000000E+00  0.45593999997E+02  0.45594000000E+02  0.51100000000E-03 0. -1.
         11   -1    0    0    0    0 -0.00000000000E+00 -0.00000000000E+00 -0.45593999997E+02  0.45594000000E+02  0.51100000000E-03 0.  1.
    9900012    2    1    2    0    0  0.21311275233E+02  0.20945858873E+00 -0.23717226246E+02  0.59301934929E+02  0.49999983405E+02 0.  0.
         12    1    1    2    0    0 -0.21311275233E+02 -0.20945858873E+00  0.23717226246E+02  0.31886065071E+02  0.00000000000E+00 0. -1.
         11    1    3    3    0    0  0.27678204264E-02  0.45290925999E+01  0.29220458760E+01  0.53899016505E+01  0.51100000000E-03 0. -1.
        -11    1    3    3    0    0 -0.12189573985E+01 -0.18728070739E+01 -0.30793464498E+02  0.30874434724E+02  0.51100000000E-03 0.  1.
         12    1    3    3    0    0  0.22527464811E+02 -0.24468269372E+01  0.41541923759E+01  0.23037598554E+02  0.00000000000E+00 0. -1.
</event>
<event>
 7    1  0.6672802E-013  0.5930195E+02  0.7816164E-02  0.1266605E+00
        -11   -1    0    0    0    0  0.00000000000E+00  0.00000000000E+00  0.45593999997E+02  0.45594000000E+02  0.51100000000E-03 0.  1.
         11   -1    0    0    0    0 -0.00000000000E+00 -0.00000000000E+00 -0.45593999997E+02  0.45594000000E+02  0.51100000000E-03 0. -1.
    9900012    2    1    2    0    0  0.11936122162E+02 -0.11355448528E+02  0.27300242249E+02  0.59301945832E+02  0.50000003291E+02 0.  0.
         12    1    1    2    0    0 -0.11936122162E+02  0.11355448528E+02 -0.27300242249E+02  0.31886054168E+02  0.00000000000E+00 0. -1.
         11    1    3    3    0    0  0.26913591599E+01 -0.40971879329E+01 -0.76277586892E+01  0.90671421058E+01  0.51100000000E-03 0. -1.
        -11    1    3    3    0    0  0.79510809145E+01  0.10634726067E+01 -0.49839128909E+01  0.94440483723E+01  0.51100000000E-03 0.  1.
        -12    1    3    3    0    0  0.12936820877E+01 -0.83217332019E+01  0.39911913829E+02  0.40790755354E+02  0.00000000000E+00 0.  1.
</event>
<event>
 7    1  0.6672802E-013  0.5930195E+02  0.7816164E-02  0.1266605E+00
        -11   -1    0    0    0    0  0.00000000000E+00  0.00000000000E+00  0.45593999997E+02  0.45594000000E+02  0.51100000000E-03 0.  1.
         11   -1    0    0    0    0 -0.00000000000E+00 -0.00000000000E+00 -0.45593999997E+02  0.45594000000E+02  0.51100000000E-03 0. -1.
    9900012    2    1    2    0    0 -0.94996190954E+01 -0.28438744108E+02  0.10849663477E+02  0.59301950904E+02  0.50000012540E+02 0.  0.
         12    1    1    2    0    0  0.94996190954E+01  0.28438744108E+02 -0.10849663477E+02  0.31886049096E+02  0.00000000000E+00 0. -1.
         11    1    3    3    0    0  0.47430254685E+01  0.13722091401E+01 -0.28222990233E+01  0.56872331197E+01  0.51100000000E-03 0. -1.
        -11    1    3    3    0    0  0.89225852767E+01 -0.22554453118E+02  0.16261321158E+02  0.29201822709E+02  0.51100000000E-03 0.  1.
        -12    1    3    3    0    0 -0.23165229841E+02 -0.72565001303E+01 -0.25893586571E+01  0.24412895076E+02  0.00000000000E+00 0.  1.
</event>
<event>
 7    1  0.6672802E-013  0.5930195E+02  0.7816164E-02  0.1266605E+00
        -11   -1    0    0    0    0  0.00000000000E+00  0.00000000000E+00  0.45593999997E+02  0.45594000000E+02  0.51100000000E-03 0. -1.
         11   -1    0    0    0    0 -0.00000000000E+00 -0.00000000000E+00 -0.45593999997E+02  0.45594000000E+02  0.51100000000E-03 0.  1.
    9900012    2    1    2    0    0  0.15358504811E+02  0.26265302962E+02 -0.95378508403E+01  0.59301946491E+02  0.50000004492E+02 0.  0.
         12    1    1    2    0    0 -0.15358504811E+02 -0.26265302962E+02  0.95378508403E+01  0.31886053509E+02  0.00000000000E+00 0. -1.
         11    1    3    3    0    0  0.13589114100E+02  0.49390871016E+01 -0.54220018468E+01  0.15442043508E+02  0.51100000000E-03 0.  1.
        -11    1    3    3    0    0 -0.23748198716E+01 -0.66817282259E+01  0.99715976684E+01  0.12235931588E+02  0.51100000000E-03 0. -1.
         12    1    3    3    0    0  0.41442105827E+01  0.28007944087E+02 -0.14087446662E+02  0.31623971395E+02  0.00000000000E+00 0. -1.
</event>
<event>
 7    1  0.6672802E-013  0.5930196E+02  0.7816164E-02  0.1266605E+00
        -11   -1    0    0    0    0  0.00000000000E+00  0.00000000000E+00  0.45593999997E+02  0.45594000000E+02  0.51100000000E-03 0.  1.
         11   -1    0    0    0    0 -0.00000000000E+00 -0.00000000000E+00 -0.45593999997E+02  0.45594000000E+02  0.51100000000E-03 0. -1.
    9900012    2    1    2    0    0  0.55241491820E+01 -0.31399929955E+02 -0.49796663209E+00  0.59301956091E+02  0.50000022001E+02 0.  0.
         12    1    1    2    0    0 -0.55241491820E+01  0.31399929955E+02  0.49796663209E+00  0.31886043909E+02  0.00000000000E+00 0. -1.
         11    1    3    3    0    0 -0.10178301017E+01 -0.12764568841E+02 -0.16155141321E+02  0.20614528546E+02  0.51100000000E-03 0. -1.
        -11    1    3    3    0    0 -0.10111900218E+02 -0.47709684779E+01 -0.11833722377E+01  0.11243355208E+02  0.51100000000E-03 0.  1.
         12    1    3    3    0    0  0.16653879501E+02 -0.13864392637E+02  0.16840546927E+02  0.27444072337E+02  0.00000000000E+00 0. -1.
</event>
<event>
 7    1  0.6672802E-013  0.5930194E+02  0.7816164E-02  0.1266605E+00
        -11   -1    0    0    0    0  0.00000000000E+00  0.00000000000E+00  0.45593999997E+02  0.45594000000E+02  0.51100000000E-03 0.  1.
         11   -1    0    0    0    0 -0.00000000000E+00 -0.00000000000E+00 -0.45593999997E+02  0.45594000000E+02  0.51100000000E-03 0. -1.
    9900012    2    1    2    0    0  0.12629128353E+02 -0.80139211299E+01  0.28160309304E+02  0.59301939802E+02  0.49999992294E+02 0.  0.
         12    1    1    2    0    0 -0.12629128353E+02  0.80139211299E+01 -0.28160309304E+02  0.31886060198E+02  0.00000000000E+00 0. -1.
         11    1    3    3    0    0  0.32276831125E+01 -0.81103207504E+01  0.27528587749E+02  0.28879376459E+02  0.51100000000E-03 0. -1.
        -11    1    3    3    0    0 -0.35880443048E+00 -0.22831162983E+01  0.13725590353E+02  0.13918807113E+02  0.51100000000E-03 0.  1.
         12    1    3    3    0    0  0.97602496707E+01  0.23795159188E+01 -0.13093868797E+02  0.16503756231E+02  0.00000000000E+00 0. -1.
</event>
<event>
 7    1  0.6672802E-013  0.5930193E+02  0.7816164E-02  0.1266605E+00
        -11   -1    0    0    0    0  0.00000000000E+00  0.00000000000E+00  0.45593999997E+02  0.45594000000E+02  0.51100000000E-03 0.  1.
         11   -1    0    0    0    0 -0.00000000000E+00 -0.00000000000E+00 -0.45593999997E+02  0.45594000000E+02  0.51100000000E-03 0. -1.
    9900012    2    1    2    0    0 -0.31044524307E+02  0.67508456493E+01  0.27175097566E+01  0.59301933048E+02  0.49999979975E+02 0.  0.
         12    1    1    2    0    0  0.31044524307E+02 -0.67508456493E+01 -0.27175097566E+01  0.31886066952E+02  0.00000000000E+00 0. -1.
         11    1    3    3    0    0 -0.91714155388E+01  0.77221681006E+01 -0.15921175130E+02  0.19930643767E+02  0.51100000000E-03 0.  1.
        -11    1    3    3    0    0  0.28827687587E+01  0.20072918204E+01 -0.42572611786E+01  0.55194065960E+01  0.51100000000E-03 0. -1.
        -12    1    3    3    0    0 -0.24755877527E+02 -0.29786142717E+01  0.22895946065E+02  0.33851882685E+02  0.00000000000E+00 0.  1.
</event>
<event>
 7    1  0.6672802E-013  0.5930192E+02  0.7816164E-02  0.1266605E+00
        -11   -1    0    0    0    0  0.00000000000E+00  0.00000000000E+00  0.45593999997E+02  0.45594000000E+02  0.51100000000E-03 0.  1.
         11   -1    0    0    0    0 -0.00000000000E+00 -0.00000000000E+00 -0.45593999997E+02  0.45594000000E+02  0.51100000000E-03 0. -1.
    9900012    2    1    2    0    0  0.17966226135E+02  0.75011775467E+01  0.25252111699E+02  0.59301920100E+02  0.49999956362E+02 0.  0.
         12    1    1    2    0    0 -0.17966226135E+02 -0.75011775467E+01 -0.25252111699E+02  0.31886079900E+02  0.00000000000E+00 0. -1.
         11    1    3    3    0    0  0.20352114329E+02 -0.54294757038E+01 -0.49687409686E+00  0.21069756720E+02  0.51100000000E-03 0. -1.
        -11    1    3    3    0    0 -0.27389711185E+01  0.85615118412E+00 -0.46819211414E+01  0.54913881190E+01  0.51100000000E-03 0.  1.
        -12    1    3    3    0    0  0.35308292429E+00  0.12074502066E+02  0.30430906937E+02  0.32740775262E+02  0.00000000000E+00 0.  1.
</event>
<event>
 7    1  0.6672802E-013  0.5930193E+02  0.7816164E-02  0.1266605E+00
        -11   -1    0    0    0    0  0.00000000000E+00  0.00000000000E+00  0.45593999997E+02  0.45594000000E+02  0.51100000000E-03 0.  1.
         11   -1    0    0    0    0 -0.00000000000E+00 -0.00000000000E+00 -0.45593999997E+02  0.45594000000E+02  0.51100000000E-03 0. -1.
    9900012    2    1    2    0    0  0.37303297064E+00 -0.30464911888E+02 -0.94059307697E+01  0.59301928690E+02  0.49999972028E+02 0.  0.
         12    1    1    2    0    0 -0.37303297064E+00  0.30464911888E+02  0.94059307697E+01  0.31886071310E+02  0.00000000000E+00 0. -1.
         11    1    3    3    0    0 -0.19147213631E+02 -0.49383560198E+01  0.16621010225E+01  0.19843531190E+02  0.51100000000E-03 0. -1.
        -11    1    3    3    0    0 -0.37553377470E+01 -0.67262693273E+01 -0.47366457073E+00  0.77181357234E+01  0.51100000000E-03 0.  1.
         12    1    3    3    0    0  0.23275584349E+02 -0.18800286541E+02 -0.10594367221E+02  0.31740261776E+02  0.00000000000E+00 0. -1.
</event>
<event>
 7    1  0.6672802E-013  0.5930196E+02  0.7816164E-02  0.1266605E+00
        -11   -1    0    0    0    0  0.00000000000E+00  0.00000000000E+00  0.45593999997E+02  0.45594000000E+02  0.51100000000E-03 0. -1.
         11   -1    0    0    0    0 -0.00000000000E+00 -0.00000000000E+00 -0.45593999997E+02  0.45594000000E+02  0.51100000000E-03 0.  1.
    9900012    2    1    2    0    0 -0.26055874788E+02  0.10041731834E+02  0.15393969183E+02  0.59301964242E+02  0.50000036866E+02 0.  0.
         12    1    1    2    0    0  0.26055874788E+02 -0.10041731834E+02 -0.15393969183E+02  0.31886035758E+02  0.00000000000E+00 0. -1.
         11    1    3    3    0    0  0.58512074740E+01 -0.30475721390E+01 -0.91974028578E+01  0.11318857912E+02  0.51100000000E-03 0. -1.
        -11    1    3    3    0    0 -0.13563500809E+02  0.22379153107E+01 -0.20141079240E+01  0.13893647834E+02  0.51100000000E-03 0.  1.
        -12    1    3    3    0    0 -0.18343581453E+02  0.10851388662E+02  0.26605479964E+02  0.34089458496E+02  0.00000000000E+00 0.  1.
</event>
<event>
 7    1  0.6672802E-013  0.5930194E+02  0.7816164E-02  0.1266605E+00
        -11   -1    0    0    0    0  0.00000000000E+00  0.00000000000E+00  0.45593999997E+02  0.45594000000E+02  0.51100000000E-03 0.  1.
         11   -1    0    0    0    0 -0.00000000000E+00 -0.00000000000E+00 -0.45593999997E+02  0.45594000000E+02  0.51100000000E-03 0. -1.
    9900012    2    1    2    0    0 -0.15303392002E+02  0.22460039094E+02 -0.16675545036E+02  0.59301937761E+02  0.49999988571E+02 0.  0.
         12    1    1    2    0    0  0.15303392002E+02 -0.22460039094E+02  0.16675545036E+02  0.31886062239E+02  0.00000000000E+00 0. -1.
         11    1    3    3    0    0 -0.15348877936E+02  0.65339750068E+01 -0.47753850622E-01  0.16681821363E+02  0.51100000000E-03 0.  1.
        -11    1    3    3    0    0 -0.16860516490E+02  0.14350526532E+01 -0.60695782217E+01  0.17977101337E+02  0.51100000000E-03 0. -1.
         12    1    3    3    0    0  0.16906002424E+02  0.14491011434E+02 -0.10558212963E+02  0.24643015062E+02  0.00000000000E+00 0. -1.
</event>
<event>
 7    1  0.6672802E-013  0.5930165E+02  0.7816164E-02  0.1266606E+00
        -11   -1    0    0    0    0  0.00000000000E+00  0.00000000000E+00  0.45593999997E+02  0.45594000000E+02  0.51100000000E-03 0. -1.
         11   -1    0    0    0    0 -0.00000000000E+00 -0.00000000000E+00 -0.45593999997E+02  0.45594000000E+02  0.51100000000E-03 0.  1.
    9900012    2    1    2    0    0 -0.76523715190E+01  0.34285598978E+01 -0.30764031726E+02  0.59301647734E+02  0.49999459628E+02 0.  0.
         12    1    1    2    0    0  0.76523715190E+01 -0.34285598978E+01  0.30764031726E+02  0.31886352266E+02  0.00000000000E+00 0. -1.
         11    1    3    3    0    0  0.81793594499E+01 -0.23820670223E+01 -0.67392391802E+01  0.10862481728E+02  0.51100000000E-03 0. -1.
        -11    1    3    3    0    0 -0.16652454396E+02 -0.14235108818E+02 -0.10944906464E+02  0.24489457696E+02  0.51100000000E-03 0.  1.
         12    1    3    3    0    0  0.82072342695E+00  0.20045735738E+02 -0.13079886081E+02  0.23949708310E+02  0.00000000000E+00 0. -1.
</event>
<event>
 7    1  0.6672802E-013  0.5930197E+02  0.7816164E-02  0.1266605E+00
        -11   -1    0    0    0    0  0.00000000000E+00  0.00000000000E+00  0.45593999997E+02  0.45594000000E+02  0.51100000000E-03 0.  1.
         11   -1    0    0    0    0 -0.00000000000E+00 -0.00000000000E+00 -0.45593999997E+02  0.45594000000E+02  0.51100000000E-03 0. -1.
    9900012    2    1    2    0    0 -0.11316216174E+02  0.20345961527E+02  0.21787708620E+02  0.59301966288E+02  0.50000040598E+02 0.  0.
         12    1    1    2    0    0  0.11316216174E+02 -0.20345961527E+02 -0.21787708620E+02  0.31886033712E+02  0.00000000000E+00 0. -1.
         11    1    3    3    0    0 -0.11817067127E+02  0.19984014083E+02  0.14744242039E+02  0.27502664742E+02  0.51100000000E-03 0.  1.
        -11    1    3    3    0    0  0.91535693737E+00 -0.14622524924E+02 -0.11853501688E+01  0.14699019313E+02  0.51100000000E-03 0. -1.
         12    1    3    3    0    0 -0.41450598520E+00  0.14984472369E+02  0.82288167493E+01  0.17100282234E+02  0.00000000000E+00 0. -1.
</event>
<event>
 7    1  0.6672802E-013  0.5930230E+02  0.7816164E-02  0.1266604E+00
        -11   -1    0    0    0    0  0.00000000000E+00  0.00000000000E+00  0.45593999997E+02  0.45594000000E+02  0.51100000000E-03 0. -1.
         11   -1    0    0    0    0 -0.00000000000E+00 -0.00000000000E+00 -0.45593999997E+02  0.45594000000E+02  0.51100000000E-03 0.  1.
    9900012    2    1    2    0    0  0.22538471484E+02  0.96200138246E+01 -0.20400249675E+02  0.59302304938E+02  0.50000658208E+02 0.  0.
         12    1    1    2    0    0 -0.22538471484E+02 -0.96200138246E+01  0.20400249675E+02  0.31885695062E+02  0.00000000000E+00 0. -1.
         11    1    3    3    0    0 -0.52132880801E+01  0.20113278573E+02 -0.11722689122E+01  0.20810972160E+02  0.51100000000E-03 0.  1.
        -11    1    3    3    0    0 -0.11976873034E+01 -0.35458216252E-02  0.10745882375E+01  0.16091014856E+01  0.51100000000E-03 0. -1.
        -12    1    3    3    0    0  0.28949446867E+02 -0.10489718927E+02 -0.20302569000E+02  0.36882231292E+02  0.00000000000E+00 0.  1.
</event>
<event>
 7    1  0.6672802E-013  0.5930195E+02  0.7816164E-02  0.1266605E+00
        -11   -1    0    0    0    0  0.00000000000E+00  0.00000000000E+00  0.45593999997E+02  0.45594000000E+02  0.51100000000E-03 0.  1.
         11   -1    0    0    0    0 -0.00000000000E+00 -0.00000000000E+00 -0.45593999997E+02  0.45594000000E+02  0.51100000000E-03 0. -1.
    9900012    2    1    2    0    0 -0.14220786956E+02  0.28473205817E+02  0.19405691708E+01  0.59301952270E+02  0.50000015032E+02 0.  0.
         12    1    1    2    0    0  0.14220786956E+02 -0.28473205817E+02 -0.19405691708E+01  0.31886047730E+02  0.00000000000E+00 0. -1.
         11    1    3    3    0    0  0.45719986562E+01  0.15619619852E+00 -0.12319871355E+02  0.13141795898E+02  0.51100000000E-03 0. -1.
        -11    1    3    3    0    0 -0.96445184913E+01 -0.35804911884E+01  0.62008987431E+01  0.12011985663E+02  0.51100000000E-03 0.  1.
        -12    1    3    3    0    0 -0.91482671206E+01  0.31897500807E+02  0.80595417827E+01  0.34148170709E+02  0.00000000000E+00 0.  1.
</event>
<event>
 7    1  0.6672802E-013  0.5930193E+02  0.7816164E-02  0.1266605E+00
        -11   -1    0    0    0    0  0.00000000000E+00  0.00000000000E+00  0.45593999997E+02  0.45594000000E+02  0.51100000000E-03 0.  1.
         11   -1    0    0    0    0 -0.00000000000E+00 -0.00000000000E+00 -0.45593999997E+02  0.45594000000E+02  0.51100000000E-03 0. -1.
    9900012    2    1    2    0    0 -0.11352791756E+01  0.28849150584E+02  0.13533619498E+02  0.59301934001E+02  0.49999981713E+02 0.  0.
         12    1    1    2    0    0  0.11352791756E+01 -0.28849150584E+02 -0.13533619498E+02  0.31886065999E+02  0.00000000000E+00 0. -1.
         11    1    3    3    0    0  0.46290316602E+01 -0.58991374549E+01  0.67633208260E+01  0.10098032763E+02  0.51100000000E-03 0. -1.
        -11    1    3    3    0    0  0.88433367390E+01 -0.20951128290E+01  0.17267455063E+01  0.92507163372E+01  0.51100000000E-03 0.  1.
        -12    1    3    3    0    0 -0.14607647575E+02  0.36843400868E+02  0.50435531656E+01  0.39953184901E+02  0.00000000000E+00 0.  1.
</event>
<event>
 7    1  0.6672802E-013  0.5930196E+02  0.7816164E-02  0.1266605E+00
        -11   -1    0    0    0    0  0.00000000000E+00  0.00000000000E+00  0.45593999997E+02  0.45594000000E+02  0.51100000000E-03 0.  1.
         11   -1    0    0    0    0 -0.00000000000E+00 -0.00000000000E+00 -0.45593999997E+02  0.45594000000E+02  0.51100000000E-03 0. -1.
    9900012    2    1    2    0    0 -0.19102714023E+02 -0.12583815977E+02  0.22213818476E+02  0.59301955421E+02  0.50000020779E+02 0.  0.
         12    1    1    2    0    0  0.19102714023E+02  0.12583815977E+02 -0.22213818476E+02  0.31886044579E+02  0.00000000000E+00 0. -1.
         11    1    3    3    0    0  0.96532612459E+01 -0.11111939234E+02  0.13363074803E+02  0.19880453080E+02  0.51100000000E-03 0. -1.
        -11    1    3    3    0    0  0.69174624789E+00 -0.17732373501E+01  0.97741598086E+01  0.99577650000E+01  0.51100000000E-03 0.  1.
        -12    1    3    3    0    0 -0.29447721517E+02  0.30136060690E+00 -0.92341613475E+00  0.29463737341E+02  0.00000000000E+00 0.  1.
</event>
<event>
 7    1  0.6672802E-013  0.5930194E+02  0.7816164E-02  0.1266605E+00
        -11   -1    0    0    0    0  0.00000000000E+00  0.00000000000E+00  0.45593999997E+02  0.45594000000E+02  0.51100000000E-03 0.  1.
         11   -1    0    0    0    0 -0.00000000000E+00 -0.00000000000E+00 -0.45593999997E+02  0.45594000000E+02  0.51100000000E-03 0. -1.
    9900012    2    1    2    0    0 -0.19667134014E+02 -0.17789211443E+02  0.17705043037E+02  0.59301941086E+02  0.49999994636E+02 0.  0.
         12    1    1    2    0    0  0.19667134014E+02  0.17789211443E+02 -0.17705043037E+02  0.31886058914E+02  0.00000000000E+00 0. -1.
         11    1    3    3    0    0  0.69304595694E+01  0.65425388613E+01  0.94313658858E+01  0.13408458052E+02  0.51100000000E-03 0. -1.
        -11    1    3    3    0    0 -0.11872772440E+02  0.39383302959E+01  0.61733752606E+01  0.13949327342E+02  0.51100000000E-03 0.  1.
        -12    1    3    3    0    0 -0.14724821143E+02 -0.28270080601E+02  0.21003018906E+01  0.31944155693E+02  0.00000000000E+00 0.  1.
</event>
<event>
 7    1  0.6672802E-013  0.5930197E+02  0.7816164E-02  0.1266605E+00
        -11   -1    0    0    0    0  0.00000000000E+00  0.00000000000E+00  0.45593999997E+02  0.45594000000E+02  0.51100000000E-03 0.  1.
         11   -1    0    0    0    0 -0.00000000000E+00 -0.00000000000E+00 -0.45593999997E+02  0.45594000000E+02  0.51100000000E-03 0. -1.
    9900012    2    1    2    0    0 -0.21855050139E+02 -0.18044784735E+02  0.14610328931E+02  0.59301965688E+02  0.50000039503E+02 0.  0.
         12    1    1    2    0    0  0.21855050139E+02  0.18044784735E+02 -0.14610328931E+02  0.31886034312E+02  0.00000000000E+00 0. -1.
         11    1    3    3    0    0  0.10169620071E+01 -0.19464083337E+01  0.14088287768E+02  0.14258421008E+02  0.51100000000E-03 0. -1.
        -11    1    3    3    0    0 -0.20812735268E+02 -0.20186264609E+02  0.12983277447E+02  0.31768234476E+02  0.51100000000E-03 0.  1.
        -12    1    3    3    0    0 -0.20592768782E+01  0.40878882081E+01 -0.12461236285E+02  0.13275310204E+02  0.00000000000E+00 0.  1.
</event>
<event>
 7    1  0.6672802E-013  0.5930197E+02  0.7816164E-02  0.1266605E+00
        -11   -1    0    0    0    0  0.00000000000E+00  0.00000000000E+00  0.45593999997E+02  0.45594000000E+02  0.51100000000E-03 0.  1.
         11   -1    0    0    0    0 -0.00000000000E+00 -0.00000000000E+00 -0.45593999997E+02  0.45594000000E+02  0.51100000000E-03 0. -1.
    9900012    2    1    2    0    0  0.91307751542E+01 -0.20970691652E+01  0.30478688682E+02  0.59301965161E+02  0.50000038541E+02 0.  0.
         12    1    1    2    0    0 -0.91307751542E+01  0.20970691652E+01 -0.30478688682E+02  0.31886034839E+02  0.00000000000E+00 0. -1.
         11    1    3    3    0    0  0.13302891163E+02 -0.33167650514E+01  0.48337216564E+01  0.14537286852E+02  0.51100000000E-03 0. -1.
        -11    1    3    3    0    0  0.57208224911E+01 -0.13461778838E+02  0.22420495153E+02  0.26769869305E+02  0.51100000000E-03 0.  1.
         12    1    3    3    0    0 -0.98929385000E+01  0.14681474724E+02  0.32244718731E+01  0.17994809004E+02  0.00000000000E+00 0. -1.
</event>
<event>
 7    1  0.6672802E-013  0.5930202E+02  0.7816164E-02  0.1266604E+00
        -11   -1    0    0    0    0  0.00000000000E+00  0.00000000000E+00  0.45593999997E+02  0.45594000000E+02  0.51100000000E-03 0.  1.
         11   -1    0    0    0    0 -0.00000000000E+00 -0.00000000000E+00 -0.45593999997E+02  0.45594000000E+02  0.51100000000E-03 0. -1.
    9900012    2    1    2    0    0 -0.29115147644E+02 -0.11771320001E+02 -0.55190495076E+01  0.59302020254E+02  0.50000139019E+02 0.  0.
         12    1    1    2    0    0  0.29115147644E+02  0.11771320001E+02  0.55190495076E+01  0.31885979746E+02  0.00000000000E+00 0. -1.
         11    1    3    3    0    0  0.56591970741E+01 -0.10592310016E+02 -0.10022600854E+02  0.15642124893E+02  0.51100000000E-03 0. -1.
        -11    1    3    3    0    0 -0.14147264440E+02 -0.10828511775E+02 -0.57007120331E+01  0.18705610825E+02  0.51100000000E-03 0.  1.
        -12    1    3    3    0    0 -0.20627080278E+02  0.96495017906E+01  0.10204263380E+02  0.24954284536E+02  0.00000000000E+00 0.  1.
</event>
<event>
 7    1  0.6672802E-013  0.5930193E+02  0.7816164E-02  0.1266605E+00
        -11   -1    0    0    0    0  0.00000000000E+00  0.00000000000E+00  0.45593999997E+02  0.45594000000E+02  0.51100000000E-03 0.  1.
         11   -1    0    0    0    0 -0.00000000000E+00 -0.00000000000E+00 -0.45593999997E+02  0.45594000000E+02  0.51100000000E-03 0. -1.
    9900012    2    1    2    0    0 -0.25095141950E+02  0.60941104571E+01  0.18703394658E+02  0.59301932455E+02  0.49999978893E+02 0.  0.
         12    1    1    2    0    0  0.25095141950E+02 -0.60941104571E+01 -0.18703394658E+02  0.31886067545E+02  0.00000000000E+00 0. -1.
         11    1    3    3    0    0  0.48710033472E+01  0.11348896099E+02 -0.44585651986E+01  0.13130229250E+02  0.51100000000E-03 0. -1.
        -11    1    3    3    0    0  0.23179803202E+01 -0.49045711760E+01  0.98580381648E+01  0.11252056163E+02  0.51100000000E-03 0.  1.
        -12    1    3    3    0    0 -0.32284125618E+02 -0.35021446578E+00  0.13303921692E+02  0.34919647041E+02  0.00000000000E+00 0.  1.
</event>
<event>
 7    1  0.6672802E-013  0.5930196E+02  0.7816164E-02  0.1266605E+00
        -11   -1    0    0    0    0  0.00000000000E+00  0.00000000000E+00  0.45593999997E+02  0.45594000000E+02  0.51100000000E-03 0. -1.
         11   -1    0    0    0    0 -0.00000000000E+00 -0.00000000000E+00 -0.45593999997E+02  0.45594000000E+02  0.51100000000E-03 0.  1.
    9900012    2    1    2    0    0  0.17726107593E+02 -0.17595842260E+02 -0.19821482961E+02  0.59301956940E+02  0.50000023550E+02 0.  0.
         12    1    1    2    0    0 -0.17726107593E+02  0.17595842260E+02  0.19821482961E+02  0.31886043060E+02  0.00000000000E+00 0. -1.
         11    1    3    3    0    0  0.26385271264E+01  0.32529248278E+01 -0.97911422081E+01  0.10649404271E+02  0.51100000000E-03 0. -1.
        -11    1    3    3    0    0 -0.11342570352E+02  0.18422462123E+01  0.22642751229E+01  0.11712161004E+02  0.51100000000E-03 0.  1.
        -12    1    3    3    0    0  0.26430150818E+02 -0.22691013300E+02 -0.12294615875E+02  0.36940391665E+02  0.00000000000E+00 0.  1.
</event>
<event>
 7    1  0.6672802E-013  0.5930194E+02  0.7816164E-02  0.1266605E+00
        -11   -1    0    0    0    0  0.00000000000E+00  0.00000000000E+00  0.45593999997E+02  0.45594000000E+02  0.51100000000E-03 0. -1.
         11   -1    0    0    0    0 -0.00000000000E+00 -0.00000000000E+00 -0.45593999997E+02  0.45594000000E+02  0.51100000000E-03 0.  1.
    9900012    2    1    2    0    0 -0.18491825606E+02  0.25802529123E+02 -0.30004448952E+01  0.59301940461E+02  0.49999993495E+02 0.  0.
         12    1    1    2    0    0  0.18491825606E+02 -0.25802529123E+02  0.30004448952E+01  0.31886059539E+02  0.00000000000E+00 0. -1.
         11    1    3    3    0    0  0.12673381072E+02  0.15065749965E+02 -0.44926671075E+01  0.20193451112E+02  0.51100000000E-03 0. -1.
        -11    1    3    3    0    0 -0.13371242398E+02  0.39679179880E+01  0.11060987320E+02  0.17801121796E+02  0.51100000000E-03 0.  1.
        -12    1    3    3    0    0 -0.17793964280E+02  0.67688611699E+01 -0.95687651080E+01  0.21307367553E+02  0.00000000000E+00 0.  1.
</event>
<event>
 7    1  0.6672802E-013  0.5930195E+02  0.7816164E-02  0.1266605E+00
        -11   -1    0    0    0    0  0.00000000000E+00  0.00000000000E+00  0.45593999997E+02  0.45594000000E+02  0.51100000000E-03 0.  1.
         11   -1    0    0    0    0 -0.00000000000E+00 -0.00000000000E+00 -0.45593999997E+02  0.45594000000E+02  0.51100000000E-03 0. -1.
    9900012    2    1    2    0    0  0.61651179119E+01  0.30839020727E+02 -0.52598555173E+01  0.59301953548E+02  0.50000017363E+02 0.  0.
         12    1    1    2    0    0 -0.61651179119E+01 -0.30839020727E+02  0.52598555173E+01  0.31886046452E+02  0.00000000000E+00 0. -1.
         11    1    3    3    0    0 -0.97272977639E+01  0.15443259719E+01 -0.45554241987E+01  0.10851596859E+02  0.51100000000E-03 0. -1.
        -11    1    3    3    0    0  0.61387171860E+01  0.21034875382E+02 -0.17004849513E+02  0.27736523543E+02  0.51100000000E-03 0.  1.
        -12    1    3    3    0    0  0.97536984898E+01  0.82598193726E+01  0.16300418194E+02  0.20713833146E+02  0.00000000000E+00 0.  1.
</event>
<event>
 7    1  0.6672802E-013  0.5930201E+02  0.7816164E-02  0.1266605E+00
        -11   -1    0    0    0    0  0.00000000000E+00  0.00000000000E+00  0.45593999997E+02  0.45594000000E+02  0.51100000000E-03 0. -1.
         11   -1    0    0    0    0 -0.00000000000E+00 -0.00000000000E+00 -0.45593999997E+02  0.45594000000E+02  0.51100000000E-03 0.  1.
    9900012    2    1    2    0    0 -0.26960287983E+02  0.16050586818E+02 -0.56778462793E+01  0.59302009287E+02  0.50000119018E+02 0.  0.
         12    1    1    2    0    0  0.26960287983E+02 -0.16050586818E+02  0.56778462793E+01  0.31885990713E+02  0.00000000000E+00 0. -1.
         11    1    3    3    0    0 -0.48499171215E+01  0.32429824838E+01  0.81409593639E+01  0.10015680262E+02  0.51100000000E-03 0. -1.
        -11    1    3    3    0    0 -0.18593792669E+02  0.10194459901E+02  0.11134973062E+02  0.23950861443E+02  0.51100000000E-03 0.  1.
         12    1    3    3    0    0 -0.35165781927E+01  0.26131444331E+01 -0.24953778705E+02  0.25335467583E+02  0.00000000000E+00 0. -1.
</event>
<event>
 7    1  0.6672802E-013  0.5930195E+02  0.7816164E-02  0.1266605E+00
        -11   -1    0    0    0    0  0.00000000000E+00  0.00000000000E+00  0.45593999997E+02  0.45594000000E+02  0.51100000000E-03 0.  1.
         11   -1    0    0    0    0 -0.00000000000E+00 -0.00000000000E+00 -0.45593999997E+02  0.45594000000E+02  0.51100000000E-03 0. -1.
    9900012    2    1    2    0    0  0.17548309850E+02 -0.82691326359E-01  0.26622741461E+02  0.59301946946E+02  0.50000005322E+02 0.  0.
         12    1    1    2    0    0 -0.17548309850E+02  0.82691326359E-01 -0.26622741461E+02  0.31886053054E+02  0.00000000000E+00 0. -1.
         11    1    3    3    0    0  0.41834216294E+01  0.73034458483E+01  0.32078529375E+02  0.33164339055E+02  0.51100000000E-03 0. -1.
        -11    1    3    3    0    0  0.11703713425E+02  0.39427636880E+01  0.19475642739E+01  0.12502611739E+02  0.51100000000E-03 0.  1.
         12    1    3    3    0    0  0.16611747955E+01 -0.11328900863E+02 -0.74033521878E+01  0.13634996152E+02  0.00000000000E+00 0. -1.
</event>
<event>
 7    1  0.6672802E-013  0.5930194E+02  0.7816164E-02  0.1266605E+00
        -11   -1    0    0    0    0  0.00000000000E+00  0.00000000000E+00  0.45593999997E+02  0.45594000000E+02  0.51100000000E-03 0. -1.
         11   -1    0    0    0    0 -0.00000000000E+00 -0.00000000000E+00 -0.45593999997E+02  0.45594000000E+02  0.51100000000E-03 0.  1.
    9900012    2    1    2    0    0  0.14505438229E+02  0.25915053538E+02 -0.11607030280E+02  0.59301938938E+02  0.49999990718E+02 0.  0.
         12    1    1    2    0    0 -0.14505438229E+02 -0.25915053538E+02  0.11607030280E+02  0.31886061062E+02  0.00000000000E+00 0. -1.
         11    1    3    3    0    0  0.15013065170E+02 -0.35197637138E+01  0.46965829758E+01  0.16119514704E+02  0.51100000000E-03 0. -1.
        -11    1    3    3    0    0 -0.26378644534E+01 -0.45924423228E+01  0.20903423465E+00  0.53002406488E+01  0.51100000000E-03 0.  1.
        -12    1    3    3    0    0  0.21302375129E+01  0.34027259575E+02 -0.16512647491E+02  0.37882183585E+02  0.00000000000E+00 0.  1.
</event>
<event>
 7    1  0.6672802E-013  0.5930194E+02  0.7816164E-02  0.1266605E+00
        -11   -1    0    0    0    0  0.00000000000E+00  0.00000000000E+00  0.45593999997E+02  0.45594000000E+02  0.51100000000E-03 0. -1.
         11   -1    0    0    0    0 -0.00000000000E+00 -0.00000000000E+00 -0.45593999997E+02  0.45594000000E+02  0.51100000000E-03 0.  1.
    9900012    2    1    2    0    0  0.24481365811E+02 -0.19702359738E+01 -0.20334747695E+02  0.59301936186E+02  0.49999985698E+02 0.  0.
         12    1    1    2    0    0 -0.24481365811E+02  0.19702359738E+01  0.20334747695E+02  0.31886063814E+02  0.00000000000E+00 0. -1.
         11    1    3    3    0    0 -0.38326014064E+01 -0.10874905380E+02  0.82448489548E+01  0.14174975665E+02  0.51100000000E-03 0. -1.
        -11    1    3    3    0    0  0.14397363871E+01 -0.43574814561E+01 -0.17763887843E+01  0.49209798698E+01  0.51100000000E-03 0.  1.
        -12    1    3    3    0    0  0.26874230830E+02  0.13262150862E+02 -0.26803207865E+02  0.40205980651E+02  0.00000000000E+00 0.  1.
</event>
<event>
 7    1  0.6672802E-013  0.5930194E+02  0.7816164E-02  0.1266605E+00
        -11   -1    0    0    0    0  0.00000000000E+00  0.00000000000E+00  0.45593999997E+02  0.45594000000E+02  0.51100000000E-03 0.  1.
         11   -1    0    0    0    0 -0.00000000000E+00 -0.00000000000E+00 -0.45593999997E+02  0.45594000000E+02  0.51100000000E-03 0. -1.
    9900012    2    1    2    0    0 -0.23565543122E+02 -0.17319144208E+02  0.12705645360E+02  0.59301937171E+02  0.49999987495E+02 0.  0.
         12    1    1    2    0    0  0.23565543122E+02  0.17319144208E+02 -0.12705645360E+02  0.31886062829E+02  0.00000000000E+00 0. -1.
         11    1    3    3    0    0 -0.64434128047E+01 -0.90170201698E+01  0.33597767458E+01  0.11580687430E+02  0.51100000000E-03 0. -1.
        -11    1    3    3    0    0 -0.20630266152E+02 -0.87100280171E+01  0.23895826283E+02  0.32748785986E+02  0.51100000000E-03 0.  1.
         12    1    3    3    0    0  0.35081358352E+01  0.40790397857E+00 -0.14549957669E+02  0.14972463754E+02  0.00000000000E+00 0. -1.
</event>
<event>
 7    1  0.6672802E-013  0.5930193E+02  0.7816164E-02  0.1266605E+00
        -11   -1    0    0    0    0  0.00000000000E+00  0.00000000000E+00  0.45593999997E+02  0.45594000000E+02  0.51100000000E-03 0.  1.
         11   -1    0    0    0    0 -0.00000000000E+00 -0.00000000000E+00 -0.45593999997E+02  0.45594000000E+02  0.51100000000E-03 0. -1.
    9900012    2    1    2    0    0  0.31781654816E+02 -0.35441540565E+00  0.25538268292E+01  0.59301933692E+02  0.49999981151E+02 0.  0.
         12    1    1    2    0    0 -0.31781654816E+02  0.35441540565E+00 -0.25538268292E+01  0.31886066308E+02  0.00000000000E+00 0. -1.
         11    1    3    3    0    0  0.19784670085E+01  0.67523559543E+01  0.55477331028E+01  0.89602447220E+01  0.51100000000E-03 0. -1.
        -11    1    3    3    0    0  0.11493145517E+02 -0.21198170806E+02  0.70874474666E+01  0.25133379224E+02  0.51100000000E-03 0.  1.
         12    1    3    3    0    0  0.18310042291E+02  0.14091399446E+02 -0.10081353740E+02  0.25208309746E+02  0.00000000000E+00 0. -1.
</event>
<event>
 7    1  0.8107154E-013  0.5930196E+02  0.7816164E-02  0.1266605E+00
        -11   -1    0    0    0    0  0.00000000000E+00  0.00000000000E+00  0.45593999997E+02  0.45594000000E+02  0.51100000000E-03 0. -1.
         11   -1    0    0    0    0 -0.00000000000E+00 -0.00000000000E+00 -0.45593999997E+02  0.45594000000E+02  0.51100000000E-03 0.  1.
    9900012    2    1    2    0    0 -0.13522255771E+02  0.11431877155E+02 -0.26517552488E+02  0.59301955931E+02  0.50000021709E+02 0.  0.
         12    1    1    2    0    0  0.13522255771E+02 -0.11431877155E+02  0.26517552488E+02  0.31886044069E+02  0.00000000000E+00 0. -1.
         11    1    3    3    0    0  0.43573133376E+00 -0.52519597337E+01  0.62177127013E+01  0.81506376644E+01  0.51100000000E-03 0. -1.
        -11    1    3    3    0    0  0.18217405165E+00  0.12704957617E+02  0.25240423279E+01  0.12954533005E+02  0.51100000000E-03 0.  1.
        -12    1    3    3    0    0 -0.14140161156E+02  0.39788792720E+01 -0.35259307517E+02  0.38196785262E+02  0.00000000000E+00 0.  1.
</event>
<event>
 7    1  0.6672802E-013  0.5930179E+02  0.7816164E-02  0.1266605E+00
        -11   -1    0    0    0    0  0.00000000000E+00  0.00000000000E+00  0.45593999997E+02  0.45594000000E+02  0.51100000000E-03 0.  1.
         11   -1    0    0    0    0 -0.00000000000E+00 -0.00000000000E+00 -0.45593999997E+02  0.45594000000E+02  0.51100000000E-03 0. -1.
    9900012    2    1    2    0    0  0.23020272242E+02 -0.14750360046E+02  0.16408063705E+02  0.59301786520E+02  0.49999712742E+02 0.  0.
         12    1    1    2    0    0 -0.23020272242E+02  0.14750360046E+02 -0.16408063705E+02  0.31886213480E+02  0.00000000000E+00 0. -1.
         11    1    3    3    0    0  0.61014196606E+01  0.68825454853E+01  0.13619589326E+01  0.92979399130E+01  0.51100000000E-03 0. -1.
        -11    1    3    3    0    0  0.28889934584E+02 -0.15529827940E+02  0.16076215420E+02  0.36527367529E+02  0.51100000000E-03 0.  1.
         12    1    3    3    0    0 -0.11971082002E+02 -0.61030775914E+01 -0.10301106475E+01  0.13476479078E+02  0.00000000000E+00 0. -1.
</event>
<event>
 7    1  0.6672802E-013  0.5930183E+02  0.7816164E-02  0.1266605E+00
        -11   -1    0    0    0    0  0.00000000000E+00  0.00000000000E+00  0.45593999997E+02  0.45594000000E+02  0.51100000000E-03 0. -1.
         11   -1    0    0    0    0 -0.00000000000E+00 -0.00000000000E+00 -0.45593999997E+02  0.45594000000E+02  0.51100000000E-03 0.  1.
    9900012    2    1    2    0    0  0.82923674920E+01  0.29859288508E+02  0.75091564154E+01  0.59301829034E+02  0.49999790278E+02 0.  0.
         12    1    1    2    0    0 -0.82923674920E+01 -0.29859288508E+02 -0.75091564154E+01  0.31886170966E+02  0.00000000000E+00 0. -1.
         11    1    3    3    0    0  0.14145504909E+02  0.57319586275E+01  0.87125627247E+01  0.17574396386E+02  0.51100000000E-03 0. -1.
        -11    1    3    3    0    0 -0.33085341744E+01  0.27051269602E+02  0.10647327842E+02  0.29258899089E+02  0.51100000000E-03 0.  1.
         12    1    3    3    0    0 -0.25446032427E+01 -0.29239397217E+01 -0.11850734152E+02  0.12468533558E+02  0.00000000000E+00 0. -1.
</event>
<event>
 7    1  0.6672802E-013  0.5930195E+02  0.7816164E-02  0.1266605E+00
        -11   -1    0    0    0    0  0.00000000000E+00  0.00000000000E+00  0.45593999997E+02  0.45594000000E+02  0.51100000000E-03 0. -1.
         11   -1    0    0    0    0 -0.00000000000E+00 -0.00000000000E+00 -0.45593999997E+02  0.45594000000E+02  0.51100000000E-03 0.  1.
    9900012    2    1    2    0    0  0.41525715671E+01  0.12370304539E+02 -0.29093849542E+02  0.59301947153E+02  0.50000005699E+02 0.  0.
         12    1    1    2    0    0 -0.41525715671E+01 -0.12370304539E+02  0.29093849542E+02  0.31886052847E+02  0.00000000000E+00 0. -1.
         11    1    3    3    0    0  0.18853570726E+01 -0.27647196673E+01  0.16281078229E+01  0.37214219693E+01  0.51100000000E-03 0. -1.
        -11    1    3    3    0    0  0.15122205794E+02 -0.40476728001E+01 -0.28327138381E+02  0.32364973850E+02  0.51100000000E-03 0.  1.
         12    1    3    3    0    0 -0.12854991300E+02  0.19182697007E+02 -0.23948189839E+01  0.23215551334E+02  0.00000000000E+00 0. -1.
</event>
<event>
 7    1  0.6672802E-013  0.5930195E+02  0.7816164E-02  0.1266605E+00
        -11   -1    0    0    0    0  0.00000000000E+00  0.00000000000E+00  0.45593999997E+02  0.45594000000E+02  0.51100000000E-03 0.  1.
         11   -1    0    0    0    0 -0.00000000000E+00 -0.00000000000E+00 -0.45593999997E+02  0.45594000000E+02  0.51100000000E-03 0. -1.
    9900012    2    1    2    0    0 -0.14323674352E+02 -0.40337337325E+01  0.28200736244E+02  0.59301950080E+02  0.50000011038E+02 0.  0.
         12    1    1    2    0    0  0.14323674352E+02  0.40337337325E+01 -0.28200736244E+02  0.31886049920E+02  0.00000000000E+00 0. -1.
         11    1    3    3    0    0  0.23820270946E+01 -0.10908161751E+02  0.22709035314E+01  0.11393816260E+02  0.51100000000E-03 0. -1.
        -11    1    3    3    0    0 -0.20043983729E+02  0.36254976839E+01  0.33390239209E+02  0.39112831551E+02  0.51100000000E-03 0.  1.
         12    1    3    3    0    0  0.33382822829E+01  0.32489303346E+01 -0.74604064962E+01  0.87953022693E+01  0.00000000000E+00 0. -1.
</event>
<event>
 7    1  0.6672802E-013  0.5930197E+02  0.7816164E-02  0.1266605E+00
        -11   -1    0    0    0    0  0.00000000000E+00  0.00000000000E+00  0.45593999997E+02  0.45594000000E+02  0.51100000000E-03 0.  1.
         11   -1    0    0    0    0 -0.00000000000E+00 -0.00000000000E+00 -0.45593999997E+02  0.45594000000E+02  0.51100000000E-03 0. -1.
    9900012    2    1    2    0    0  0.25872967359E+02  0.30224377162E+01  0.18389481290E+02  0.59301974976E+02  0.50000056442E+02 0.  0.
         12    1    1    2    0    0 -0.25872967359E+02 -0.30224377162E+01 -0.18389481290E+02  0.31886025024E+02  0.00000000000E+00 0. -1.
         11    1    3    3    0    0  0.21618598305E+02  0.68376303377E+01 -0.63837436204E+00  0.22683132575E+02  0.51100000000E-03 0. -1.
        -11    1    3    3    0    0  0.15597886406E+02 -0.80298157438E+01  0.16847056566E+02  0.24322732503E+02  0.51100000000E-03 0.  1.
        -12    1    3    3    0    0 -0.11343517352E+02  0.42146231223E+01  0.21807990866E+01  0.12296109898E+02  0.00000000000E+00 0.  1.
</event>
<event>
 7    1  0.6672802E-013  0.5930193E+02  0.7816164E-02  0.1266605E+00
        -11   -1    0    0    0    0  0.00000000000E+00  0.00000000000E+00  0.45593999997E+02  0.45594000000E+02  0.51100000000E-03 0.  1.
         11   -1    0    0    0    0 -0.00000000000E+00 -0.00000000000E+00 -0.45593999997E+02  0.45594000000E+02  0.51100000000E-03 0. -1.
    9900012    2    1    2    0    0 -0.20414072513E+02  0.60829956689E+01  0.23727289423E+02  0.59301930059E+02  0.49999974525E+02 0.  0.
         12    1    1    2    0    0  0.20414072513E+02 -0.60829956689E+01 -0.23727289423E+02  0.31886069941E+02  0.00000000000E+00 0. -1.
         11    1    3    3    0    0 -0.35734400285E+00  0.12295105475E+02 -0.80574649611E+01  0.14704422982E+02  0.51100000000E-03 0.  1.
        -11    1    3    3    0    0 -0.40916981283E+01  0.44278697721E+01 -0.14696677801E+01  0.62054772530E+01  0.51100000000E-03 0. -1.
        -12    1    3    3    0    0 -0.15965030382E+02 -0.10639979578E+02  0.33254422165E+02  0.38392029824E+02  0.00000000000E+00 0.  1.
</event>
<event>
 7    1  0.6672802E-013  0.5930193E+02  0.7816164E-02  0.1266605E+00
        -11   -1    0    0    0    0  0.00000000000E+00  0.00000000000E+00  0.45593999997E+02  0.45594000000E+02  0.51100000000E-03 0.  1.
         11   -1    0    0    0    0 -0.00000000000E+00 -0.00000000000E+00 -0.45593999997E+02  0.45594000000E+02  0.51100000000E-03 0. -1.
    9900012    2    1    2    0    0 -0.12511509530E+02 -0.23213766977E+02  0.17924978066E+02  0.59301926447E+02  0.49999967937E+02 0.  0.
         12    1    1    2    0    0  0.12511509530E+02  0.23213766977E+02 -0.17924978066E+02  0.31886073553E+02  0.00000000000E+00 0. -1.
         11    1    3    3    0    0 -0.12672893208E+02 -0.91741773819E+01  0.52156499375E+01  0.16491535933E+02  0.51100000000E-03 0. -1.
        -11    1    3    3    0    0  0.92899740450E+01 -0.53195377927E+01  0.23742485882E+02  0.26044322533E+02  0.51100000000E-03 0.  1.
         12    1    3    3    0    0 -0.91285903677E+01 -0.87200518022E+01 -0.11033157754E+02  0.16766067981E+02  0.00000000000E+00 0. -1.
</event>
<event>
 7    1  0.6672802E-013  0.5930192E+02  0.7816164E-02  0.1266605E+00
        -11   -1    0    0    0    0  0.00000000000E+00  0.00000000000E+00  0.45593999997E+02  0.45594000000E+02  0.51100000000E-03 0.  1.
         11   -1    0    0    0    0 -0.00000000000E+00 -0.00000000000E+00 -0.45593999997E+02  0.45594000000E+02  0.51100000000E-03 0. -1.
    9900012    2    1    2    0    0  0.82452140987E+01 -0.28537372713E+02  0.11591253052E+02  0.59301916135E+02  0.49999949131E+02 0.  0.
         12    1    1    2    0    0 -0.82452140987E+01  0.28537372713E+02 -0.11591253052E+02  0.31886083865E+02  0.00000000000E+00 0. -1.
         11    1    3    3    0    0 -0.66502739035E+01 -0.48878853873E+01  0.12896379717E+02  0.15311243471E+02  0.51100000000E-03 0. -1.
        -11    1    3    3    0    0  0.20342490848E+02 -0.44680190882E+01  0.75758972381E+01  0.22162453558E+02  0.51100000000E-03 0.  1.
        -12    1    3    3    0    0 -0.54470028462E+01 -0.19181468238E+02 -0.88810239035E+01  0.21828219106E+02  0.00000000000E+00 0.  1.
</event>
<event>
 7    1  0.6672802E-013  0.5930199E+02  0.7816164E-02  0.1266605E+00
        -11   -1    0    0    0    0  0.00000000000E+00  0.00000000000E+00  0.45593999997E+02  0.45594000000E+02  0.51100000000E-03 0.  1.
         11   -1    0    0    0    0 -0.00000000000E+00 -0.00000000000E+00 -0.45593999997E+02  0.45594000000E+02  0.51100000000E-03 0. -1.
    9900012    2    1    2    0    0  0.13664354591E+02 -0.28794562656E+02  0.93606131237E+00  0.59301989968E+02  0.50000083785E+02 0.  0.
         12    1    1    2    0    0 -0.13664354591E+02  0.28794562656E+02 -0.93606131237E+00  0.31886010032E+02  0.00000000000E+00 0. -1.
         11    1    3    3    0    0  0.51185203748E+01 -0.73188104493E+01 -0.10819799457E+02  0.14029693431E+02  0.51100000000E-03 0. -1.
        -11    1    3    3    0    0 -0.88343173561E+01 -0.23906860362E+02  0.30089553870E+01  0.25663923089E+02  0.51100000000E-03 0.  1.
         12    1    3    3    0    0  0.17380151573E+02  0.24311081554E+01  0.87469053819E+01  0.19608373449E+02  0.00000000000E+00 0. -1.
</event>
<event>
 7    1  0.6672802E-013  0.5930194E+02  0.7816164E-02  0.1266605E+00
        -11   -1    0    0    0    0  0.00000000000E+00  0.00000000000E+00  0.45593999997E+02  0.45594000000E+02  0.51100000000E-03 0.  1.
         11   -1    0    0    0    0 -0.00000000000E+00 -0.00000000000E+00 -0.45593999997E+02  0.45594000000E+02  0.51100000000E-03 0. -1.
    9900012    2    1    2    0    0 -0.66615343113E+01 -0.17528660706E+02  0.25789360181E+02  0.59301935895E+02  0.49999985168E+02 0.  0.
         12    1    1    2    0    0  0.66615343113E+01  0.17528660706E+02 -0.25789360181E+02  0.31886064105E+02  0.00000000000E+00 0. -1.
         11    1    3    3    0    0 -0.25176509793E+01 -0.36718657406E+01 -0.10195847480E+02  0.11125487430E+02  0.51100000000E-03 0. -1.
        -11    1    3    3    0    0 -0.10905908966E+02 -0.26450139830E+01  0.15406418943E+01  0.11327335391E+02  0.51100000000E-03 0.  1.
         12    1    3    3    0    0  0.67620256341E+01 -0.11211780982E+02  0.34444565767E+02  0.36849113074E+02  0.00000000000E+00 0. -1.
</event>
<event>
 7    1  0.6672802E-013  0.5930195E+02  0.7816164E-02  0.1266605E+00
        -11   -1    0    0    0    0  0.00000000000E+00  0.00000000000E+00  0.45593999997E+02  0.45594000000E+02  0.51100000000E-03 0.  1.
         11   -1    0    0    0    0 -0.00000000000E+00 -0.00000000000E+00 -0.45593999997E+02  0.45594000000E+02  0.51100000000E-03 0. -1.
    9900012    2    1    2    0    0 -0.26147032218E+02 -0.62321516015E+01 -0.17152647651E+02  0.59301947739E+02  0.50000006768E+02 0.  0.
         12    1    1    2    0    0  0.26147032218E+02  0.62321516015E+01  0.17152647651E+02  0.31886052261E+02  0.00000000000E+00 0. -1.
         11    1    3    3    0    0 -0.99868778573E+00 -0.14527720140E+02 -0.77287640460E+01  0.16485928051E+02  0.51100000000E-03 0. -1.
        -11    1    3    3    0    0 -0.11748235294E+02 -0.10765597876E+02  0.32929817466E+01  0.16271535244E+02  0.51100000000E-03 0.  1.
         12    1    3    3    0    0 -0.13400109138E+02  0.19061166415E+02 -0.12716865352E+02  0.26544484443E+02  0.00000000000E+00 0. -1.
</event>
<event>
 7    1  0.6672802E-013  0.5930196E+02  0.7816164E-02  0.1266605E+00
        -11   -1    0    0    0    0  0.00000000000E+00  0.00000000000E+00  0.45593999997E+02  0.45594000000E+02  0.51100000000E-03 0.  1.
         11   -1    0    0    0    0 -0.00000000000E+00 -0.00000000000E+00 -0.45593999997E+02  0.45594000000E+02  0.51100000000E-03 0. -1.
    9900012    2    1    2    0    0  0.62330089206E+01  0.27054197009E+02 -0.15682467118E+02  0.59301956800E+02  0.50000023294E+02 0.  0.
         12    1    1    2    0    0 -0.62330089206E+01 -0.27054197009E+02  0.15682467118E+02  0.31886043200E+02  0.00000000000E+00 0. -1.
         11    1    3    3    0    0  0.63384803183E+01  0.53370666202E+01 -0.15760007088E+02  0.17805573188E+02  0.51100000000E-03 0. -1.
        -11    1    3    3    0    0  0.82442715392E+01  0.28439115736E+02 -0.42944510484E+01  0.29919786549E+02  0.51100000000E-03 0.  1.
         12    1    3    3    0    0 -0.83497429369E+01 -0.67219853466E+01  0.43719910186E+01  0.11576597064E+02  0.00000000000E+00 0. -1.
</event>
<event>
 7    1  0.6672802E-013  0.5930195E+02  0.7816164E-02  0.1266605E+00
        -11   -1    0    0    0    0  0.00000000000E+00  0.00000000000E+00  0.45593999997E+02  0.45594000000E+02  0.51100000000E-03 0.  1.
         11   -1    0    0    0    0 -0.00000000000E+00 -0.00000000000E+00 -0.45593999997E+02  0.45594000000E+02  0.51100000000E-03 0. -1.
    9900012    2    1    2    0    0 -0.23258188642E+02 -0.93219029170E+01  0.19720016567E+02  0.59301948719E+02  0.50000008556E+02 0.  0.
         12    1    1    2    0    0  0.23258188642E+02  0.93219029170E+01 -0.19720016567E+02  0.31886051281E+02  0.00000000000E+00 0. -1.
         11    1    3    3    0    0  0.26033058150E+01  0.16675761652E+02  0.64841895094E+01  0.18080457452E+02  0.51100000000E-03 0. -1.
        -11    1    3    3    0    0 -0.35063548012E+01 -0.12051422388E+02  0.26617996317E+01  0.12830295519E+02  0.51100000000E-03 0.  1.
        -12    1    3    3    0    0 -0.22355139655E+02 -0.13946242181E+02  0.10574027426E+02  0.28391195748E+02  0.00000000000E+00 0.  1.
</event>
<event>
 7    1  0.6672802E-013  0.5930182E+02  0.7816164E-02  0.1266605E+00
        -11   -1    0    0    0    0  0.00000000000E+00  0.00000000000E+00  0.45593999997E+02  0.45594000000E+02  0.51100000000E-03 0.  1.
         11   -1    0    0    0    0 -0.00000000000E+00 -0.00000000000E+00 -0.45593999997E+02  0.45594000000E+02  0.51100000000E-03 0. -1.
    9900012    2    1    2    0    0 -0.90180168249E+01  0.48582224137E+01  0.30196047305E+02  0.59301823915E+02  0.49999780943E+02 0.  0.
         12    1    1    2    0    0  0.90180168249E+01 -0.48582224137E+01 -0.30196047305E+02  0.31886176085E+02  0.00000000000E+00 0. -1.
         11    1    3    3    0    0  0.40526370418E+00  0.60310902274E+01 -0.39793760894E+01  0.72369691393E+01  0.51100000000E-03 0. -1.
        -11    1    3    3    0    0 -0.92425524305E+01  0.22509882084E+01 -0.63224318948E+01  0.11422121899E+02  0.51100000000E-03 0.  1.
        -12    1    3    3    0    0 -0.18072809861E+00 -0.34238560220E+01  0.40497855289E+02  0.40642732877E+02  0.00000000000E+00 0.  1.
</event>
<event>
 7    1  0.6672802E-013  0.5930191E+02  0.7816164E-02  0.1266605E+00
        -11   -1    0    0    0    0  0.00000000000E+00  0.00000000000E+00  0.45593999997E+02  0.45594000000E+02  0.51100000000E-03 0.  1.
         11   -1    0    0    0    0 -0.00000000000E+00 -0.00000000000E+00 -0.45593999997E+02  0.45594000000E+02  0.51100000000E-03 0. -1.
    9900012    2    1    2    0    0 -0.27436243671E+02  0.14836488855E+02  0.66222029240E+01  0.59301914635E+02  0.49999946395E+02 0.  0.
         12    1    1    2    0    0  0.27436243671E+02 -0.14836488855E+02 -0.66222029240E+01  0.31886085365E+02  0.00000000000E+00 0. -1.
         11    1    3    3    0    0  0.39644416193E+01 -0.79694944064E+01  0.69002647603E+01  0.11262472751E+02  0.51100000000E-03 0.  1.
        -11    1    3    3    0    0 -0.62887682558E+01 -0.59674639219E+01 -0.42273967194E+01  0.96452120308E+01  0.51100000000E-03 0. -1.
        -12    1    3    3    0    0 -0.25111917035E+02  0.28773447183E+02  0.39493348831E+01  0.38394229853E+02  0.00000000000E+00 0.  1.
</event>
<event>
 7    1  0.6672802E-013  0.5930194E+02  0.7816164E-02  0.1266605E+00
        -11   -1    0    0    0    0  0.00000000000E+00  0.00000000000E+00  0.45593999997E+02  0.45594000000E+02  0.51100000000E-03 0. -1.
         11   -1    0    0    0    0 -0.00000000000E+00 -0.00000000000E+00 -0.45593999997E+02  0.45594000000E+02  0.51100000000E-03 0.  1.
    9900012    2    1    2    0    0 -0.30088064542E+02 -0.66937854937E+01 -0.81622452817E+01  0.59301942857E+02  0.49999997864E+02 0.  0.
         12    1    1    2    0    0  0.30088064542E+02  0.66937854937E+01  0.81622452817E+01  0.31886057143E+02  0.00000000000E+00 0. -1.
         11    1    3    3    0    0 -0.76406406602E+01 -0.90103707847E+01  0.78254383955E+01  0.14170520729E+02  0.51100000000E-03 0. -1.
        -11    1    3    3    0    0  0.78644878894E+01  0.81102011622E+01 -0.52355008289E+01  0.12451345383E+02  0.51100000000E-03 0.  1.
         12    1    3    3    0    0 -0.30311911771E+02 -0.57936158712E+01 -0.10752182848E+02  0.32680076745E+02  0.00000000000E+00 0. -1.
</event>
<event>
 7    1  0.6672802E-013  0.5930191E+02  0.7816164E-02  0.1266605E+00
        -11   -1    0    0    0    0  0.00000000000E+00  0.00000000000E+00  0.45593999997E+02  0.45594000000E+02  0.51100000000E-03 0.  1.
         11   -1    0    0    0    0 -0.00000000000E+00 -0.00000000000E+00 -0.45593999997E+02  0.45594000000E+02  0.51100000000E-03 0. -1.
    9900012    2    1    2    0    0 -0.21345919452E+02 -0.13473759117E+02  0.19481583033E+02  0.59301913073E+02  0.49999943547E+02 0.  0.
         12    1    1    2    0    0  0.21345919452E+02  0.13473759117E+02 -0.19481583033E+02  0.31886086927E+02  0.00000000000E+00 0. -1.
         11    1    3    3    0    0 -0.34320540688E+01  0.53146662641E+01 -0.42359290729E+01  0.76136566774E+01  0.51100000000E-03 0. -1.
        -11    1    3    3    0    0  0.64536177683E+01 -0.81333537190E+01 -0.58518616471E+01  0.11918259521E+02  0.51100000000E-03 0.  1.
        -12    1    3    3    0    0 -0.24367483152E+02 -0.10655071662E+02  0.29569373753E+02  0.39769996875E+02  0.00000000000E+00 0.  1.
</event>
<event>
 7    1  0.6672802E-013  0.5930193E+02  0.7816164E-02  0.1266605E+00
        -11   -1    0    0    0    0  0.00000000000E+00  0.00000000000E+00  0.45593999997E+02  0.45594000000E+02  0.51100000000E-03 0.  1.
         11   -1    0    0    0    0 -0.00000000000E+00 -0.00000000000E+00 -0.45593999997E+02  0.45594000000E+02  0.51100000000E-03 0. -1.
    9900012    2    1    2    0    0  0.29337967033E+02  0.99608334049E+01  0.75357209003E+01  0.59301927786E+02  0.49999970379E+02 0.  0.
         12    1    1    2    0    0 -0.29337967033E+02 -0.99608334049E+01 -0.75357209003E+01  0.31886072214E+02  0.00000000000E+00 0. -1.
         11    1    3    3    0    0 -0.40848765605E+01 -0.44051254169E+01 -0.13245099593E+02  0.14543865027E+02  0.51100000000E-03 0. -1.
        -11    1    3    3    0    0  0.62733689689E+01 -0.45566353293E+00  0.10356583889E+02  0.12116997053E+02  0.51100000000E-03 0.  1.
        -12    1    3    3    0    0  0.27149474624E+02  0.14821622355E+02  0.10424236604E+02  0.32641065705E+02  0.00000000000E+00 0.  1.
</event>
<event>
 7    1  0.6672802E-013  0.5930193E+02  0.7816164E-02  0.1266605E+00
        -11   -1    0    0    0    0  0.00000000000E+00  0.00000000000E+00  0.45593999997E+02  0.45594000000E+02  0.51100000000E-03 0.  1.
         11   -1    0    0    0    0 -0.00000000000E+00 -0.00000000000E+00 -0.45593999997E+02  0.45594000000E+02  0.51100000000E-03 0. -1.
    9900012    2    1    2    0    0  0.26890758132E+02  0.42740701740E+01  0.16593397948E+02  0.59301930876E+02  0.49999976014E+02 0.  0.
         12    1    1    2    0    0 -0.26890758132E+02 -0.42740701740E+01 -0.16593397948E+02  0.31886069124E+02  0.00000000000E+00 0. -1.
         11    1    3    3    0    0  0.42950298733E+01 -0.11758851495E+02 -0.54059672512E+01  0.13636068065E+02  0.51100000000E-03 0.  1.
        -11    1    3    3    0    0 -0.32284987249E+01 -0.77327550550E+00 -0.41075092182E+01  0.52813626331E+01  0.51100000000E-03 0. -1.
        -12    1    3    3    0    0  0.25824226983E+02  0.16806197174E+02  0.26106874417E+02  0.40384500177E+02  0.00000000000E+00 0.  1.
</event>
<event>
 7    1  0.6672802E-013  0.5930203E+02  0.7816164E-02  0.1266604E+00
        -11   -1    0    0    0    0  0.00000000000E+00  0.00000000000E+00  0.45593999997E+02  0.45594000000E+02  0.51100000000E-03 0.  1.
         11   -1    0    0    0    0 -0.00000000000E+00 -0.00000000000E+00 -0.45593999997E+02  0.45594000000E+02  0.51100000000E-03 0. -1.
    9900012    2    1    2    0    0  0.11028661787E+02 -0.15431596667E+02  0.25631030036E+02  0.59302027266E+02  0.50000151806E+02 0.  0.
         12    1    1    2    0    0 -0.11028661787E+02  0.15431596667E+02 -0.25631030036E+02  0.31885972734E+02  0.00000000000E+00 0. -1.
         11    1    3    3    0    0  0.27586827630E+01 -0.11832197178E+02 -0.38467217227E+01  0.12743958919E+02  0.51100000000E-03 0. -1.
        -11    1    3    3    0    0 -0.13095266226E+02  0.59446316465E+00  0.16986238546E+02  0.21456273772E+02  0.51100000000E-03 0.  1.
         12    1    3    3    0    0  0.21365245250E+02 -0.41938626536E+01  0.12491513212E+02  0.25101794575E+02  0.00000000000E+00 0. -1.
</event>
<event>
 7    1  0.6672802E-013  0.5930194E+02  0.7816164E-02  0.1266605E+00
        -11   -1    0    0    0    0  0.00000000000E+00  0.00000000000E+00  0.45593999997E+02  0.45594000000E+02  0.51100000000E-03 0.  1.
         11   -1    0    0    0    0 -0.00000000000E+00 -0.00000000000E+00 -0.45593999997E+02  0.45594000000E+02  0.51100000000E-03 0. -1.
    9900012    2    1    2    0    0 -0.29191053134E+02  0.12761112282E+02  0.13256992854E+01  0.59301936456E+02  0.49999986191E+02 0.  0.
         12    1    1    2    0    0  0.29191053134E+02 -0.12761112282E+02 -0.13256992854E+01  0.31886063544E+02  0.00000000000E+00 0. -1.
         11    1    3    3    0    0 -0.14490793598E+02  0.13312196942E+02 -0.10604768500E+02  0.22353049047E+02  0.51100000000E-03 0. -1.
        -11    1    3    3    0    0 -0.21992645481E+02 -0.80686646305E+00 -0.10777979405E+01  0.22033818040E+02  0.51100000000E-03 0.  1.
        -12    1    3    3    0    0  0.72923859450E+01  0.25578180335E+00  0.13008265725E+02  0.14915069369E+02  0.00000000000E+00 0.  1.
</event>
<event>
 7    1  0.6672802E-013  0.5930205E+02  0.7816164E-02  0.1266604E+00
        -11   -1    0    0    0    0  0.00000000000E+00  0.00000000000E+00  0.45593999997E+02  0.45594000000E+02  0.51100000000E-03 0. -1.
         11   -1    0    0    0    0 -0.00000000000E+00 -0.00000000000E+00 -0.45593999997E+02  0.45594000000E+02  0.51100000000E-03 0.  1.
    9900012    2    1    2    0    0  0.25686631527E+02  0.95678350097E+01 -0.16290098271E+02  0.59302049996E+02  0.50000193260E+02 0.  0.
         12    1    1    2    0    0 -0.25686631527E+02 -0.95678350097E+01  0.16290098271E+02  0.31885950004E+02  0.00000000000E+00 0. -1.
         11    1    3    3    0    0 -0.34209493685E+00 -0.10381097751E+02 -0.10140772279E+02  0.14516180012E+02  0.51100000000E-03 0. -1.
        -11    1    3    3    0    0  0.16867571819E+02 -0.10109210415E+00  0.79201614276E+01  0.18634756665E+02  0.51100000000E-03 0.  1.
        -12    1    3    3    0    0  0.91611546454E+01  0.20050024865E+02 -0.14069487420E+02  0.26151113318E+02  0.00000000000E+00 0.  1.
</event>
<event>
 7    1  0.6672802E-013  0.5930195E+02  0.7816164E-02  0.1266605E+00
        -11   -1    0    0    0    0  0.00000000000E+00  0.00000000000E+00  0.45593999997E+02  0.45594000000E+02  0.51100000000E-03 0. -1.
         11   -1    0    0    0    0 -0.00000000000E+00 -0.00000000000E+00 -0.45593999997E+02  0.45594000000E+02  0.51100000000E-03 0.  1.
    9900012    2    1    2    0    0 -0.28113337129E+02 -0.79355206783E+01  0.12782336282E+02  0.59301947661E+02  0.50000006626E+02 0.  0.
         12    1    1    2    0    0  0.28113337129E+02  0.79355206783E+01 -0.12782336282E+02  0.31886052339E+02  0.00000000000E+00 0. -1.
         11    1    3    3    0    0 -0.12021687036E+01 -0.62243426335E+00  0.10071265527E+02  0.10161841545E+02  0.51100000000E-03 0. -1.
        -11    1    3    3    0    0 -0.35771389521E+01  0.15145464224E+02  0.57979973484E+01  0.16607160599E+02  0.51100000000E-03 0.  1.
         12    1    3    3    0    0 -0.23334029473E+02 -0.22458550639E+02 -0.30869265935E+01  0.32532945518E+02  0.00000000000E+00 0. -1.
</event>
<event>
 7    1  0.6672802E-013  0.5930193E+02  0.7816164E-02  0.1266605E+00
        -11   -1    0    0    0    0  0.00000000000E+00  0.00000000000E+00  0.45593999997E+02  0.45594000000E+02  0.51100000000E-03 0.  1.
         11   -1    0    0    0    0 -0.00000000000E+00 -0.00000000000E+00 -0.45593999997E+02  0.45594000000E+02  0.51100000000E-03 0. -1.
    9900012    2    1    2    0    0  0.78261022172E+01  0.29660308989E+02  0.87028438610E+01  0.59301932564E+02  0.49999979093E+02 0.  0.
         12    1    1    2    0    0 -0.78261022172E+01 -0.29660308989E+02 -0.87028438610E+01  0.31886067436E+02  0.00000000000E+00 0. -1.
         11    1    3    3    0    0 -0.29843311596E+01  0.98765473164E+01  0.11770283970E+01  0.10384498807E+02  0.51100000000E-03 0. -1.
        -11    1    3    3    0    0 -0.14239886405E+02  0.16464619275E+02  0.91119996913E+01  0.23598444681E+02  0.51100000000E-03 0.  1.
         12    1    3    3    0    0  0.25050319782E+02  0.33191423976E+01 -0.15861842273E+01  0.25318989076E+02  0.00000000000E+00 0. -1.
</event>
<event>
 7    1  0.6672802E-013  0.5930192E+02  0.7816164E-02  0.1266605E+00
        -11   -1    0    0    0    0  0.00000000000E+00  0.00000000000E+00  0.45593999997E+02  0.45594000000E+02  0.51100000000E-03 0. -1.
         11   -1    0    0    0    0 -0.00000000000E+00 -0.00000000000E+00 -0.45593999997E+02  0.45594000000E+02  0.51100000000E-03 0.  1.
    9900012    2    1    2    0    0 -0.21984787675E+02  0.21636613023E+02 -0.80776391969E+01  0.59301918911E+02  0.49999954194E+02 0.  0.
         12    1    1    2    0    0  0.21984787675E+02 -0.21636613023E+02  0.80776391969E+01  0.31886081089E+02  0.00000000000E+00 0. -1.
         11    1    3    3    0    0 -0.27283175887E+01  0.17855978374E+02 -0.48560896811E+01  0.18704579327E+02  0.51100000000E-03 0. -1.
        -11    1    3    3    0    0 -0.43910422318E+01  0.93502294495E+01 -0.16790655464E+02  0.19713806172E+02  0.51100000000E-03 0.  1.
         12    1    3    3    0    0 -0.14865427854E+02 -0.55695948004E+01  0.13569105948E+02  0.20883533412E+02  0.00000000000E+00 0. -1.
</event>
<event>
 7    1  0.6672802E-013  0.5930196E+02  0.7816164E-02  0.1266605E+00
        -11   -1    0    0    0    0  0.00000000000E+00  0.00000000000E+00  0.45593999997E+02  0.45594000000E+02  0.51100000000E-03 0. -1.
         11   -1    0    0    0    0 -0.00000000000E+00 -0.00000000000E+00 -0.45593999997E+02  0.45594000000E+02  0.51100000000E-03 0.  1.
    9900012    2    1    2    0    0 -0.46373328917E+01  0.30971320644E+01 -0.31394624004E+02  0.59301960739E+02  0.50000030478E+02 0.  0.
         12    1    1    2    0    0  0.46373328917E+01 -0.30971320644E+01  0.31394624004E+02  0.31886039261E+02  0.00000000000E+00 0. -1.
         11    1    3    3    0    0 -0.44858638096E+01  0.48492901267E+01 -0.18404748243E+02  0.19554369000E+02  0.51100000000E-03 0. -1.
        -11    1    3    3    0    0  0.13653362703E+02  0.11927915152E+02 -0.61888737153E+01  0.19157025633E+02  0.51100000000E-03 0.  1.
         12    1    3    3    0    0 -0.13804831785E+02 -0.13680073214E+02 -0.68010020454E+01  0.20590566106E+02  0.00000000000E+00 0. -1.
</event>
<event>
 7    1  0.6672802E-013  0.5930194E+02  0.7816164E-02  0.1266605E+00
        -11   -1    0    0    0    0  0.00000000000E+00  0.00000000000E+00  0.45593999997E+02  0.45594000000E+02  0.51100000000E-03 0.  1.
         11   -1    0    0    0    0 -0.00000000000E+00 -0.00000000000E+00 -0.45593999997E+02  0.45594000000E+02  0.51100000000E-03 0. -1.
    9900012    2    1    2    0    0  0.98346432792E+01 -0.30324225728E+02 -0.66476113857E+00  0.59301940635E+02  0.49999993813E+02 0.  0.
         12    1    1    2    0    0 -0.98346432792E+01  0.30324225728E+02  0.66476113857E+00  0.31886059365E+02  0.00000000000E+00 0. -1.
         11    1    3    3    0    0  0.17161277615E+01 -0.20713687240E+02  0.16800434001E+01  0.20852445412E+02  0.51100000000E-03 0. -1.
        -11    1    3    3    0    0 -0.29169211075E+01 -0.21318367036E+02 -0.51329094163E+01  0.22120758603E+02  0.51100000000E-03 0.  1.
         12    1    3    3    0    0  0.11035436625E+02  0.11707828548E+02  0.27881048776E+01  0.16328736621E+02  0.00000000000E+00 0. -1.
</event>
<event>
 7    1  0.6672802E-013  0.5930190E+02  0.7816164E-02  0.1266605E+00
        -11   -1    0    0    0    0  0.00000000000E+00  0.00000000000E+00  0.45593999997E+02  0.45594000000E+02  0.51100000000E-03 0. -1.
         11   -1    0    0    0    0 -0.00000000000E+00 -0.00000000000E+00 -0.45593999997E+02  0.45594000000E+02  0.51100000000E-03 0.  1.
    9900012    2    1    2    0    0 -0.26698303180E+02 -0.16157783348E+02 -0.65459708665E+01  0.59301904441E+02  0.49999927803E+02 0.  0.
         12    1    1    2    0    0  0.26698303180E+02  0.16157783348E+02  0.65459708665E+01  0.31886095559E+02  0.00000000000E+00 0. -1.
         11    1    3    3    0    0  0.79622004535E+00 -0.97808977457E+00  0.83373394081E+01  0.84321915677E+01  0.51100000000E-03 0. -1.
        -11    1    3    3    0    0  0.43991667312E+00  0.43275886931E+01 -0.16198951724E+02  0.16772822893E+02  0.51100000000E-03 0.  1.
        -12    1    3    3    0    0 -0.27934439899E+02 -0.19507282267E+02  0.13156414496E+01  0.34096889980E+02  0.00000000000E+00 0.  1.
</event>
<event>
 7    1  0.6672802E-013  0.5930195E+02  0.7816164E-02  0.1266605E+00
        -11   -1    0    0    0    0  0.00000000000E+00  0.00000000000E+00  0.45593999997E+02  0.45594000000E+02  0.51100000000E-03 0. -1.
         11   -1    0    0    0    0 -0.00000000000E+00 -0.00000000000E+00 -0.45593999997E+02  0.45594000000E+02  0.51100000000E-03 0.  1.
    9900012    2    1    2    0    0 -0.18786437419E+02 -0.24129377769E+02  0.90312325270E+01  0.59301948765E+02  0.50000008639E+02 0.  0.
         12    1    1    2    0    0  0.18786437419E+02  0.24129377769E+02 -0.90312325270E+01  0.31886051235E+02  0.00000000000E+00 0. -1.
         11    1    3    3    0    0 -0.99180170909E+01  0.85886363421E+01 -0.24773735174E+01  0.13351745842E+02  0.51100000000E-03 0. -1.
        -11    1    3    3    0    0  0.76665545862E+01 -0.30711585287E+01  0.85309253391E+01  0.11873700406E+02  0.51100000000E-03 0.  1.
        -12    1    3    3    0    0 -0.16534974915E+02 -0.29646855582E+02  0.29776807053E+01  0.34076502516E+02  0.00000000000E+00 0.  1.
</event>
<event>
 7    1  0.6672802E-013  0.5930207E+02  0.7816164E-02  0.1266604E+00
        -11   -1    0    0    0    0  0.00000000000E+00  0.00000000000E+00  0.45593999997E+02  0.45594000000E+02  0.51100000000E-03 0.  1.
         11   -1    0    0    0    0 -0.00000000000E+00 -0.00000000000E+00 -0.45593999997E+02  0.45594000000E+02  0.51100000000E-03 0. -1.
    9900012    2    1    2    0    0  0.17549157895E+02  0.13335006388E+02  0.23041636917E+02  0.59302072539E+02  0.50000234374E+02 0.  0.
         12    1    1    2    0    0 -0.17549157895E+02 -0.13335006388E+02 -0.23041636917E+02  0.31885927461E+02  0.00000000000E+00 0. -1.
         11    1    3    3    0    0  0.23705430669E+02 -0.55549495727E+01  0.87166311411E+01  0.25860869411E+02  0.51100000000E-03 0. -1.
        -11    1    3    3    0    0  0.76910289350E+01  0.11811217664E+02  0.10056098696E+02  0.17314211216E+02  0.51100000000E-03 0.  1.
        -12    1    3    3    0    0 -0.13847301709E+02  0.70787382965E+01  0.42689070803E+01  0.16126991913E+02  0.00000000000E+00 0.  1.
</event>
<event>
 7    1  0.7857164E-013  0.5930198E+02  0.7816164E-02  0.1266605E+00
        -11   -1    0    0    0    0  0.00000000000E+00  0.00000000000E+00  0.45593999997E+02  0.45594000000E+02  0.51100000000E-03 0.  1.
         11   -1    0    0    0    0 -0.00000000000E+00 -0.00000000000E+00 -0.45593999997E+02  0.45594000000E+02  0.51100000000E-03 0. -1.
    9900012    2    1    2    0    0  0.28442838132E+02 -0.11232794088E+02  0.90303527466E+01  0.59301984652E+02  0.50000074089E+02 0.  0.
         12    1    1    2    0    0 -0.28442838132E+02  0.11232794088E+02 -0.90303527466E+01  0.31886015348E+02  0.00000000000E+00 0. -1.
         11    1    3    3    0    0  0.79835500481E+01  0.72970734944E+01  0.52680458009E+01  0.12030655002E+02  0.51100000000E-03 0. -1.
        -11    1    3    3    0    0  0.23131485492E+02 -0.58008755714E+01  0.16552807065E+02  0.29029488463E+02  0.51100000000E-03 0.  1.
         12    1    3    3    0    0 -0.26721974075E+01 -0.12728992011E+02 -0.12790500119E+02  0.18241841187E+02  0.00000000000E+00 0. -1.
</event>
<event>
 7    1  0.6672802E-013  0.5930191E+02  0.7816164E-02  0.1266605E+00
        -11   -1    0    0    0    0  0.00000000000E+00  0.00000000000E+00  0.45593999997E+02  0.45594000000E+02  0.51100000000E-03 0.  1.
         11   -1    0    0    0    0 -0.00000000000E+00 -0.00000000000E+00 -0.45593999997E+02  0.45594000000E+02  0.51100000000E-03 0. -1.
    9900012    2    1    2    0    0  0.24039971483E+02  0.60750944588E+01  0.20047340921E+02  0.59301907740E+02  0.49999933820E+02 0.  0.
         12    1    1    2    0    0 -0.24039971483E+02 -0.60750944588E+01 -0.20047340921E+02  0.31886092260E+02  0.00000000000E+00 0. -1.
         11    1    3    3    0    0 -0.76946718552E+01  0.18798416012E+01  0.45061355034E+01  0.91130146955E+01  0.51100000000E-03 0. -1.
        -11    1    3    3    0    0  0.10625195737E+02 -0.87390374385E+01  0.20743851272E+02  0.24891221859E+02  0.51100000000E-03 0.  1.
         12    1    3    3    0    0  0.21109447602E+02  0.12934290296E+02 -0.52026458542E+01  0.25297671185E+02  0.00000000000E+00 0. -1.
</event>
<event>
 7    1  0.6672802E-013  0.5930196E+02  0.7816164E-02  0.1266605E+00
        -11   -1    0    0    0    0  0.00000000000E+00  0.00000000000E+00  0.45593999997E+02  0.45594000000E+02  0.51100000000E-03 0.  1.
         11   -1    0    0    0    0 -0.00000000000E+00 -0.00000000000E+00 -0.45593999997E+02  0.45594000000E+02  0.51100000000E-03 0. -1.
    9900012    2    1    2    0    0 -0.23695464239E+02  0.62841517052E+01  0.20390047888E+02  0.59301958524E+02  0.50000026437E+02 0.  0.
         12    1    1    2    0    0  0.23695464239E+02 -0.62841517052E+01 -0.20390047888E+02  0.31886041476E+02  0.00000000000E+00 0. -1.
         11    1    3    3    0    0 -0.35444483713E+01 -0.15808044485E+02 -0.71609488456E+00  0.16216355227E+02  0.51100000000E-03 0. -1.
        -11    1    3    3    0    0  0.37470157326E+01  0.94928275251E+01  0.84608899890E+01  0.13256717580E+02  0.51100000000E-03 0.  1.
         12    1    3    3    0    0 -0.23898031600E+02  0.12599368666E+02  0.12645252783E+02  0.29828885717E+02  0.00000000000E+00 0. -1.
</event>
<event>
 7    1  0.6672802E-013  0.5930190E+02  0.7816164E-02  0.1266605E+00
        -11   -1    0    0    0    0  0.00000000000E+00  0.00000000000E+00  0.45593999997E+02  0.45594000000E+02  0.51100000000E-03 0. -1.
         11   -1    0    0    0    0 -0.00000000000E+00 -0.00000000000E+00 -0.45593999997E+02  0.45594000000E+02  0.51100000000E-03 0.  1.
    9900012    2    1    2    0    0 -0.31766541686E+02  0.95845870329E-01  0.27569870834E+01  0.59301900601E+02  0.49999920800E+02 0.  0.
         12    1    1    2    0    0  0.31766541686E+02 -0.95845870329E-01 -0.27569870834E+01  0.31886099399E+02  0.00000000000E+00 0. -1.
         11    1    3    3    0    0 -0.22386840876E+01 -0.81217254105E+01 -0.59625992043E+00  0.84456886186E+01  0.51100000000E-03 0. -1.
        -11    1    3    3    0    0 -0.86013195082E+01 -0.10593298490E+02 -0.12546095908E+02  0.18536590651E+02  0.51100000000E-03 0.  1.
        -12    1    3    3    0    0 -0.20926538090E+02  0.18810869771E+02  0.15899342912E+02  0.32319621331E+02  0.00000000000E+00 0.  1.
</event>
<event>
 7    1  0.6672802E-013  0.5930194E+02  0.7816164E-02  0.1266605E+00
        -11   -1    0    0    0    0  0.00000000000E+00  0.00000000000E+00  0.45593999997E+02  0.45594000000E+02  0.51100000000E-03 0.  1.
         11   -1    0    0    0    0 -0.00000000000E+00 -0.00000000000E+00 -0.45593999997E+02  0.45594000000E+02  0.51100000000E-03 0. -1.
    9900012    2    1    2    0    0 -0.17435123176E+02  0.26139838738E+02 -0.54264415207E+01  0.59301937889E+02  0.49999988804E+02 0.  0.
         12    1    1    2    0    0  0.17435123176E+02 -0.26139838738E+02  0.54264415207E+01  0.31886062111E+02  0.00000000000E+00 0. -1.
         11    1    3    3    0    0  0.71124491706E+01 -0.46756795425E+01 -0.81110648863E+01  0.11757477886E+02  0.51100000000E-03 0. -1.
        -11    1    3    3    0    0  0.37731496303E+01  0.66086028701E+01  0.66127026928E+01  0.10081573647E+02  0.51100000000E-03 0.  1.
        -12    1    3    3    0    0 -0.28320721976E+02  0.24206915410E+02 -0.39280793271E+01  0.37462886356E+02  0.00000000000E+00 0.  1.
</event>
<event>
 7    1  0.6672802E-013  0.5930194E+02  0.7816164E-02  0.1266605E+00
        -11   -1    0    0    0    0  0.00000000000E+00  0.00000000000E+00  0.45593999997E+02  0.45594000000E+02  0.51100000000E-03 0.  1.
         11   -1    0    0    0    0 -0.00000000000E+00 -0.00000000000E+00 -0.45593999997E+02  0.45594000000E+02  0.51100000000E-03 0. -1.
    9900012    2    1    2    0    0  0.65984808446E+01  0.15052425256E+02  0.27324078197E+02  0.59301941842E+02  0.49999996013E+02 0.  0.
         12    1    1    2    0    0 -0.65984808446E+01 -0.15052425256E+02 -0.27324078197E+02  0.31886058158E+02  0.00000000000E+00 0. -1.
         11    1    3    3    0    0 -0.27949791928E+01  0.14056866228E+02 -0.19118886831E+01  0.14459001191E+02  0.51100000000E-03 0. -1.
        -11    1    3    3    0    0 -0.88073652845E+01  0.70939221537E+01  0.21211361159E+02  0.24037788111E+02  0.51100000000E-03 0.  1.
         12    1    3    3    0    0  0.18200825322E+02 -0.60983631258E+01  0.80246057216E+01  0.20805152540E+02  0.00000000000E+00 0. -1.
</event>
<event>
 7    1  0.8861241E-013  0.5930197E+02  0.7816164E-02  0.1266605E+00
        -11   -1    0    0    0    0  0.00000000000E+00  0.00000000000E+00  0.45593999997E+02  0.45594000000E+02  0.51100000000E-03 0. -1.
         11   -1    0    0    0    0 -0.00000000000E+00 -0.00000000000E+00 -0.45593999997E+02  0.45594000000E+02  0.51100000000E-03 0.  1.
    9900012    2    1    2    0    0 -0.16999284469E+02  0.48800382420E+01 -0.26531647446E+02  0.59301972309E+02  0.50000051578E+02 0.  0.
         12    1    1    2    0    0  0.16999284469E+02 -0.48800382420E+01  0.26531647446E+02  0.31886027691E+02  0.00000000000E+00 0. -1.
         11    1    3    3    0    0  0.12960857376E+01 -0.69911622845E+01  0.55848964346E+01  0.90414189580E+01  0.51100000000E-03 0. -1.
        -11    1    3    3    0    0 -0.12591268260E+02 -0.67196278395E+01 -0.26367510540E+02  0.29982312236E+02  0.51100000000E-03 0.  1.
         12    1    3    3    0    0 -0.57041019467E+01  0.18590828366E+02 -0.57490333405E+01  0.20278241115E+02  0.00000000000E+00 0. -1.
</event>
<event>
 7    1  0.6672802E-013  0.5930198E+02  0.7816164E-02  0.1266605E+00
        -11   -1    0    0    0    0  0.00000000000E+00  0.00000000000E+00  0.45593999997E+02  0.45594000000E+02  0.51100000000E-03 0.  1.
         11   -1    0    0    0    0 -0.00000000000E+00 -0.00000000000E+00 -0.45593999997E+02  0.45594000000E+02  0.51100000000E-03 0. -1.
    9900012    2    1    2    0    0 -0.16113311558E+02  0.88599476741E+01  0.26049586208E+02  0.59301977611E+02  0.50000061249E+02 0.  0.
         12    1    1    2    0    0  0.16113311558E+02 -0.88599476741E+01 -0.26049586208E+02  0.31886022389E+02  0.00000000000E+00 0. -1.
         11    1    3    3    0    0  0.63523664893E+01 -0.49005021685E+00  0.35315093572E+01  0.72845224847E+01  0.51100000000E-03 0. -1.
        -11    1    3    3    0    0 -0.13203755001E+02 -0.16347474385E+00 -0.10214588382E+02  0.16694420810E+02  0.51100000000E-03 0.  1.
        -12    1    3    3    0    0 -0.92619230458E+01  0.95134726348E+01  0.32732665233E+02  0.35323034316E+02  0.00000000000E+00 0.  1.
</event>
<event>
 7    1  0.6672802E-013  0.5930191E+02  0.7816164E-02  0.1266605E+00
        -11   -1    0    0    0    0  0.00000000000E+00  0.00000000000E+00  0.45593999997E+02  0.45594000000E+02  0.51100000000E-03 0. -1.
         11   -1    0    0    0    0 -0.00000000000E+00 -0.00000000000E+00 -0.45593999997E+02  0.45594000000E+02  0.51100000000E-03 0.  1.
    9900012    2    1    2    0    0  0.22930946752E+01  0.98753358649E+01 -0.30231473581E+02  0.59301913121E+02  0.49999943633E+02 0.  0.
         12    1    1    2    0    0 -0.22930946752E+01 -0.98753358649E+01  0.30231473581E+02  0.31886086879E+02  0.00000000000E+00 0. -1.
         11    1    3    3    0    0 -0.57831318910E+00 -0.41516943849E+01  0.65885930901E+01  0.78090057996E+01  0.51100000000E-03 0. -1.
        -11    1    3    3    0    0 -0.12762148421E+02  0.15181367512E+02 -0.16309605483E+02  0.25677803316E+02  0.51100000000E-03 0.  1.
         12    1    3    3    0    0  0.15633556286E+02 -0.11543372620E+01 -0.20510461188E+02  0.25815104005E+02  0.00000000000E+00 0. -1.
</event>
<event>
 7    1  0.6672802E-013  0.5930198E+02  0.7816164E-02  0.1266605E+00
        -11   -1    0    0    0    0  0.00000000000E+00  0.00000000000E+00  0.45593999997E+02  0.45594000000E+02  0.51100000000E-03 0. -1.
         11   -1    0    0    0    0 -0.00000000000E+00 -0.00000000000E+00 -0.45593999997E+02  0.45594000000E+02  0.51100000000E-03 0.  1.
    9900012    2    1    2    0    0  0.10896804123E+02  0.53963604214E+01 -0.29476386398E+02  0.59301977969E+02  0.50000061901E+02 0.  0.
         12    1    1    2    0    0 -0.10896804123E+02 -0.53963604214E+01  0.29476386398E+02  0.31886022031E+02  0.00000000000E+00 0. -1.
         11    1    3    3    0    0 -0.12280148078E+02 -0.11041763250E+02 -0.17414526493E+02  0.23999756367E+02  0.51100000000E-03 0. -1.
        -11    1    3    3    0    0  0.19040665736E+01 -0.27362591387E+01 -0.46467904851E+01  0.57188500299E+01  0.51100000000E-03 0.  1.
        -12    1    3    3    0    0  0.21272885627E+02  0.19174382810E+02 -0.74150694199E+01  0.29583371572E+02  0.00000000000E+00 0.  1.
</event>
<event>
 7    1  0.6672802E-013  0.5930191E+02  0.7816164E-02  0.1266605E+00
        -11   -1    0    0    0    0  0.00000000000E+00  0.00000000000E+00  0.45593999997E+02  0.45594000000E+02  0.51100000000E-03 0.  1.
         11   -1    0    0    0    0 -0.00000000000E+00 -0.00000000000E+00 -0.45593999997E+02  0.45594000000E+02  0.51100000000E-03 0. -1.
    9900012    2    1    2    0    0 -0.81552310831E+01  0.25624338902E+02  0.17134992949E+02  0.59301913355E+02  0.49999944060E+02 0.  0.
         12    1    1    2    0    0  0.81552310831E+01 -0.25624338902E+02 -0.17134992949E+02  0.31886086645E+02  0.00000000000E+00 0. -1.
         11    1    3    3    0    0 -0.15857052589E+02  0.94060642732E+01  0.11095932663E+02  0.21518361551E+02  0.51100000000E-03 0. -1.
        -11    1    3    3    0    0 -0.10641655660E+02  0.52446413532E+01  0.10620098201E+02  0.15922863567E+02  0.51100000000E-03 0.  1.
        -12    1    3    3    0    0  0.18343477166E+02  0.10973633276E+02 -0.45810379145E+01  0.21860688237E+02  0.00000000000E+00 0.  1.
</event>
<event>
 7    1  0.6672802E-013  0.5930196E+02  0.7816164E-02  0.1266605E+00
        -11   -1    0    0    0    0  0.00000000000E+00  0.00000000000E+00  0.45593999997E+02  0.45594000000E+02  0.51100000000E-03 0. -1.
         11   -1    0    0    0    0 -0.00000000000E+00 -0.00000000000E+00 -0.45593999997E+02  0.45594000000E+02  0.51100000000E-03 0.  1.
    9900012    2    1    2    0    0  0.14465921655E+02 -0.19436948824E+02 -0.20728285173E+02  0.59301957989E+02  0.50000025463E+02 0.  0.
         12    1    1    2    0    0 -0.14465921655E+02  0.19436948824E+02  0.20728285173E+02  0.31886042011E+02  0.00000000000E+00 0. -1.
         11    1    3    3    0    0 -0.78332848115E+01  0.14418244790E+01  0.10783499506E+02  0.13406083344E+02  0.51100000000E-03 0. -1.
        -11    1    3    3    0    0  0.60417172592E+01 -0.13239048001E+02 -0.90590183601E+01  0.17141778009E+02  0.51100000000E-03 0.  1.
        -12    1    3    3    0    0  0.16257489207E+02 -0.76397253019E+01 -0.22452766319E+02  0.28754096636E+02  0.00000000000E+00 0.  1.
</event>
<event>
 7    1  0.6672802E-013  0.5930191E+02  0.7816164E-02  0.1266605E+00
        -11   -1    0    0    0    0  0.00000000000E+00  0.00000000000E+00  0.45593999997E+02  0.45594000000E+02  0.51100000000E-03 0. -1.
         11   -1    0    0    0    0 -0.00000000000E+00 -0.00000000000E+00 -0.45593999997E+02  0.45594000000E+02  0.51100000000E-03 0.  1.
    9900012    2    1    2    0    0 -0.26677608244E+02  0.11050259736E+02 -0.13524788315E+02  0.59301907094E+02  0.49999932641E+02 0.  0.
         12    1    1    2    0    0  0.26677608244E+02 -0.11050259736E+02  0.13524788315E+02  0.31886092906E+02  0.00000000000E+00 0. -1.
         11    1    3    3    0    0 -0.21516548865E+02 -0.33019939410E+01 -0.61784803571E+01  0.22628271229E+02  0.51100000000E-03 0. -1.
        -11    1    3    3    0    0 -0.11077340195E+02  0.19119830321E+02 -0.14343759127E+02  0.26344236627E+02  0.51100000000E-03 0.  1.
         12    1    3    3    0    0  0.59162808158E+01 -0.47675766443E+01  0.69974511689E+01  0.10329399238E+02  0.00000000000E+00 0. -1.
</event>
<event>
 7    1  0.6672802E-013  0.5930196E+02  0.7816164E-02  0.1266605E+00
        -11   -1    0    0    0    0  0.00000000000E+00  0.00000000000E+00  0.45593999997E+02  0.45594000000E+02  0.51100000000E-03 0.  1.
         11   -1    0    0    0    0 -0.00000000000E+00 -0.00000000000E+00 -0.45593999997E+02  0.45594000000E+02  0.51100000000E-03 0. -1.
    9900012    2    1    2    0    0  0.28398784098E+02 -0.12658238234E+01  0.14443891724E+02  0.59301964556E+02  0.50000037439E+02 0.  0.
         12    1    1    2    0    0 -0.28398784098E+02  0.12658238234E+01 -0.14443891724E+02  0.31886035444E+02  0.00000000000E+00 0. -1.
         11    1    3    3    0    0  0.57537560998E+01 -0.79061335715E+01  0.53243869119E+01  0.11133811277E+02  0.51100000000E-03 0. -1.
        -11    1    3    3    0    0  0.15080774441E+02 -0.13823399874E+02  0.15238422541E+02  0.25509325032E+02  0.51100000000E-03 0.  1.
         12    1    3    3    0    0  0.75642535570E+01  0.20463709622E+02 -0.61189177282E+01  0.22658828247E+02  0.00000000000E+00 0. -1.
</event>
<event>
 7    1  0.6672802E-013  0.5930196E+02  0.7816164E-02  0.1266605E+00
        -11   -1    0    0    0    0  0.00000000000E+00  0.00000000000E+00  0.45593999997E+02  0.45594000000E+02  0.51100000000E-03 0. -1.
         11   -1    0    0    0    0 -0.00000000000E+00 -0.00000000000E+00 -0.45593999997E+02  0.45594000000E+02  0.51100000000E-03 0.  1.
    9900012    2    1    2    0    0  0.12947428672E+02 -0.15991462334E+02 -0.24358919488E+02  0.59301957044E+02  0.50000023738E+02 0.  0.
         12    1    1    2    0    0 -0.12947428672E+02  0.15991462334E+02  0.24358919488E+02  0.31886042956E+02  0.00000000000E+00 0. -1.
         11    1    3    3    0    0  0.12224127433E+02  0.36446925777E+01 -0.97145691227E+01  0.16033899369E+02  0.51100000000E-03 0. -1.
        -11    1    3    3    0    0  0.15369934794E+02 -0.40859928808E+01 -0.15058970588E+02  0.21902119277E+02  0.51100000000E-03 0.  1.
         12    1    3    3    0    0 -0.14646633555E+02 -0.15550162031E+02  0.41462022323E+00  0.21365938397E+02  0.00000000000E+00 0. -1.
</event>
<event>
 7    1  0.6672802E-013  0.5930193E+02  0.7816164E-02  0.1266605E+00
        -11   -1    0    0    0    0  0.00000000000E+00  0.00000000000E+00  0.45593999997E+02  0.45594000000E+02  0.51100000000E-03 0. -1.
         11   -1    0    0    0    0 -0.00000000000E+00 -0.00000000000E+00 -0.45593999997E+02  0.45594000000E+02  0.51100000000E-03 0.  1.
    9900012    2    1    2    0    0 -0.12377971035E+02 -0.28171972215E+02 -0.83574803222E+01  0.59301926821E+02  0.49999968620E+02 0.  0.
         12    1    1    2    0    0  0.12377971035E+02  0.28171972215E+02  0.83574803222E+01  0.31886073179E+02  0.00000000000E+00 0. -1.
         11    1    3    3    0    0  0.16197855233E+01 -0.19228401839E+02 -0.14010128617E+01  0.19347299029E+02  0.51100000000E-03 0. -1.
        -11    1    3    3    0    0 -0.10944386242E+02 -0.58083133473E+01 -0.21473823801E+02  0.24791958435E+02  0.51100000000E-03 0.  1.
         12    1    3    3    0    0 -0.30533703163E+01 -0.31352570283E+01  0.14517356340E+02  0.15162669357E+02  0.00000000000E+00 0. -1.
</event>
<event>
 7    1  0.6672802E-013  0.5930187E+02  0.7816164E-02  0.1266605E+00
        -11   -1    0    0    0    0  0.00000000000E+00  0.00000000000E+00  0.45593999997E+02  0.45594000000E+02  0.51100000000E-03 0. -1.
         11   -1    0    0    0    0 -0.00000000000E+00 -0.00000000000E+00 -0.45593999997E+02  0.45594000000E+02  0.51100000000E-03 0.  1.
    9900012    2    1    2    0    0  0.84852214363E+01  0.15298425694E+02 -0.26658661898E+02  0.59301873460E+02  0.49999871301E+02 0.  0.
         12    1    1    2    0    0 -0.84852214363E+01 -0.15298425694E+02  0.26658661898E+02  0.31886126540E+02  0.00000000000E+00 0. -1.
         11    1    3    3    0    0  0.13929435786E+00  0.26727663120E+02 -0.87907769139E+01  0.28136544525E+02  0.51100000000E-03 0. -1.
        -11    1    3    3    0    0  0.36937362233E+01  0.61679507093E+01 -0.65908675329E+01  0.97532988438E+01  0.51100000000E-03 0.  1.
         12    1    3    3    0    0  0.46521908552E+01 -0.17597188136E+02 -0.11277017451E+02  0.21412030091E+02  0.00000000000E+00 0. -1.
</event>
<event>
 7    1  0.6672802E-013  0.5930193E+02  0.7816164E-02  0.1266605E+00
        -11   -1    0    0    0    0  0.00000000000E+00  0.00000000000E+00  0.45593999997E+02  0.45594000000E+02  0.51100000000E-03 0.  1.
         11   -1    0    0    0    0 -0.00000000000E+00 -0.00000000000E+00 -0.45593999997E+02  0.45594000000E+02  0.51100000000E-03 0. -1.
    9900012    2    1    2    0    0  0.98860411648E+01 -0.14300119076E+01  0.30281063926E+02  0.59301928174E+02  0.49999971087E+02 0.  0.
         12    1    1    2    0    0 -0.98860411648E+01  0.14300119076E+01 -0.30281063926E+02  0.31886071826E+02  0.00000000000E+00 0. -1.
         11    1    3    3    0    0 -0.80040013143E+01  0.66588584254E+01  0.44450839037E+01  0.11320918856E+02  0.51100000000E-03 0. -1.
        -11    1    3    3    0    0  0.25854013367E+01 -0.20512929412E+02  0.12115717243E+02  0.23963621966E+02  0.51100000000E-03 0.  1.
         12    1    3    3    0    0  0.15304641142E+02  0.12424059079E+02  0.13720262780E+02  0.24017387353E+02  0.00000000000E+00 0. -1.
</event>
<event>
 7    1  0.6672802E-013  0.5930192E+02  0.7816164E-02  0.1266605E+00
        -11   -1    0    0    0    0  0.00000000000E+00  0.00000000000E+00  0.45593999997E+02  0.45594000000E+02  0.51100000000E-03 0. -1.
         11   -1    0    0    0    0 -0.00000000000E+00 -0.00000000000E+00 -0.45593999997E+02  0.45594000000E+02  0.51100000000E-03 0.  1.
    9900012    2    1    2    0    0 -0.25361646718E+01 -0.84199343265E+01  0.30649543185E+02  0.59301922744E+02  0.49999961184E+02 0.  0.
         12    1    1    2    0    0  0.25361646718E+01  0.84199343265E+01 -0.30649543185E+02  0.31886077256E+02  0.00000000000E+00 0. -1.
         11    1    3    3    0    0  0.12937334777E+01 -0.14699203605E+02 -0.21490650759E+00  0.14757591877E+02  0.51100000000E-03 0. -1.
        -11    1    3    3    0    0  0.41488582068E+01 -0.91602128948E+01  0.11510908848E+01  0.10121636981E+02  0.51100000000E-03 0.  1.
         12    1    3    3    0    0 -0.79787563563E+01  0.15439482173E+02  0.29713358808E+02  0.34422693886E+02  0.00000000000E+00 0. -1.
</event>
<event>
 7    1  0.6672802E-013  0.5930197E+02  0.7816164E-02  0.1266605E+00
        -11   -1    0    0    0    0  0.00000000000E+00  0.00000000000E+00  0.45593999997E+02  0.45594000000E+02  0.51100000000E-03 0.  1.
         11   -1    0    0    0    0 -0.00000000000E+00 -0.00000000000E+00 -0.45593999997E+02  0.45594000000E+02  0.51100000000E-03 0. -1.
    9900012    2    1    2    0    0  0.25560720577E+02 -0.13923835659E+02  0.13019045812E+02  0.59301965600E+02  0.50000039343E+02 0.  0.
         12    1    1    2    0    0 -0.25560720577E+02  0.13923835659E+02 -0.13019045812E+02  0.31886034400E+02  0.00000000000E+00 0. -1.
         11    1    3    3    0    0  0.15495512719E+02  0.79297689117E+00 -0.41066511370E+00  0.15521223305E+02  0.51100000000E-03 0. -1.
        -11    1    3    3    0    0  0.75993487341E+01  0.10827457556E+02  0.12346701446E+02  0.18094888095E+02  0.51100000000E-03 0.  1.
         12    1    3    3    0    0  0.24658591237E+01 -0.25544270106E+02  0.10830094794E+01  0.25685854200E+02  0.00000000000E+00 0. -1.
</event>
<event>
 7    1  0.6672802E-013  0.5930196E+02  0.7816164E-02  0.1266605E+00
        -11   -1    0    0    0    0  0.00000000000E+00  0.00000000000E+00  0.45593999997E+02  0.45594000000E+02  0.51100000000E-03 0.  1.
         11   -1    0    0    0    0 -0.00000000000E+00 -0.00000000000E+00 -0.45593999997E+02  0.45594000000E+02  0.51100000000E-03 0. -1.
    9900012    2    1    2    0    0 -0.20277090601E+02  0.20390151943E+02  0.13776812000E+02  0.59301964681E+02  0.50000037666E+02 0.  0.
         12    1    1    2    0    0  0.20277090601E+02 -0.20390151943E+02 -0.13776812000E+02  0.31886035319E+02  0.00000000000E+00 0. -1.
         11    1    3    3    0    0 -0.13412721295E+02  0.93933106857E+01 -0.98396845043E+01  0.19103789403E+02  0.51100000000E-03 0. -1.
        -11    1    3    3    0    0 -0.15053695813E+02  0.27609745048E+00  0.26818983547E+01  0.15293219624E+02  0.51100000000E-03 0.  1.
        -12    1    3    3    0    0  0.81893265066E+01  0.10720743807E+02  0.20934598150E+02  0.24904955653E+02  0.00000000000E+00 0.  1.
</event>
<event>
 7    1  0.6672802E-013  0.5930194E+02  0.7816164E-02  0.1266605E+00
        -11   -1    0    0    0    0  0.00000000000E+00  0.00000000000E+00  0.45593999997E+02  0.45594000000E+02  0.51100000000E-03 0. -1.
         11   -1    0    0    0    0 -0.00000000000E+00 -0.00000000000E+00 -0.45593999997E+02  0.45594000000E+02  0.51100000000E-03 0.  1.
    9900012    2    1    2    0    0 -0.17106133614E+02  0.26656604245E+02 -0.36778285393E+01  0.59301940666E+02  0.49999993868E+02 0.  0.
         12    1    1    2    0    0  0.17106133614E+02 -0.26656604245E+02  0.36778285393E+01  0.31886059334E+02  0.00000000000E+00 0. -1.
         11    1    3    3    0    0 -0.82912325775E+01  0.10795293501E+02  0.24614956174E+01  0.13832637505E+02  0.51100000000E-03 0. -1.
        -11    1    3    3    0    0  0.72117818632E+01  0.25290065191E+02 -0.54798574157E+01  0.26863097970E+02  0.51100000000E-03 0.  1.
        -12    1    3    3    0    0 -0.16026682900E+02 -0.94287544466E+01 -0.65946674101E+00  0.18606205190E+02  0.00000000000E+00 0.  1.
</event>
<event>
 7    1  0.6672802E-013  0.5930193E+02  0.7816164E-02  0.1266605E+00
        -11   -1    0    0    0    0  0.00000000000E+00  0.00000000000E+00  0.45593999997E+02  0.45594000000E+02  0.51100000000E-03 0.  1.
         11   -1    0    0    0    0 -0.00000000000E+00 -0.00000000000E+00 -0.45593999997E+02  0.45594000000E+02  0.51100000000E-03 0. -1.
    9900012    2    1    2    0    0 -0.10438251347E+02  0.41075746474E+01  0.29847813177E+02  0.59301933887E+02  0.49999981506E+02 0.  0.
         12    1    1    2    0    0  0.10438251347E+02 -0.41075746474E+01 -0.29847813177E+02  0.31886066113E+02  0.00000000000E+00 0. -1.
         11    1    3    3    0    0 -0.38204576433E+01 -0.11710259789E+02 -0.47370358604E+01  0.13197181136E+02  0.51100000000E-03 0. -1.
        -11    1    3    3    0    0 -0.15569679822E+02  0.92846604379E+01  0.14695247244E+02  0.23336026676E+02  0.51100000000E-03 0.  1.
        -12    1    3    3    0    0  0.89518861177E+01  0.65331739989E+01  0.19889601794E+02  0.22768726075E+02  0.00000000000E+00 0.  1.
</event>
<event>
 7    1  0.6672802E-013  0.5930194E+02  0.7816164E-02  0.1266605E+00
        -11   -1    0    0    0    0  0.00000000000E+00  0.00000000000E+00  0.45593999997E+02  0.45594000000E+02  0.51100000000E-03 0.  1.
         11   -1    0    0    0    0 -0.00000000000E+00 -0.00000000000E+00 -0.45593999997E+02  0.45594000000E+02  0.51100000000E-03 0. -1.
    9900012    2    1    2    0    0 -0.18111414940E+01  0.51706787159E+00  0.31830382285E+02  0.59301939894E+02  0.49999992460E+02 0.  0.
         12    1    1    2    0    0  0.18111414940E+01 -0.51706787159E+00 -0.31830382285E+02  0.31886060106E+02  0.00000000000E+00 0. -1.
         11    1    3    3    0    0 -0.30015777156E+01 -0.16710862499E+02  0.26971948380E+02  0.31870807864E+02  0.51100000000E-03 0. -1.
        -11    1    3    3    0    0 -0.10586327993E+01  0.30752266245E+01  0.11271467184E+02  0.11731312584E+02  0.51100000000E-03 0.  1.
         12    1    3    3    0    0  0.22490690209E+01  0.14152703746E+02 -0.64130332794E+01  0.15699819445E+02  0.00000000000E+00 0. -1.
</event>
<event>
 7    1  0.6672802E-013  0.5930193E+02  0.7816164E-02  0.1266605E+00
        -11   -1    0    0    0    0  0.00000000000E+00  0.00000000000E+00  0.45593999997E+02  0.45594000000E+02  0.51100000000E-03 0.  1.
         11   -1    0    0    0    0 -0.00000000000E+00 -0.00000000000E+00 -0.45593999997E+02  0.45594000000E+02  0.51100000000E-03 0. -1.
    9900012    2    1    2    0    0  0.27451047388E+02  0.72110439129E+01 -0.14531420286E+02  0.59301932000E+02  0.49999978064E+02 0.  0.
         12    1    1    2    0    0 -0.27451047388E+02 -0.72110439129E+01  0.14531420286E+02  0.31886068000E+02  0.00000000000E+00 0. -1.
         11    1    3    3    0    0 -0.57549794283E+01 -0.49890774733E+01  0.50964898459E+01  0.91643271038E+01  0.51100000000E-03 0. -1.
        -11    1    3    3    0    0  0.22688535027E+02 -0.74184550208E+01 -0.10540499061E+02  0.26094160598E+02  0.51100000000E-03 0.  1.
        -12    1    3    3    0    0  0.10517491789E+02  0.19618576407E+02 -0.90874110704E+01  0.24043444298E+02  0.00000000000E+00 0.  1.
</event>
<event>
 7    1  0.6672802E-013  0.5930193E+02  0.7816164E-02  0.1266605E+00
        -11   -1    0    0    0    0  0.00000000000E+00  0.00000000000E+00  0.45593999997E+02  0.45594000000E+02  0.51100000000E-03 0. -1.
         11   -1    0    0    0    0 -0.00000000000E+00 -0.00000000000E+00 -0.45593999997E+02  0.45594000000E+02  0.51100000000E-03 0.  1.
    9900012    2    1    2    0    0 -0.45231554364E+01 -0.30728728794E+02  0.72116562093E+01  0.59301926336E+02  0.49999967735E+02 0.  0.
         12    1    1    2    0    0  0.45231554364E+01  0.30728728794E+02 -0.72116562093E+01  0.31886073664E+02  0.00000000000E+00 0. -1.
         11    1    3    3    0    0 -0.16232604379E+02 -0.19147851796E+02  0.82054775288E+01  0.26409610658E+02  0.51100000000E-03 0. -1.
        -11    1    3    3    0    0  0.11735456579E+02 -0.18125549833E+02 -0.82548230455E+01  0.23117062997E+02  0.51100000000E-03 0.  1.
         12    1    3    3    0    0 -0.26007635600E-01  0.65446728349E+01  0.72610017260E+01  0.97752526811E+01  0.00000000000E+00 0. -1.
</event>
<event>
 7    1  0.6672802E-013  0.5930195E+02  0.7816164E-02  0.1266605E+00
        -11   -1    0    0    0    0  0.00000000000E+00  0.00000000000E+00  0.45593999997E+02  0.45594000000E+02  0.51100000000E-03 0. -1.
         11   -1    0    0    0    0 -0.00000000000E+00 -0.00000000000E+00 -0.45593999997E+02  0.45594000000E+02  0.51100000000E-03 0.  1.
    9900012    2    1    2    0    0 -0.15942985743E+01 -0.27376900735E+02 -0.16269100796E+02  0.59301950974E+02  0.50000012669E+02 0.  0.
         12    1    1    2    0    0  0.15942985743E+01  0.27376900735E+02  0.16269100796E+02  0.31886049026E+02  0.00000000000E+00 0. -1.
         11    1    3    3    0    0 -0.66431649221E+01 -0.48646454514E+01  0.10061361310E+02  0.13001054081E+02  0.51100000000E-03 0. -1.
        -11    1    3    3    0    0 -0.73980852566E+01 -0.13158784068E+02  0.69441040234E+00  0.15111832109E+02  0.51100000000E-03 0.  1.
         12    1    3    3    0    0  0.12446951604E+02 -0.93534712152E+01 -0.27024872508E+02  0.31189064784E+02  0.00000000000E+00 0. -1.
</event>
<event>
 7    1  0.6672802E-013  0.5930196E+02  0.7816164E-02  0.1266605E+00
        -11   -1    0    0    0    0  0.00000000000E+00  0.00000000000E+00  0.45593999997E+02  0.45594000000E+02  0.51100000000E-03 0.  1.
         11   -1    0    0    0    0 -0.00000000000E+00 -0.00000000000E+00 -0.45593999997E+02  0.45594000000E+02  0.51100000000E-03 0. -1.
    9900012    2    1    2    0    0  0.15638555928E+02 -0.51729514217E+01  0.27301929981E+02  0.59301964833E+02  0.50000037945E+02 0.  0.
         12    1    1    2    0    0 -0.15638555928E+02  0.51729514217E+01 -0.27301929981E+02  0.31886035167E+02  0.00000000000E+00 0. -1.
         11    1    3    3    0    0  0.51619144303E+01  0.13853831168E+02  0.10385165684E+02  0.18067253947E+02  0.51100000000E-03 0. -1.
        -11    1    3    3    0    0 -0.10605654846E+02 -0.44212429673E+01  0.23121063942E+01  0.11720628837E+02  0.51100000000E-03 0.  1.
        -12    1    3    3    0    0  0.21082296344E+02 -0.14605539623E+02  0.14604657903E+02  0.29514082050E+02  0.00000000000E+00 0.  1.
</event>
<event>
 7    1  0.6672802E-013  0.5930194E+02  0.7816164E-02  0.1266605E+00
        -11   -1    0    0    0    0  0.00000000000E+00  0.00000000000E+00  0.45593999997E+02  0.45594000000E+02  0.51100000000E-03 0.  1.
         11   -1    0    0    0    0 -0.00000000000E+00 -0.00000000000E+00 -0.45593999997E+02  0.45594000000E+02  0.51100000000E-03 0. -1.
    9900012    2    1    2    0    0 -0.15532602513E+02 -0.26723427813E+02  0.78305581304E+01  0.59301937598E+02  0.49999988273E+02 0.  0.
         12    1    1    2    0    0  0.15532602513E+02  0.26723427813E+02 -0.78305581304E+01  0.31886062402E+02  0.00000000000E+00 0. -1.
         11    1    3    3    0    0 -0.26834852820E+02 -0.76157337640E+01  0.32419849245E+01  0.28082364450E+02  0.51100000000E-03 0. -1.
        -11    1    3    3    0    0  0.56542346932E-01 -0.26196023208E+01  0.10164884467E+02  0.10497161038E+02  0.51100000000E-03 0.  1.
        -12    1    3    3    0    0  0.11245707960E+02 -0.16488091728E+02 -0.55763112616E+01  0.20722412109E+02  0.00000000000E+00 0.  1.
</event>
<event>
 7    1  0.6672802E-013  0.5930202E+02  0.7816164E-02  0.1266604E+00
        -11   -1    0    0    0    0  0.00000000000E+00  0.00000000000E+00  0.45593999997E+02  0.45594000000E+02  0.51100000000E-03 0.  1.
         11   -1    0    0    0    0 -0.00000000000E+00 -0.00000000000E+00 -0.45593999997E+02  0.45594000000E+02  0.51100000000E-03 0. -1.
    9900012    2    1    2    0    0 -0.66942643716E+01  0.30585622988E+02 -0.60350560458E+01  0.59302024862E+02  0.50000147422E+02 0.  0.
         12    1    1    2    0    0  0.66942643716E+01 -0.30585622988E+02  0.60350560458E+01  0.31885975138E+02  0.00000000000E+00 0. -1.
         11    1    3    3    0    0 -0.87690466209E+01  0.21317998897E+02 -0.12325463936E+02  0.26139439877E+02  0.51100000000E-03 0. -1.
        -11    1    3    3    0    0 -0.90353202989E+01  0.11338077358E+02  0.13456726461E+02  0.19780609151E+02  0.51100000000E-03 0.  1.
        -12    1    3    3    0    0  0.11110102548E+02 -0.20704532675E+01 -0.71663185708E+01  0.13381975834E+02  0.00000000000E+00 0.  1.
</event>
<event>
 7    1  0.6672802E-013  0.5930191E+02  0.7816164E-02  0.1266605E+00
        -11   -1    0    0    0    0  0.00000000000E+00  0.00000000000E+00  0.45593999997E+02  0.45594000000E+02  0.51100000000E-03 0.  1.
         11   -1    0    0    0    0 -0.00000000000E+00 -0.00000000000E+00 -0.45593999997E+02  0.45594000000E+02  0.51100000000E-03 0. -1.
    9900012    2    1    2    0    0  0.11790726394E+02 -0.15150128487E+01  0.29587263737E+02  0.59301911054E+02  0.49999939864E+02 0.  0.
         12    1    1    2    0    0 -0.11790726394E+02  0.15150128487E+01 -0.29587263737E+02  0.31886088946E+02  0.00000000000E+00 0. -1.
         11    1    3    3    0    0  0.73114931407E+01 -0.15107977083E+02  0.49959587793E+01  0.17511953286E+02  0.51100000000E-03 0. -1.
        -11    1    3    3    0    0  0.14423906159E+02 -0.40178678371E+00  0.18740747571E+02  0.23652190624E+02  0.51100000000E-03 0.  1.
         12    1    3    3    0    0 -0.99446729063E+01  0.13994751018E+02  0.58505573861E+01  0.18137767145E+02  0.00000000000E+00 0. -1.
</event>
<event>
 7    1  0.6672802E-013  0.5930196E+02  0.7816164E-02  0.1266605E+00
        -11   -1    0    0    0    0  0.00000000000E+00  0.00000000000E+00  0.45593999997E+02  0.45594000000E+02  0.51100000000E-03 0.  1.
         11   -1    0    0    0    0 -0.00000000000E+00 -0.00000000000E+00 -0.45593999997E+02  0.45594000000E+02  0.51100000000E-03 0. -1.
    9900012    2    1    2    0    0  0.19057303355E+02  0.14571334013E+02  0.21005120269E+02  0.59301958169E+02  0.50000025791E+02 0.  0.
         12    1    1    2    0    0 -0.19057303355E+02 -0.14571334013E+02 -0.21005120269E+02  0.31886041831E+02  0.00000000000E+00 0. -1.
         11    1    3    3    0    0  0.69292253154E+01 -0.11286363919E+02  0.43456190841E+01  0.13938456854E+02  0.51100000000E-03 0. -1.
        -11    1    3    3    0    0  0.23312000782E+01 -0.69529886610E+01  0.11560748431E+00  0.73342968632E+01  0.51100000000E-03 0.  1.
        -12    1    3    3    0    0  0.97968779612E+01  0.32810686593E+02  0.16543893701E+02  0.38029204453E+02  0.00000000000E+00 0.  1.
</event>
<event>
 7    1  0.6672802E-013  0.5930197E+02  0.7816164E-02  0.1266605E+00
        -11   -1    0    0    0    0  0.00000000000E+00  0.00000000000E+00  0.45593999997E+02  0.45594000000E+02  0.51100000000E-03 0.  1.
         11   -1    0    0    0    0 -0.00000000000E+00 -0.00000000000E+00 -0.45593999997E+02  0.45594000000E+02  0.51100000000E-03 0. -1.
    9900012    2    1    2    0    0  0.16226354411E+02 -0.63017216733E+01  0.26715401971E+02  0.59301968952E+02  0.50000045455E+02 0.  0.
         12    1    1    2    0    0 -0.16226354411E+02  0.63017216733E+01 -0.26715401971E+02  0.31886031048E+02  0.00000000000E+00 0. -1.
         11    1    3    3    0    0  0.14826865508E+01 -0.68639392995E+01 -0.89588365556E+01  0.11383003769E+02  0.51100000000E-03 0. -1.
        -11    1    3    3    0    0  0.48698912331E+01 -0.47264052443E+01 -0.31713064717E+01  0.74907898218E+01  0.51100000000E-03 0.  1.
        -12    1    3    3    0    0  0.98737766275E+01  0.52886228706E+01  0.38845544999E+02  0.40428175361E+02  0.00000000000E+00 0.  1.
</event>
<event>
 7    1  0.6672802E-013  0.5930180E+02  0.7816164E-02  0.1266605E+00
        -11   -1    0    0    0    0  0.00000000000E+00  0.00000000000E+00  0.45593999997E+02  0.45594000000E+02  0.51100000000E-03 0.  1.
         11   -1    0    0    0    0 -0.00000000000E+00 -0.00000000000E+00 -0.45593999997E+02  0.45594000000E+02  0.51100000000E-03 0. -1.
    9900012    2    1    2    0    0 -0.30142991614E+02  0.10130781700E+02  0.23445868713E+01  0.59301799711E+02  0.49999736801E+02 0.  0.
         12    1    1    2    0    0  0.30142991614E+02 -0.10130781700E+02 -0.23445868713E+01  0.31886200289E+02  0.00000000000E+00 0. -1.
         11    1    3    3    0    0  0.35329062816E+01 -0.29131708282E+01  0.24197844408E+01  0.51791261878E+01  0.51100000000E-03 0. -1.
        -11    1    3    3    0    0  0.23476455896E+00  0.72492138826E+00  0.15001084649E+02  0.15020424971E+02  0.51100000000E-03 0.  1.
        -12    1    3    3    0    0 -0.33910662454E+02  0.12319031140E+02 -0.15076282218E+02  0.39102248552E+02  0.00000000000E+00 0.  1.
</event>
<event>
 7    1  0.6672802E-013  0.5930194E+02  0.7816164E-02  0.1266605E+00
        -11   -1    0    0    0    0  0.00000000000E+00  0.00000000000E+00  0.45593999997E+02  0.45594000000E+02  0.51100000000E-03 0. -1.
         11   -1    0    0    0    0 -0.00000000000E+00 -0.00000000000E+00 -0.45593999997E+02  0.45594000000E+02  0.51100000000E-03 0.  1.
    9900012    2    1    2    0    0  0.63972734181E+01  0.22608493125E+02 -0.21555787133E+02  0.59301936782E+02  0.49999986786E+02 0.  0.
         12    1    1    2    0    0 -0.63972734181E+01 -0.22608493125E+02  0.21555787133E+02  0.31886063218E+02  0.00000000000E+00 0. -1.
         11    1    3    3    0    0 -0.56339666357E+01  0.20818852233E+02 -0.95806964978E+01  0.23599913856E+02  0.51100000000E-03 0. -1.
        -11    1    3    3    0    0 -0.53712609262E+01  0.11352308233E+02 -0.88151582981E-01  0.12559184573E+02  0.51100000000E-03 0.  1.
        -12    1    3    3    0    0  0.17402500980E+02 -0.95626673415E+01 -0.11886939052E+02  0.23142838354E+02  0.00000000000E+00 0.  1.
</event>
<event>
 7    1  0.6672802E-013  0.5930194E+02  0.7816164E-02  0.1266605E+00
        -11   -1    0    0    0    0  0.00000000000E+00  0.00000000000E+00  0.45593999997E+02  0.45594000000E+02  0.51100000000E-03 0.  1.
         11   -1    0    0    0    0 -0.00000000000E+00 -0.00000000000E+00 -0.45593999997E+02  0.45594000000E+02  0.51100000000E-03 0. -1.
    9900012    2    1    2    0    0 -0.14786689925E+02 -0.27376426003E+02  0.69717897653E+01  0.59301941100E+02  0.49999994661E+02 0.  0.
         12    1    1    2    0    0  0.14786689925E+02  0.27376426003E+02 -0.69717897653E+01  0.31886058900E+02  0.00000000000E+00 0. -1.
         11    1    3    3    0    0 -0.58872475338E+01 -0.16005743228E+02 -0.31084601454E+01  0.17335109592E+02  0.51100000000E-03 0. -1.
        -11    1    3    3    0    0  0.35948574833E+01 -0.20597758507E+02 -0.36628574730E+01  0.21227510004E+02  0.51100000000E-03 0.  1.
         12    1    3    3    0    0 -0.12494299875E+02  0.92270757321E+01  0.13743107384E+02  0.20739321505E+02  0.00000000000E+00 0. -1.
</event>
<event>
 7    1  0.6672802E-013  0.5930189E+02  0.7816164E-02  0.1266605E+00
        -11   -1    0    0    0    0  0.00000000000E+00  0.00000000000E+00  0.45593999997E+02  0.45594000000E+02  0.51100000000E-03 0.  1.
         11   -1    0    0    0    0 -0.00000000000E+00 -0.00000000000E+00 -0.45593999997E+02  0.45594000000E+02  0.51100000000E-03 0. -1.
    9900012    2    1    2    0    0  0.10303518384E+02  0.19245149709E+02  0.23241900216E+02  0.59301886971E+02  0.49999895942E+02 0.  0.
         12    1    1    2    0    0 -0.10303518384E+02 -0.19245149709E+02 -0.23241900216E+02  0.31886113029E+02  0.00000000000E+00 0. -1.
         11    1    3    3    0    0 -0.37247243619E+01  0.53657954346E+01 -0.71868927601E+01  0.97116816270E+01  0.51100000000E-03 0. -1.
        -11    1    3    3    0    0  0.54747532068E+01 -0.11146787064E+02  0.12620525932E+02  0.17705972427E+02  0.51100000000E-03 0.  1.
        -12    1    3    3    0    0  0.85534895389E+01  0.25026141339E+02  0.17808267045E+02  0.31884232917E+02  0.00000000000E+00 0.  1.
</event>
<event>
 7    1  0.6672802E-013  0.5930209E+02  0.7816164E-02  0.1266604E+00
        -11   -1    0    0    0    0  0.00000000000E+00  0.00000000000E+00  0.45593999997E+02  0.45594000000E+02  0.51100000000E-03 0.  1.
         11   -1    0    0    0    0 -0.00000000000E+00 -0.00000000000E+00 -0.45593999997E+02  0.45594000000E+02  0.51100000000E-03 0. -1.
    9900012    2    1    2    0    0 -0.13707608072E+02  0.28305261938E+02 -0.52559349713E+01  0.59302090497E+02  0.50000267124E+02 0.  0.
         12    1    1    2    0    0  0.13707608072E+02 -0.28305261938E+02  0.52559349713E+01  0.31885909503E+02  0.00000000000E+00 0. -1.
         11    1    3    3    0    0 -0.35888089746E+01  0.33777293389E+02 -0.90724488699E+01  0.35158134582E+02  0.51100000000E-03 0. -1.
        -11    1    3    3    0    0 -0.12121495565E+02  0.33373692479E+01 -0.28804239716E+01  0.12898276270E+02  0.51100000000E-03 0.  1.
        -12    1    3    3    0    0  0.20026964678E+01 -0.88094006992E+01  0.66969378701E+01  0.11245679644E+02  0.00000000000E+00 0.  1.
</event>
<event>
 7    1  0.6672802E-013  0.5930197E+02  0.7816164E-02  0.1266605E+00
        -11   -1    0    0    0    0  0.00000000000E+00  0.00000000000E+00  0.45593999997E+02  0.45594000000E+02  0.51100000000E-03 0.  1.
         11   -1    0    0    0    0 -0.00000000000E+00 -0.00000000000E+00 -0.45593999997E+02  0.45594000000E+02  0.51100000000E-03 0. -1.
    9900012    2    1    2    0    0  0.20002963840E+02 -0.30730131957E+01  0.24640549735E+02  0.59301973849E+02  0.50000054386E+02 0.  0.
         12    1    1    2    0    0 -0.20002963840E+02  0.30730131957E+01 -0.24640549735E+02  0.31886026151E+02  0.00000000000E+00 0. -1.
         11    1    3    3    0    0  0.18687020865E+02 -0.32691045860E+01 -0.39665542272E+01  0.19381056377E+02  0.51100000000E-03 0. -1.
        -11    1    3    3    0    0  0.11753845599E+02  0.84186469857E+01  0.16583584646E+02  0.22000949602E+02  0.51100000000E-03 0.  1.
         12    1    3    3    0    0 -0.10437902623E+02 -0.82225555954E+01  0.12023519316E+02  0.17919967869E+02  0.00000000000E+00 0. -1.
</event>
<event>
 7    1  0.6672802E-013  0.5930192E+02  0.7816164E-02  0.1266605E+00
        -11   -1    0    0    0    0  0.00000000000E+00  0.00000000000E+00  0.45593999997E+02  0.45594000000E+02  0.51100000000E-03 0.  1.
         11   -1    0    0    0    0 -0.00000000000E+00 -0.00000000000E+00 -0.45593999997E+02  0.45594000000E+02  0.51100000000E-03 0. -1.
    9900012    2    1    2    0    0 -0.88154446689E+00  0.75977984625E+01  0.30955106522E+02  0.59301917113E+02  0.49999950913E+02 0.  0.
         12    1    1    2    0    0  0.88154446689E+00 -0.75977984625E+01 -0.30955106522E+02  0.31886082887E+02  0.00000000000E+00 0. -1.
         11    1    3    3    0    0 -0.65566132821E+01  0.34143087527E+01 -0.98505721547E+01  0.12315861887E+02  0.51100000000E-03 0. -1.
        -11    1    3    3    0    0  0.91791231669E+01  0.10763262826E+02  0.17415445384E+02  0.22436618885E+02  0.51100000000E-03 0.  1.
        -12    1    3    3    0    0 -0.35040543517E+01 -0.65797731166E+01  0.23390233292E+02  0.24549436340E+02  0.00000000000E+00 0.  1.
</event>
<event>
 7    1  0.6672802E-013  0.5930192E+02  0.7816164E-02  0.1266605E+00
        -11   -1    0    0    0    0  0.00000000000E+00  0.00000000000E+00  0.45593999997E+02  0.45594000000E+02  0.51100000000E-03 0. -1.
         11   -1    0    0    0    0 -0.00000000000E+00 -0.00000000000E+00 -0.45593999997E+02  0.45594000000E+02  0.51100000000E-03 0.  1.
    9900012    2    1    2    0    0 -0.87186536023E+01 -0.10333664876E+02 -0.28877714174E+02  0.59301922688E+02  0.49999961082E+02 0.  0.
         12    1    1    2    0    0  0.87186536023E+01  0.10333664876E+02  0.28877714174E+02  0.31886077312E+02  0.00000000000E+00 0. -1.
         11    1    3    3    0    0 -0.15107067876E+02  0.73549840545E+01 -0.98116859787E+01  0.19457350083E+02  0.51100000000E-03 0. -1.
        -11    1    3    3    0    0 -0.64399893961E+01  0.48619769239E+01 -0.88097789987E+01  0.11946735508E+02  0.51100000000E-03 0.  1.
         12    1    3    3    0    0  0.12828403670E+02 -0.22550625854E+02 -0.10256249197E+02  0.27897837097E+02  0.00000000000E+00 0. -1.
</event>
<event>
 7    1  0.6672802E-013  0.5930195E+02  0.7816164E-02  0.1266605E+00
        -11   -1    0    0    0    0  0.00000000000E+00  0.00000000000E+00  0.45593999997E+02  0.45594000000E+02  0.51100000000E-03 0.  1.
         11   -1    0    0    0    0 -0.00000000000E+00 -0.00000000000E+00 -0.45593999997E+02  0.45594000000E+02  0.51100000000E-03 0. -1.
    9900012    2    1    2    0    0 -0.83341923945E+01 -0.22218790804E+02  0.21297579399E+02  0.59301947940E+02  0.50000007136E+02 0.  0.
         12    1    1    2    0    0  0.83341923945E+01  0.22218790804E+02 -0.21297579399E+02  0.31886052060E+02  0.00000000000E+00 0. -1.
         11    1    3    3    0    0  0.15337516500E+01 -0.21853828062E+01 -0.45257185766E+01  0.52545619255E+01  0.51100000000E-03 0. -1.
        -11    1    3    3    0    0 -0.24022797672E+01  0.11229597384E+02  0.17351794149E+02  0.20807680455E+02  0.51100000000E-03 0.  1.
        -12    1    3    3    0    0 -0.74656642773E+01 -0.31263005382E+02  0.84715038275E+01  0.33239705560E+02  0.00000000000E+00 0.  1.
</event>
<event>
 7    1  0.6672802E-013  0.5930194E+02  0.7816164E-02  0.1266605E+00
        -11   -1    0    0    0    0  0.00000000000E+00  0.00000000000E+00  0.45593999997E+02  0.45594000000E+02  0.51100000000E-03 0.  1.
         11   -1    0    0    0    0 -0.00000000000E+00 -0.00000000000E+00 -0.45593999997E+02  0.45594000000E+02  0.51100000000E-03 0. -1.
    9900012    2    1    2    0    0 -0.13422487497E+02  0.26705315499E+02 -0.11107831400E+02  0.59301937764E+02  0.49999988576E+02 0.  0.
         12    1    1    2    0    0  0.13422487497E+02 -0.26705315499E+02  0.11107831400E+02  0.31886062236E+02  0.00000000000E+00 0. -1.
         11    1    3    3    0    0 -0.35304618200E+01 -0.73252247619E+01  0.44036671807E+01  0.92474517233E+01  0.51100000000E-03 0. -1.
        -11    1    3    3    0    0  0.23266099121E+01 -0.52452303408E+01  0.82401146667E+00  0.57969431746E+01  0.51100000000E-03 0.  1.
        -12    1    3    3    0    0 -0.12218635589E+02  0.39275770602E+02 -0.16335510047E+02  0.44257542866E+02  0.00000000000E+00 0.  1.
</event>
<event>
 7    1  0.7192346E-013  0.5930195E+02  0.7816164E-02  0.1266605E+00
        -11   -1    0    0    0    0  0.00000000000E+00  0.00000000000E+00  0.45593999997E+02  0.45594000000E+02  0.51100000000E-03 0. -1.
         11   -1    0    0    0    0 -0.00000000000E+00 -0.00000000000E+00 -0.45593999997E+02  0.45594000000E+02  0.51100000000E-03 0.  1.
    9900012    2    1    2    0    0  0.26899419379E+02 -0.15629585871E+02 -0.69898068103E+01  0.59301951065E+02  0.50000012835E+02 0.  0.
         12    1    1    2    0    0 -0.26899419379E+02  0.15629585871E+02  0.69898068103E+01  0.31886048935E+02  0.00000000000E+00 0. -1.
         11    1    3    3    0    0  0.21731098055E+02 -0.12409521574E+02 -0.13626437221E+01  0.25061796554E+02  0.51100000000E-03 0. -1.
        -11    1    3    3    0    0  0.19191048903E+02 -0.36506070259E+01 -0.51503997779E+01  0.20202720306E+02  0.51100000000E-03 0.  1.
         12    1    3    3    0    0 -0.14022727579E+02  0.43054272848E+00 -0.47676331024E+00  0.14037434204E+02  0.00000000000E+00 0. -1.
</event>
<event>
 7    1  0.6672802E-013  0.5930194E+02  0.7816164E-02  0.1266605E+00
        -11   -1    0    0    0    0  0.00000000000E+00  0.00000000000E+00  0.45593999997E+02  0.45594000000E+02  0.51100000000E-03 0.  1.
         11   -1    0    0    0    0 -0.00000000000E+00 -0.00000000000E+00 -0.45593999997E+02  0.45594000000E+02  0.51100000000E-03 0. -1.
    9900012    2    1    2    0    0  0.17336367937E+02  0.28827687671E+01  0.26605655322E+02  0.59301938718E+02  0.49999990316E+02 0.  0.
         12    1    1    2    0    0 -0.17336367937E+02 -0.28827687671E+01 -0.26605655322E+02  0.31886061282E+02  0.00000000000E+00 0. -1.
         11    1    3    3    0    0 -0.90775668632E+01  0.50551583702E+01  0.33317732788E+01  0.10911350042E+02  0.51100000000E-03 0. -1.
        -11    1    3    3    0    0  0.21736456549E+02  0.13564857456E+02  0.10957224473E+02  0.27866461374E+02  0.51100000000E-03 0.  1.
         12    1    3    3    0    0  0.46774782511E+01 -0.15737247059E+02  0.12316657570E+02  0.20524127302E+02  0.00000000000E+00 0. -1.
</event>
<event>
 7    1  0.6672802E-013  0.5930190E+02  0.7816164E-02  0.1266605E+00
        -11   -1    0    0    0    0  0.00000000000E+00  0.00000000000E+00  0.45593999997E+02  0.45594000000E+02  0.51100000000E-03 0.  1.
         11   -1    0    0    0    0 -0.00000000000E+00 -0.00000000000E+00 -0.45593999997E+02  0.45594000000E+02  0.51100000000E-03 0. -1.
    9900012    2    1    2    0    0 -0.24454453262E+02  0.93582825275E+01 -0.18196860300E+02  0.59301898623E+02  0.49999917194E+02 0.  0.
         12    1    1    2    0    0  0.24454453262E+02 -0.93582825275E+01  0.18196860300E+02  0.31886101377E+02  0.00000000000E+00 0. -1.
         11    1    3    3    0    0 -0.16945987523E+02 -0.18372028715E+01 -0.17358745703E+02  0.24328334513E+02  0.51100000000E-03 0. -1.
        -11    1    3    3    0    0 -0.16197018063E+02  0.12046027473E+02 -0.98206202847E+01  0.22447600207E+02  0.51100000000E-03 0.  1.
         12    1    3    3    0    0  0.86885523233E+01 -0.85054207349E+00  0.89825056881E+01  0.12525963904E+02  0.00000000000E+00 0. -1.
</event>
<event>
 7    1  0.6672802E-013  0.5930206E+02  0.7816164E-02  0.1266604E+00
        -11   -1    0    0    0    0  0.00000000000E+00  0.00000000000E+00  0.45593999997E+02  0.45594000000E+02  0.51100000000E-03 0. -1.
         11   -1    0    0    0    0 -0.00000000000E+00 -0.00000000000E+00 -0.45593999997E+02  0.45594000000E+02  0.51100000000E-03 0.  1.
    9900012    2    1    2    0    0  0.13239233170E+02 -0.89888674627E+01 -0.27579629626E+02  0.59302062606E+02  0.50000216257E+02 0.  0.
         12    1    1    2    0    0 -0.13239233170E+02  0.89888674627E+01  0.27579629626E+02  0.31885937394E+02  0.00000000000E+00 0. -1.
         11    1    3    3    0    0 -0.13965406870E+02 -0.13525951065E+02 -0.14161028479E+02  0.24052415037E+02  0.51100000000E-03 0. -1.
        -11    1    3    3    0    0  0.10609572137E+02  0.12905582529E+01 -0.14831368921E+02  0.18281084921E+02  0.51100000000E-03 0.  1.
         12    1    3    3    0    0  0.16595067903E+02  0.32465253498E+01  0.14127677737E+01  0.16968562648E+02  0.00000000000E+00 0. -1.
</event>
<event>
 7    1  0.6941702E-013  0.5930196E+02  0.7816164E-02  0.1266605E+00
        -11   -1    0    0    0    0  0.00000000000E+00  0.00000000000E+00  0.45593999997E+02  0.45594000000E+02  0.51100000000E-03 0. -1.
         11   -1    0    0    0    0 -0.00000000000E+00 -0.00000000000E+00 -0.45593999997E+02  0.45594000000E+02  0.51100000000E-03 0.  1.
    9900012    2    1    2    0    0  0.30190141068E+02  0.28561013391E+00 -0.10256382781E+02  0.59301959503E+02  0.50000028223E+02 0.  0.
         12    1    1    2    0    0 -0.30190141068E+02 -0.28561013391E+00  0.10256382781E+02  0.31886040497E+02  0.00000000000E+00 0. -1.
         11    1    3    3    0    0  0.12478232831E+02  0.11083893270E+01 -0.68407788069E+01  0.14273439544E+02  0.51100000000E-03 0. -1.
        -11    1    3    3    0    0  0.19836211748E+02 -0.99925086149E+01 -0.17369902070E+02  0.28196436355E+02  0.51100000000E-03 0.  1.
         12    1    3    3    0    0 -0.21243035115E+01  0.91697294218E+01  0.13954298096E+02  0.16832083603E+02  0.00000000000E+00 0. -1.
</event>
<event>
 7    1  0.6672802E-013  0.5930195E+02  0.7816164E-02  0.1266605E+00
        -11   -1    0    0    0    0  0.00000000000E+00  0.00000000000E+00  0.45593999997E+02  0.45594000000E+02  0.51100000000E-03 0.  1.
         11   -1    0    0    0    0 -0.00000000000E+00 -0.00000000000E+00 -0.45593999997E+02  0.45594000000E+02  0.51100000000E-03 0. -1.
    9900012    2    1    2    0    0  0.26910947309E+02 -0.15038394775E+02  0.81466467687E+01  0.59301948880E+02  0.50000008849E+02 0.  0.
         12    1    1    2    0    0 -0.26910947309E+02  0.15038394775E+02 -0.81466467687E+01  0.31886051120E+02  0.00000000000E+00 0. -1.
         11    1    3    3    0    0  0.45713922948E+01  0.13699814549E+02 -0.22486279857E+01  0.14616390603E+02  0.51100000000E-03 0. -1.
        -11    1    3    3    0    0  0.12478361257E+02  0.54726250158E+00  0.18667718938E+01  0.12629086803E+02  0.51100000000E-03 0.  1.
         12    1    3    3    0    0  0.98611937568E+01 -0.29285471825E+02  0.85285028605E+01  0.32056471474E+02  0.00000000000E+00 0. -1.
</event>
<event>
 7    1  0.6672802E-013  0.5930199E+02  0.7816164E-02  0.1266605E+00
        -11   -1    0    0    0    0  0.00000000000E+00  0.00000000000E+00  0.45593999997E+02  0.45594000000E+02  0.51100000000E-03 0. -1.
         11   -1    0    0    0    0 -0.00000000000E+00 -0.00000000000E+00 -0.45593999997E+02  0.45594000000E+02  0.51100000000E-03 0.  1.
    9900012    2    1    2    0    0 -0.27278546721E+01 -0.31751935470E+02  0.10444468889E+01  0.59301992622E+02  0.50000088624E+02 0.  0.
         12    1    1    2    0    0  0.27278546721E+01  0.31751935470E+02 -0.10444468889E+01  0.31886007378E+02  0.00000000000E+00 0. -1.
         11    1    3    3    0    0 -0.12436518323E+02 -0.20908831799E+02  0.97913892783E+01  0.26224369191E+02  0.51100000000E-03 0. -1.
        -11    1    3    3    0    0  0.14984666649E+02 -0.72770968880E+01  0.54424658960E+01  0.17524748472E+02  0.51100000000E-03 0.  1.
        -12    1    3    3    0    0 -0.52760029987E+01 -0.35660067830E+01 -0.14189408285E+02  0.15552874960E+02  0.00000000000E+00 0.  1.
</event>
<event>
 7    1  0.6672802E-013  0.5930194E+02  0.7816164E-02  0.1266605E+00
        -11   -1    0    0    0    0  0.00000000000E+00  0.00000000000E+00  0.45593999997E+02  0.45594000000E+02  0.51100000000E-03 0.  1.
         11   -1    0    0    0    0 -0.00000000000E+00 -0.00000000000E+00 -0.45593999997E+02  0.45594000000E+02  0.51100000000E-03 0. -1.
    9900012    2    1    2    0    0  0.18695017949E+02 -0.23774380818E+02  0.10099301708E+02  0.59301940752E+02  0.49999994026E+02 0.  0.
         12    1    1    2    0    0 -0.18695017949E+02  0.23774380818E+02 -0.10099301708E+02  0.31886059248E+02  0.00000000000E+00 0. -1.
         11    1    3    3    0    0  0.26398770222E+02 -0.39833898246E+01 -0.84504729849E+01  0.28003088359E+02  0.51100000000E-03 0. -1.
        -11    1    3    3    0    0  0.26993744511E+01 -0.14199297906E+01 -0.20846987195E+00  0.30571691131E+01  0.51100000000E-03 0.  1.
        -12    1    3    3    0    0 -0.10403126724E+02 -0.18371061202E+02  0.18758244565E+02  0.28241683280E+02  0.00000000000E+00 0.  1.
</event>
<event>
 7    1  0.6672802E-013  0.5930194E+02  0.7816164E-02  0.1266605E+00
        -11   -1    0    0    0    0  0.00000000000E+00  0.00000000000E+00  0.45593999997E+02  0.45594000000E+02  0.51100000000E-03 0.  1.
         11   -1    0    0    0    0 -0.00000000000E+00 -0.00000000000E+00 -0.45593999997E+02  0.45594000000E+02  0.51100000000E-03 0. -1.
    9900012    2    1    2    0    0 -0.10823800040E+01 -0.30955178406E+02 -0.75714256012E+01  0.59301935610E+02  0.49999984649E+02 0.  0.
         12    1    1    2    0    0  0.10823800040E+01  0.30955178406E+02  0.75714256012E+01  0.31886064390E+02  0.00000000000E+00 0. -1.
         11    1    3    3    0    0  0.31050621230E+01 -0.13332463688E+02  0.42301481333E+01  0.14327950037E+02  0.51100000000E-03 0. -1.
        -11    1    3    3    0    0 -0.50746708418E+01 -0.15440346670E+02  0.12534052709E+02  0.20524596634E+02  0.51100000000E-03 0.  1.
         12    1    3    3    0    0  0.88722871478E+00 -0.21823680485E+01 -0.24335626443E+02  0.24449388939E+02  0.00000000000E+00 0. -1.
</event>
<event>
 7    1  0.6910694E-013  0.5930197E+02  0.7816164E-02  0.1266605E+00
        -11   -1    0    0    0    0  0.00000000000E+00  0.00000000000E+00  0.45593999997E+02  0.45594000000E+02  0.51100000000E-03 0. -1.
         11   -1    0    0    0    0 -0.00000000000E+00 -0.00000000000E+00 -0.45593999997E+02  0.45594000000E+02  0.51100000000E-03 0.  1.
    9900012    2    1    2    0    0  0.90598806161E+01 -0.90950589993E+01 -0.29187625196E+02  0.59301968583E+02  0.50000044782E+02 0.  0.
         12    1    1    2    0    0 -0.90598806161E+01  0.90950589993E+01  0.29187625196E+02  0.31886031417E+02  0.00000000000E+00 0. -1.
         11    1    3    3    0    0 -0.51042578217E-01 -0.38134363315E+01  0.10357894184E+02  0.11037702396E+02  0.51100000000E-03 0. -1.
        -11    1    3    3    0    0 -0.51408105143E+01  0.70920959894E+01 -0.13702651348E+02  0.16263099720E+02  0.51100000000E-03 0.  1.
        -12    1    3    3    0    0  0.14251733709E+02 -0.12373718657E+02 -0.25842868032E+02  0.32001166467E+02  0.00000000000E+00 0.  1.
</event>
<event>
 7    1  0.6672802E-013  0.5930194E+02  0.7816164E-02  0.1266605E+00
        -11   -1    0    0    0    0  0.00000000000E+00  0.00000000000E+00  0.45593999997E+02  0.45594000000E+02  0.51100000000E-03 0.  1.
         11   -1    0    0    0    0 -0.00000000000E+00 -0.00000000000E+00 -0.45593999997E+02  0.45594000000E+02  0.51100000000E-03 0. -1.
    9900012    2    1    2    0    0 -0.50270807043E+00  0.55623733255E+01  0.31393123947E+02  0.59301938099E+02  0.49999989188E+02 0.  0.
         12    1    1    2    0    0  0.50270807043E+00 -0.55623733255E+01 -0.31393123947E+02  0.31886061901E+02  0.00000000000E+00 0. -1.
         11    1    3    3    0    0  0.66017871324E+00  0.23272120257E+02  0.18863744453E+02  0.29964450141E+02  0.51100000000E-03 0.  1.
        -11    1    3    3    0    0  0.83667211567E+01 -0.38357847714E+01  0.18041002363E+01  0.93792348116E+01  0.51100000000E-03 0. -1.
        -12    1    3    3    0    0 -0.95296079404E+01 -0.13873962160E+02  0.10725279258E+02  0.19958253147E+02  0.00000000000E+00 0.  1.
</event>
<event>
 7    1  0.6672802E-013  0.5930183E+02  0.7816164E-02  0.1266605E+00
        -11   -1    0    0    0    0  0.00000000000E+00  0.00000000000E+00  0.45593999997E+02  0.45594000000E+02  0.51100000000E-03 0.  1.
         11   -1    0    0    0    0 -0.00000000000E+00 -0.00000000000E+00 -0.45593999997E+02  0.45594000000E+02  0.51100000000E-03 0. -1.
    9900012    2    1    2    0    0 -0.14125611849E+02 -0.19131272487E+02  0.21241225065E+02  0.59301825264E+02  0.49999783402E+02 0.  0.
         12    1    1    2    0    0  0.14125611849E+02  0.19131272487E+02 -0.21241225065E+02  0.31886174736E+02  0.00000000000E+00 0. -1.
         11    1    3    3    0    0 -0.94473466783E+01  0.27611421325E+01  0.59054432035E+01  0.11478263145E+02  0.51100000000E-03 0. -1.
        -11    1    3    3    0    0 -0.15796935513E+02 -0.24193519244E+02  0.20421522107E+02  0.35382313526E+02  0.51100000000E-03 0.  1.
        -12    1    3    3    0    0  0.11118670343E+02  0.23011046248E+01 -0.50857402459E+01  0.12441248592E+02  0.00000000000E+00 0.  1.
</event>
<event>
 7    1  0.6672802E-013  0.5930198E+02  0.7816164E-02  0.1266605E+00
        -11   -1    0    0    0    0  0.00000000000E+00  0.00000000000E+00  0.45593999997E+02  0.45594000000E+02  0.51100000000E-03 0.  1.
         11   -1    0    0    0    0 -0.00000000000E+00 -0.00000000000E+00 -0.45593999997E+02  0.45594000000E+02  0.51100000000E-03 0. -1.
    9900012    2    1    2    0    0  0.16890199856E+02  0.83805177942E+01  0.25713937116E+02  0.59301976547E+02  0.50000059307E+02 0.  0.
         12    1    1    2    0    0 -0.16890199856E+02 -0.83805177942E+01 -0.25713937116E+02  0.31886023453E+02  0.00000000000E+00 0. -1.
         11    1    3    3    0    0  0.14557414127E+02 -0.57301847345E+01  0.57436304361E+01  0.16665611720E+02  0.51100000000E-03 0. -1.
        -11    1    3    3    0    0  0.72199192131E+01  0.11441495517E+02 -0.69056592187E+01  0.15189574800E+02  0.51100000000E-03 0.  1.
        -12    1    3    3    0    0 -0.48871334841E+01  0.26692070115E+01  0.26875965898E+02  0.27446790026E+02  0.00000000000E+00 0.  1.
</event>
<event>
 7    1  0.6672802E-013  0.5930195E+02  0.7816164E-02  0.1266605E+00
        -11   -1    0    0    0    0  0.00000000000E+00  0.00000000000E+00  0.45593999997E+02  0.45594000000E+02  0.51100000000E-03 0.  1.
         11   -1    0    0    0    0 -0.00000000000E+00 -0.00000000000E+00 -0.45593999997E+02  0.45594000000E+02  0.51100000000E-03 0. -1.
    9900012    2    1    2    0    0 -0.10174198194E+02  0.12278358236E+02  0.27612452450E+02  0.59301954147E+02  0.50000018455E+02 0.  0.
         12    1    1    2    0    0  0.10174198194E+02 -0.12278358236E+02 -0.27612452450E+02  0.31886045853E+02  0.00000000000E+00 0. -1.
         11    1    3    3    0    0  0.11455406731E+02  0.73529349949E+01  0.97746858019E+01  0.16758176488E+02  0.51100000000E-03 0. -1.
        -11    1    3    3    0    0  0.78006880701E+01 -0.90830348442E+00  0.44933817772E+00  0.78662350998E+01  0.51100000000E-03 0.  1.
        -12    1    3    3    0    0 -0.29430292995E+02  0.58337267254E+01  0.17388428470E+02  0.34677542559E+02  0.00000000000E+00 0.  1.
</event>
<event>
 7    1  0.6672802E-013  0.5930195E+02  0.7816164E-02  0.1266605E+00
        -11   -1    0    0    0    0  0.00000000000E+00  0.00000000000E+00  0.45593999997E+02  0.45594000000E+02  0.51100000000E-03 0. -1.
         11   -1    0    0    0    0 -0.00000000000E+00 -0.00000000000E+00 -0.45593999997E+02  0.45594000000E+02  0.51100000000E-03 0.  1.
    9900012    2    1    2    0    0 -0.19534466253E+02 -0.14426330880E+02 -0.20664117025E+02  0.59301950906E+02  0.50000012544E+02 0.  0.
         12    1    1    2    0    0  0.19534466253E+02  0.14426330880E+02  0.20664117025E+02  0.31886049094E+02  0.00000000000E+00 0. -1.
         11    1    3    3    0    0 -0.14662851360E+02 -0.24388726417E+02  0.51367637344E+01  0.28917045633E+02  0.51100000000E-03 0. -1.
        -11    1    3    3    0    0 -0.15406731745E+01 -0.53326567139E+00  0.63320775997E+00  0.17489992668E+01  0.51100000000E-03 0.  1.
        -12    1    3    3    0    0 -0.33309417184E+01  0.10495661208E+02 -0.26434088519E+02  0.28635906006E+02  0.00000000000E+00 0.  1.
</event>
<event>
 7    1  0.6672802E-013  0.5930196E+02  0.7816164E-02  0.1266605E+00
        -11   -1    0    0    0    0  0.00000000000E+00  0.00000000000E+00  0.45593999997E+02  0.45594000000E+02  0.51100000000E-03 0.  1.
         11   -1    0    0    0    0 -0.00000000000E+00 -0.00000000000E+00 -0.45593999997E+02  0.45594000000E+02  0.51100000000E-03 0. -1.
    9900012    2    1    2    0    0 -0.26996729520E+02 -0.15772200164E+02  0.62557171447E+01  0.59301957602E+02  0.50000024756E+02 0.  0.
         12    1    1    2    0    0  0.26996729520E+02  0.15772200164E+02 -0.62557171447E+01  0.31886042398E+02  0.00000000000E+00 0. -1.
         11    1    3    3    0    0 -0.16717770481E+02  0.15208861391E+01 -0.12166972822E+02  0.20732394276E+02  0.51100000000E-03 0. -1.
        -11    1    3    3    0    0 -0.13694444800E+02  0.21820030389E+01  0.53345260458E+01  0.14857864047E+02  0.51100000000E-03 0.  1.
        -12    1    3    3    0    0  0.34154857610E+01 -0.19475089342E+02  0.13088163921E+02  0.23711699279E+02  0.00000000000E+00 0.  1.
</event>
<event>
 7    1  0.6672802E-013  0.5930196E+02  0.7816164E-02  0.1266605E+00
        -11   -1    0    0    0    0  0.00000000000E+00  0.00000000000E+00  0.45593999997E+02  0.45594000000E+02  0.51100000000E-03 0. -1.
         11   -1    0    0    0    0 -0.00000000000E+00 -0.00000000000E+00 -0.45593999997E+02  0.45594000000E+02  0.51100000000E-03 0.  1.
    9900012    2    1    2    0    0 -0.56743195910E+01  0.58199238985E+01 -0.30832613030E+02  0.59301961625E+02  0.50000032092E+02 0.  0.
         12    1    1    2    0    0  0.56743195910E+01 -0.58199238985E+01  0.30832613030E+02  0.31886038375E+02  0.00000000000E+00 0. -1.
         11    1    3    3    0    0  0.70758994965E+01 -0.31165958506E+01  0.47384370590E+01  0.90683134817E+01  0.51100000000E-03 0. -1.
        -11    1    3    3    0    0  0.67291358653E+01  0.62079263049E+01  0.47775665806E+00  0.91677625507E+01  0.51100000000E-03 0.  1.
        -12    1    3    3    0    0 -0.19479354953E+02  0.27285934442E+01 -0.36048806747E+02  0.41065885592E+02  0.00000000000E+00 0.  1.
</event>
<event>
 7    1  0.6672802E-013  0.5930195E+02  0.7816164E-02  0.1266605E+00
        -11   -1    0    0    0    0  0.00000000000E+00  0.00000000000E+00  0.45593999997E+02  0.45594000000E+02  0.51100000000E-03 0. -1.
         11   -1    0    0    0    0 -0.00000000000E+00 -0.00000000000E+00 -0.45593999997E+02  0.45594000000E+02  0.51100000000E-03 0.  1.
    9900012    2    1    2    0    0 -0.18263031801E+02 -0.12019825806E+02 -0.23210029159E+02  0.59301952949E+02  0.50000016271E+02 0.  0.
         12    1    1    2    0    0  0.18263031801E+02  0.12019825806E+02  0.23210029159E+02  0.31886047051E+02  0.00000000000E+00 0. -1.
         11    1    3    3    0    0 -0.12365171161E+02 -0.11160537272E+02 -0.44355995678E+00  0.16662886777E+02  0.51100000000E-03 0. -1.
        -11    1    3    3    0    0 -0.17028451559E+02 -0.11505818227E+02 -0.14564533877E+02  0.25188840047E+02  0.51100000000E-03 0.  1.
         12    1    3    3    0    0  0.11130590920E+02  0.10646529693E+02 -0.82019353252E+01  0.17450226125E+02  0.00000000000E+00 0. -1.
</event>
<event>
 7    1  0.6672802E-013  0.5930193E+02  0.7816164E-02  0.1266605E+00
        -11   -1    0    0    0    0  0.00000000000E+00  0.00000000000E+00  0.45593999997E+02  0.45594000000E+02  0.51100000000E-03 0. -1.
         11   -1    0    0    0    0 -0.00000000000E+00 -0.00000000000E+00 -0.45593999997E+02  0.45594000000E+02  0.51100000000E-03 0.  1.
    9900012    2    1    2    0    0 -0.77508794727E+01  0.42439451813E+01 -0.30637138882E+02  0.59301929653E+02  0.49999973784E+02 0.  0.
         12    1    1    2    0    0  0.77508794727E+01 -0.42439451813E+01  0.30637138882E+02  0.31886070347E+02  0.00000000000E+00 0. -1.
         11    1    3    3    0    0  0.67326485923E+00  0.12870349818E+02 -0.61038936731E+01  0.14260319360E+02  0.51100000000E-03 0. -1.
        -11    1    3    3    0    0  0.10867101705E+02  0.54446126276E+01 -0.15060620088E+02  0.19353552228E+02  0.51100000000E-03 0.  1.
         12    1    3    3    0    0 -0.19291246037E+02 -0.14071017264E+02 -0.94726251209E+01  0.25688058066E+02  0.00000000000E+00 0. -1.
</event>
<event>
 7    1  0.6672802E-013  0.5930198E+02  0.7816164E-02  0.1266605E+00
        -11   -1    0    0    0    0  0.00000000000E+00  0.00000000000E+00  0.45593999997E+02  0.45594000000E+02  0.51100000000E-03 0.  1.
         11   -1    0    0    0    0 -0.00000000000E+00 -0.00000000000E+00 -0.45593999997E+02  0.45594000000E+02  0.51100000000E-03 0. -1.
    9900012    2    1    2    0    0 -0.72158946055E+01  0.38852202164E+01  0.30814839939E+02  0.59301977490E+02  0.50000061026E+02 0.  0.
         12    1    1    2    0    0  0.72158946055E+01 -0.38852202164E+01 -0.30814839939E+02  0.31886022510E+02  0.00000000000E+00 0. -1.
         11    1    3    3    0    0  0.68512114442E+01 -0.11973864871E+02  0.30081202184E+01  0.14119537021E+02  0.51100000000E-03 0. -1.
        -11    1    3    3    0    0 -0.11632794223E+02 -0.44117427889E+00 -0.13204383901E+01  0.11715805306E+02  0.51100000000E-03 0.  1.
        -12    1    3    3    0    0 -0.24343118271E+01  0.16300259366E+02  0.29127158110E+02  0.33466635162E+02  0.00000000000E+00 0.  1.
</event>
<event>
 7    1  0.6672802E-013  0.5930194E+02  0.7816164E-02  0.1266605E+00
        -11   -1    0    0    0    0  0.00000000000E+00  0.00000000000E+00  0.45593999997E+02  0.45594000000E+02  0.51100000000E-03 0. -1.
         11   -1    0    0    0    0 -0.00000000000E+00 -0.00000000000E+00 -0.45593999997E+02  0.45594000000E+02  0.51100000000E-03 0.  1.
    9900012    2    1    2    0    0 -0.10427764448E+02 -0.21130535137E+01 -0.30058569187E+02  0.59301939596E+02  0.49999991917E+02 0.  0.
         12    1    1    2    0    0  0.10427764448E+02  0.21130535137E+01  0.30058569187E+02  0.31886060404E+02  0.00000000000E+00 0. -1.
         11    1    3    3    0    0 -0.64845547702E+01 -0.23484422649E+01 -0.24553371731E+02  0.25503582009E+02  0.51100000000E-03 0. -1.
        -11    1    3    3    0    0 -0.10642095346E+02  0.12408500212E+02 -0.10038139919E+02  0.19183047833E+02  0.51100000000E-03 0.  1.
         12    1    3    3    0    0  0.66988856681E+01 -0.12173111460E+02  0.45329424642E+01  0.14615309754E+02  0.00000000000E+00 0. -1.
</event>
<event>
 7    1  0.6672802E-013  0.5930195E+02  0.7816164E-02  0.1266605E+00
        -11   -1    0    0    0    0  0.00000000000E+00  0.00000000000E+00  0.45593999997E+02  0.45594000000E+02  0.51100000000E-03 0. -1.
         11   -1    0    0    0    0 -0.00000000000E+00 -0.00000000000E+00 -0.45593999997E+02  0.45594000000E+02  0.51100000000E-03 0.  1.
    9900012    2    1    2    0    0 -0.45463631581E+01 -0.15363866305E+02 -0.27568139885E+02  0.59301950660E+02  0.50000012095E+02 0.  0.
         12    1    1    2    0    0  0.45463631581E+01  0.15363866305E+02  0.27568139885E+02  0.31886049340E+02  0.00000000000E+00 0. -1.
         11    1    3    3    0    0 -0.27308040845E+01 -0.12457281448E+02 -0.58585525176E+01  0.14034378857E+02  0.51100000000E-03 0. -1.
        -11    1    3    3    0    0 -0.82623706326E+01 -0.18396879946E+02 -0.19999578297E+02  0.28402378290E+02  0.51100000000E-03 0.  1.
        -12    1    3    3    0    0  0.64468115590E+01  0.15490295089E+02 -0.17100090707E+01  0.16865193513E+02  0.00000000000E+00 0.  1.
</event>
<event>
 7    1  0.6672802E-013  0.5930194E+02  0.7816164E-02  0.1266605E+00
        -11   -1    0    0    0    0  0.00000000000E+00  0.00000000000E+00  0.45593999997E+02  0.45594000000E+02  0.51100000000E-03 0.  1.
         11   -1    0    0    0    0 -0.00000000000E+00 -0.00000000000E+00 -0.45593999997E+02  0.45594000000E+02  0.51100000000E-03 0. -1.
    9900012    2    1    2    0    0  0.27822105794E+02 -0.67717526728E+01  0.14028351561E+02  0.59301939525E+02  0.49999991788E+02 0.  0.
         12    1    1    2    0    0 -0.27822105794E+02  0.67717526728E+01 -0.14028351561E+02  0.31886060475E+02  0.00000000000E+00 0. -1.
         11    1    3    3    0    0  0.14460143571E+02 -0.13322469074E+02  0.73645822410E+01  0.20995737809E+02  0.51100000000E-03 0. -1.
        -11    1    3    3    0    0  0.24862407669E+02  0.58372057480E+01  0.12335993631E+01  0.25568223515E+02  0.51100000000E-03 0.  1.
        -12    1    3    3    0    0 -0.11500445446E+02  0.71351065280E+00  0.54301699565E+01  0.12737978201E+02  0.00000000000E+00 0.  1.
</event>
<event>
 7    1  0.6672802E-013  0.5930192E+02  0.7816164E-02  0.1266605E+00
        -11   -1    0    0    0    0  0.00000000000E+00  0.00000000000E+00  0.45593999997E+02  0.45594000000E+02  0.51100000000E-03 0.  1.
         11   -1    0    0    0    0 -0.00000000000E+00 -0.00000000000E+00 -0.45593999997E+02  0.45594000000E+02  0.51100000000E-03 0. -1.
    9900012    2    1    2    0    0  0.94265416343E+01 -0.30405780244E+02  0.18305174095E+01  0.59301922263E+02  0.49999960307E+02 0.  0.
         12    1    1    2    0    0 -0.94265416343E+01  0.30405780244E+02 -0.18305174095E+01  0.31886077737E+02  0.00000000000E+00 0. -1.
         11    1    3    3    0    0  0.37639525333E+01  0.30524612037E+01  0.60779469785E+01  0.77734353929E+01  0.51100000000E-03 0. -1.
        -11    1    3    3    0    0  0.21342923551E+02 -0.26915385512E+02 -0.33649961148E+01  0.34514946937E+02  0.51100000000E-03 0.  1.
         12    1    3    3    0    0 -0.15680334450E+02 -0.65428559359E+01 -0.88243345413E+00  0.17013539933E+02  0.00000000000E+00 0. -1.
</event>
<event>
 7    1  0.6672802E-013  0.5930195E+02  0.7816164E-02  0.1266605E+00
        -11   -1    0    0    0    0  0.00000000000E+00  0.00000000000E+00  0.45593999997E+02  0.45594000000E+02  0.51100000000E-03 0. -1.
         11   -1    0    0    0    0 -0.00000000000E+00 -0.00000000000E+00 -0.45593999997E+02  0.45594000000E+02  0.51100000000E-03 0.  1.
    9900012    2    1    2    0    0 -0.60033484765E+00 -0.27842796476E+02 -0.15528630769E+02  0.59301951466E+02  0.50000013566E+02 0.  0.
         12    1    1    2    0    0  0.60033484765E+00  0.27842796476E+02  0.15528630769E+02  0.31886048534E+02  0.00000000000E+00 0. -1.
         11    1    3    3    0    0 -0.31256300315E+01 -0.93878222903E+01  0.79358196252E+01  0.12683769307E+02  0.51100000000E-03 0. -1.
        -11    1    3    3    0    0  0.18235365066E+02 -0.75576765403E+01 -0.57656145957E+01  0.20564273041E+02  0.51100000000E-03 0.  1.
        -12    1    3    3    0    0 -0.15710069882E+02 -0.10897297646E+02 -0.17698835798E+02  0.26053909118E+02  0.00000000000E+00 0.  1.
</event>
<event>
 7    1  0.6672802E-013  0.5930195E+02  0.7816164E-02  0.1266605E+00
        -11   -1    0    0    0    0  0.00000000000E+00  0.00000000000E+00  0.45593999997E+02  0.45594000000E+02  0.51100000000E-03 0. -1.
         11   -1    0    0    0    0 -0.00000000000E+00 -0.00000000000E+00 -0.45593999997E+02  0.45594000000E+02  0.51100000000E-03 0.  1.
    9900012    2    1    2    0    0  0.49175427727E+01  0.30325329932E+02  0.85388878020E+01  0.59301945567E+02  0.50000002807E+02 0.  0.
         12    1    1    2    0    0 -0.49175427727E+01 -0.30325329932E+02 -0.85388878020E+01  0.31886054433E+02  0.00000000000E+00 0. -1.
         11    1    3    3    0    0 -0.79650297887E+01  0.68488786310E+01 -0.26328933281E+01  0.10829633677E+02  0.51100000000E-03 0. -1.
        -11    1    3    3    0    0 -0.11838917369E+02 -0.77737582105E+00 -0.63845185905E+00  0.11881578122E+02  0.51100000000E-03 0.  1.
         12    1    3    3    0    0  0.24721489930E+02  0.24253827122E+02  0.11810232989E+02  0.36590733768E+02  0.00000000000E+00 0. -1.
</event>
<event>
 7    1  0.6672802E-013  0.5930193E+02  0.7816164E-02  0.1266605E+00
        -11   -1    0    0    0    0  0.00000000000E+00  0.00000000000E+00  0.45593999997E+02  0.45594000000E+02  0.51100000000E-03 0.  1.
         11   -1    0    0    0    0 -0.00000000000E+00 -0.00000000000E+00 -0.45593999997E+02  0.45594000000E+02  0.51100000000E-03 0. -1.
    9900012    2    1    2    0    0 -0.15865464652E+02 -0.22954814294E+02  0.15430000077E+02  0.59301931408E+02  0.49999976985E+02 0.  0.
         12    1    1    2    0    0  0.15865464652E+02  0.22954814294E+02 -0.15430000077E+02  0.31886068592E+02  0.00000000000E+00 0. -1.
         11    1    3    3    0    0  0.31428629472E+00  0.21844793984E+01 -0.30316793741E+01  0.37499074929E+01  0.51100000000E-03 0. -1.
        -11    1    3    3    0    0  0.16459947977E+01  0.59505215619E+01 -0.86409658777E+01  0.10619995164E+02  0.51100000000E-03 0.  1.
        -12    1    3    3    0    0 -0.17825745744E+02 -0.31089815254E+02  0.27102645329E+02  0.44932028751E+02  0.00000000000E+00 0.  1.
</event>
<event>
 7    1  0.6672802E-013  0.5930192E+02  0.7816164E-02  0.1266605E+00
        -11   -1    0    0    0    0  0.00000000000E+00  0.00000000000E+00  0.45593999997E+02  0.45594000000E+02  0.51100000000E-03 0. -1.
         11   -1    0    0    0    0 -0.00000000000E+00 -0.00000000000E+00 -0.45593999997E+02  0.45594000000E+02  0.51100000000E-03 0.  1.
    9900012    2    1    2    0    0 -0.80901923402E+01 -0.24124886278E+02 -0.19216164587E+02  0.59301916335E+02  0.49999949496E+02 0.  0.
         12    1    1    2    0    0  0.80901923402E+01  0.24124886278E+02  0.19216164587E+02  0.31886083665E+02  0.00000000000E+00 0. -1.
         11    1    3    3    0    0 -0.16020890872E+02 -0.19995476352E+01  0.10224045116E+02  0.19110160488E+02  0.51100000000E-03 0. -1.
        -11    1    3    3    0    0  0.83669981702E+00 -0.13425404009E+02 -0.71481090418E+01  0.15232760831E+02  0.51100000000E-03 0.  1.
        -12    1    3    3    0    0  0.70939987144E+01 -0.86999346339E+01 -0.22292100661E+02  0.24958995017E+02  0.00000000000E+00 0.  1.
</event>
<event>
 7    1  0.6672802E-013  0.5930194E+02  0.7816164E-02  0.1266605E+00
        -11   -1    0    0    0    0  0.00000000000E+00  0.00000000000E+00  0.45593999997E+02  0.45594000000E+02  0.51100000000E-03 0.  1.
         11   -1    0    0    0    0 -0.00000000000E+00 -0.00000000000E+00 -0.45593999997E+02  0.45594000000E+02  0.51100000000E-03 0. -1.
    9900012    2    1    2    0    0  0.21058149250E+02  0.11518632453E+02  0.20990392831E+02  0.59301935103E+02  0.49999983724E+02 0.  0.
         12    1    1    2    0    0 -0.21058149250E+02 -0.11518632453E+02 -0.20990392831E+02  0.31886064897E+02  0.00000000000E+00 0. -1.
         11    1    3    3    0    0 -0.60770028890E+01  0.14763751001E+02  0.95751278996E+01  0.18616696331E+02  0.51100000000E-03 0. -1.
        -11    1    3    3    0    0  0.22823082155E+01 -0.55727471664E+01 -0.73171122206E+01  0.94765274907E+01  0.51100000000E-03 0.  1.
        -12    1    3    3    0    0  0.24852843923E+02  0.23276286181E+01  0.18732377152E+02  0.31208711281E+02  0.00000000000E+00 0.  1.
</event>
<event>
 7    1  0.6672802E-013  0.5930196E+02  0.7816164E-02  0.1266605E+00
        -11   -1    0    0    0    0  0.00000000000E+00  0.00000000000E+00  0.45593999997E+02  0.45594000000E+02  0.51100000000E-03 0. -1.
         11   -1    0    0    0    0 -0.00000000000E+00 -0.00000000000E+00 -0.45593999997E+02  0.45594000000E+02  0.51100000000E-03 0.  1.
    9900012    2    1    2    0    0 -0.29213658912E+02  0.10050261903E+02 -0.78913985544E+01  0.59301955992E+02  0.50000021820E+02 0.  0.
         12    1    1    2    0    0  0.29213658912E+02 -0.10050261903E+02  0.78913985544E+01  0.31886044008E+02  0.00000000000E+00 0. -1.
         11    1    3    3    0    0 -0.73981055317E+01 -0.90282083592E+01 -0.16088143562E+02  0.19876339582E+02  0.51100000000E-03 0. -1.
        -11    1    3    3    0    0 -0.49166345044E+01  0.67211809282E+01 -0.90521615560E+01  0.12299967358E+02  0.51100000000E-03 0.  1.
         12    1    3    3    0    0 -0.16898918876E+02  0.12357289334E+02  0.17248906564E+02  0.27125649052E+02  0.00000000000E+00 0. -1.
</event>
<event>
 7    1  0.6672802E-013  0.5930194E+02  0.7816164E-02  0.1266605E+00
        -11   -1    0    0    0    0  0.00000000000E+00  0.00000000000E+00  0.45593999997E+02  0.45594000000E+02  0.51100000000E-03 0. -1.
         11   -1    0    0    0    0 -0.00000000000E+00 -0.00000000000E+00 -0.45593999997E+02  0.45594000000E+02  0.51100000000E-03 0.  1.
    9900012    2    1    2    0    0 -0.21412609533E+02 -0.12509732270E+02 -0.20043136284E+02  0.59301944104E+02  0.50000000140E+02 0.  0.
         12    1    1    2    0    0  0.21412609533E+02  0.12509732270E+02  0.20043136284E+02  0.31886055896E+02  0.00000000000E+00 0. -1.
         11    1    3    3    0    0 -0.87027085615E+01 -0.10323916698E+02 -0.23077739871E+00  0.13504578881E+02  0.51100000000E-03 0. -1.
        -11    1    3    3    0    0  0.14765058497E+01 -0.12808221008E+02 -0.24306103907E+02  0.27513947051E+02  0.51100000000E-03 0.  1.
         12    1    3    3    0    0 -0.14186406821E+02  0.10622405436E+02  0.44937450218E+01  0.18283418172E+02  0.00000000000E+00 0. -1.
</event>
<event>
 7    1  0.6672802E-013  0.5930194E+02  0.7816164E-02  0.1266605E+00
        -11   -1    0    0    0    0  0.00000000000E+00  0.00000000000E+00  0.45593999997E+02  0.45594000000E+02  0.51100000000E-03 0.  1.
         11   -1    0    0    0    0 -0.00000000000E+00 -0.00000000000E+00 -0.45593999997E+02  0.45594000000E+02  0.51100000000E-03 0. -1.
    9900012    2    1    2    0    0  0.51117469540E+01 -0.31473096800E+02 -0.18720074576E+00  0.59301939986E+02  0.49999992628E+02 0.  0.
         12    1    1    2    0    0 -0.51117469540E+01  0.31473096800E+02  0.18720074576E+00  0.31886060014E+02  0.00000000000E+00 0. -1.
         11    1    3    3    0    0  0.46513165190E+01  0.20899092226E+01 -0.45668300459E+01  0.68453197769E+01  0.51100000000E-03 0. -1.
        -11    1    3    3    0    0  0.89403750681E+01 -0.72953175227E+01  0.18229182723E+02  0.21574407689E+02  0.51100000000E-03 0.  1.
        -12    1    3    3    0    0 -0.84799446331E+01 -0.26267688500E+02 -0.13849553423E+02  0.30882212520E+02  0.00000000000E+00 0.  1.
</event>
<event>
 7    1  0.6672802E-013  0.5930194E+02  0.7816164E-02  0.1266605E+00
        -11   -1    0    0    0    0  0.00000000000E+00  0.00000000000E+00  0.45593999997E+02  0.45594000000E+02  0.51100000000E-03 0. -1.
         11   -1    0    0    0    0 -0.00000000000E+00 -0.00000000000E+00 -0.45593999997E+02  0.45594000000E+02  0.51100000000E-03 0.  1.
    9900012    2    1    2    0    0 -0.29421612917E+02  0.12288599571E+02 -0.28273604193E+00  0.59301938379E+02  0.49999989698E+02 0.  0.
         12    1    1    2    0    0  0.29421612917E+02 -0.12288599571E+02  0.28273604193E+00  0.31886061621E+02  0.00000000000E+00 0. -1.
         11    1    3    3    0    0  0.16739619246E+01  0.10348707624E+02  0.24772009190E+01  0.10771927528E+02  0.51100000000E-03 0. -1.
        -11    1    3    3    0    0 -0.28947769424E+02  0.14180076953E+02  0.66860029052E+01  0.32920367133E+02  0.51100000000E-03 0.  1.
         12    1    3    3    0    0 -0.21478054169E+01 -0.12240185005E+02 -0.94459398662E+01  0.15609643719E+02  0.00000000000E+00 0. -1.
</event>
<event>
 7    1  0.6672802E-013  0.5930195E+02  0.7816164E-02  0.1266605E+00
        -11   -1    0    0    0    0  0.00000000000E+00  0.00000000000E+00  0.45593999997E+02  0.45594000000E+02  0.51100000000E-03 0. -1.
         11   -1    0    0    0    0 -0.00000000000E+00 -0.00000000000E+00 -0.45593999997E+02  0.45594000000E+02  0.51100000000E-03 0.  1.
    9900012    2    1    2    0    0 -0.64124255852E+01 -0.23899536993E+02 -0.20110029070E+02  0.59301947571E+02  0.50000006461E+02 0.  0.
         12    1    1    2    0    0  0.64124255852E+01  0.23899536993E+02  0.20110029070E+02  0.31886052429E+02  0.00000000000E+00 0. -1.
         11    1    3    3    0    0 -0.81194002959E+01 -0.46425316576E+01 -0.32325462757E+00  0.93585391580E+01  0.51100000000E-03 0.  1.
        -11    1    3    3    0    0  0.10148289985E+02 -0.29603607151E+02 -0.18903651544E+02  0.36561036472E+02  0.51100000000E-03 0. -1.
         12    1    3    3    0    0 -0.84413152740E+01  0.10346601816E+02 -0.88312289804E+00  0.13382371940E+02  0.00000000000E+00 0. -1.
</event>
<event>
 7    1  0.6672802E-013  0.5930232E+02  0.7816164E-02  0.1266603E+00
        -11   -1    0    0    0    0  0.00000000000E+00  0.00000000000E+00  0.45593999997E+02  0.45594000000E+02  0.51100000000E-03 0.  1.
         11   -1    0    0    0    0 -0.00000000000E+00 -0.00000000000E+00 -0.45593999997E+02  0.45594000000E+02  0.51100000000E-03 0. -1.
    9900012    2    1    2    0    0 -0.51681906822E+01  0.31092408522E+02 -0.48216443875E+01  0.59302324262E+02  0.50000693452E+02 0.  0.
         12    1    1    2    0    0  0.51681906822E+01 -0.31092408522E+02  0.48216443875E+01  0.31885675738E+02  0.00000000000E+00 0. -1.
         11    1    3    3    0    0 -0.18213252025E+01  0.11688734717E+02 -0.18913741026E+02  0.22308593515E+02  0.51100000000E-03 0. -1.
        -11    1    3    3    0    0 -0.68847504829E+01 -0.29067443912E+01 -0.36054515621E+01  0.82974835580E+01  0.51100000000E-03 0.  1.
        -12    1    3    3    0    0  0.35378850031E+01  0.22310418197E+02  0.17697548201E+02  0.28696247189E+02  0.00000000000E+00 0.  1.
</event>
<event>
 7    1  0.6672802E-013  0.5930194E+02  0.7816164E-02  0.1266605E+00
        -11   -1    0    0    0    0  0.00000000000E+00  0.00000000000E+00  0.45593999997E+02  0.45594000000E+02  0.51100000000E-03 0.  1.
         11   -1    0    0    0    0 -0.00000000000E+00 -0.00000000000E+00 -0.45593999997E+02  0.45594000000E+02  0.51100000000E-03 0. -1.
    9900012    2    1    2    0    0  0.24576867563E+02  0.18615737653E+01  0.20229513765E+02  0.59301935595E+02  0.49999984620E+02 0.  0.
         12    1    1    2    0    0 -0.24576867563E+02 -0.18615737653E+01 -0.20229513765E+02  0.31886064405E+02  0.00000000000E+00 0. -1.
         11    1    3    3    0    0 -0.12121007780E+01 -0.37689100221E+01 -0.19119777138E+00  0.39636382151E+01  0.51100000000E-03 0. -1.
        -11    1    3    3    0    0  0.13242339638E+02 -0.11192285762E+02 -0.87353574699E+01  0.19414769894E+02  0.51100000000E-03 0.  1.
        -12    1    3    3    0    0  0.12546628703E+02  0.16822769549E+02  0.29156069006E+02  0.35923527486E+02  0.00000000000E+00 0.  1.
</event>
<event>
 7    1  0.6672802E-013  0.5930185E+02  0.7816164E-02  0.1266605E+00
        -11   -1    0    0    0    0  0.00000000000E+00  0.00000000000E+00  0.45593999997E+02  0.45594000000E+02  0.51100000000E-03 0.  1.
         11   -1    0    0    0    0 -0.00000000000E+00 -0.00000000000E+00 -0.45593999997E+02  0.45594000000E+02  0.51100000000E-03 0. -1.
    9900012    2    1    2    0    0  0.21800843413E+02  0.22588292400E+02  0.55873721511E+01  0.59301851681E+02  0.49999831582E+02 0.  0.
         12    1    1    2    0    0 -0.21800843413E+02 -0.22588292400E+02 -0.55873721511E+01  0.31886148319E+02  0.00000000000E+00 0. -1.
         11    1    3    3    0    0  0.10499554909E+01 -0.43453210700E+01  0.42033863399E+00  0.44900898168E+01  0.51100000000E-03 0. -1.
        -11    1    3    3    0    0  0.56450001650E-01  0.71736978227E+01  0.20943044650E+02  0.22137665787E+02  0.51100000000E-03 0.  1.
         12    1    3    3    0    0  0.20694437920E+02  0.19759915647E+02 -0.15776011133E+02  0.32674096077E+02  0.00000000000E+00 0. -1.
</event>
<event>
 7    1  0.6672802E-013  0.5930202E+02  0.7816164E-02  0.1266605E+00
        -11   -1    0    0    0    0  0.00000000000E+00  0.00000000000E+00  0.45593999997E+02  0.45594000000E+02  0.51100000000E-03 0. -1.
         11   -1    0    0    0    0 -0.00000000000E+00 -0.00000000000E+00 -0.45593999997E+02  0.45594000000E+02  0.51100000000E-03 0.  1.
    9900012    2    1    2    0    0 -0.61272259739E+01 -0.51986574804E+01 -0.30856880699E+02  0.59302015239E+02  0.50000129871E+02 0.  0.
         12    1    1    2    0    0  0.61272259739E+01  0.51986574804E+01  0.30856880699E+02  0.31885984761E+02  0.00000000000E+00 0. -1.
         11    1    3    3    0    0  0.32871973595E+01  0.10331168026E+02 -0.10761645509E+02  0.15275853939E+02  0.51100000000E-03 0. -1.
        -11    1    3    3    0    0 -0.30926843512E+01  0.63701397585E+01 -0.20016230821E+02  0.21231883420E+02  0.51100000000E-03 0.  1.
        -12    1    3    3    0    0 -0.63217389822E+01 -0.21899965265E+02 -0.79004369571E-01  0.22794277879E+02  0.00000000000E+00 0.  1.
</event>
<event>
 7    1  0.6672802E-013  0.5930195E+02  0.7816164E-02  0.1266605E+00
        -11   -1    0    0    0    0  0.00000000000E+00  0.00000000000E+00  0.45593999997E+02  0.45594000000E+02  0.51100000000E-03 0.  1.
         11   -1    0    0    0    0 -0.00000000000E+00 -0.00000000000E+00 -0.45593999997E+02  0.45594000000E+02  0.51100000000E-03 0. -1.
    9900012    2    1    2    0    0  0.31592618549E+02  0.38795772619E+01  0.18908363975E+01  0.59301954012E+02  0.50000018208E+02 0.  0.
         12    1    1    2    0    0 -0.31592618549E+02 -0.38795772619E+01 -0.18908363975E+01  0.31886045988E+02  0.00000000000E+00 0. -1.
         11    1    3    3    0    0  0.10604555069E+02 -0.49432194850E+01  0.81535895488E+01  0.14260891623E+02  0.51100000000E-03 0. -1.
        -11    1    3    3    0    0  0.13271505845E+02 -0.10910058146E+01  0.15177605692E+02  0.20191158359E+02  0.51100000000E-03 0.  1.
         12    1    3    3    0    0  0.77165576352E+01  0.99138025615E+01 -0.21440358843E+02  0.24849904030E+02  0.00000000000E+00 0. -1.
</event>
<event>
 7    1  0.6672802E-013  0.5930200E+02  0.7816164E-02  0.1266605E+00
        -11   -1    0    0    0    0  0.00000000000E+00  0.00000000000E+00  0.45593999997E+02  0.45594000000E+02  0.51100000000E-03 0.  1.
         11   -1    0    0    0    0 -0.00000000000E+00 -0.00000000000E+00 -0.45593999997E+02  0.45594000000E+02  0.51100000000E-03 0. -1.
    9900012    2    1    2    0    0  0.94834079593E+01 -0.23263722703E+02  0.19636214690E+02  0.59302003891E+02  0.50000109176E+02 0.  0.
         12    1    1    2    0    0 -0.94834079593E+01  0.23263722703E+02 -0.19636214690E+02  0.31885996109E+02  0.00000000000E+00 0. -1.
         11    1    3    3    0    0 -0.11829052460E+02 -0.25530824718E+02  0.24439496567E+00  0.28139104855E+02  0.51100000000E-03 0. -1.
        -11    1    3    3    0    0  0.57046331726E+01 -0.40014731262E+01  0.90366924795E+01  0.11411241740E+02  0.51100000000E-03 0.  1.
        -12    1    3    3    0    0  0.15607827247E+02  0.62685751411E+01  0.10355127245E+02  0.19751657296E+02  0.00000000000E+00 0.  1.
</event>
<event>
 7    1  0.6672802E-013  0.5930196E+02  0.7816164E-02  0.1266605E+00
        -11   -1    0    0    0    0  0.00000000000E+00  0.00000000000E+00  0.45593999997E+02  0.45594000000E+02  0.51100000000E-03 0.  1.
         11   -1    0    0    0    0 -0.00000000000E+00 -0.00000000000E+00 -0.45593999997E+02  0.45594000000E+02  0.51100000000E-03 0. -1.
    9900012    2    1    2    0    0  0.18597095288E+02  0.25839816520E+02 -0.17808624047E+01  0.59301960079E+02  0.50000029274E+02 0.  0.
         12    1    1    2    0    0 -0.18597095288E+02 -0.25839816520E+02  0.17808624047E+01  0.31886039921E+02  0.00000000000E+00 0. -1.
         11    1    3    3    0    0  0.17818870973E+02  0.14994848113E+02 -0.76058343889E+01  0.24499109161E+02  0.51100000000E-03 0. -1.
        -11    1    3    3    0    0  0.44207790021E+01  0.21968169164E+02  0.55935105222E+01  0.23096127459E+02  0.51100000000E-03 0.  1.
        -12    1    3    3    0    0 -0.36425546868E+01 -0.11123200757E+02  0.23146146211E+00  0.11706723458E+02  0.00000000000E+00 0.  1.
</event>
<event>
 7    1  0.6672802E-013  0.5930198E+02  0.7816164E-02  0.1266605E+00
        -11   -1    0    0    0    0  0.00000000000E+00  0.00000000000E+00  0.45593999997E+02  0.45594000000E+02  0.51100000000E-03 0.  1.
         11   -1    0    0    0    0 -0.00000000000E+00 -0.00000000000E+00 -0.45593999997E+02  0.45594000000E+02  0.51100000000E-03 0. -1.
    9900012    2    1    2    0    0 -0.20464999994E+02 -0.19723377945E+02  0.14453047806E+02  0.59301977150E+02  0.50000060407E+02 0.  0.
         12    1    1    2    0    0  0.20464999994E+02  0.19723377945E+02 -0.14453047806E+02  0.31886022850E+02  0.00000000000E+00 0. -1.
         11    1    3    3    0    0  0.47693991488E+01 -0.43972205351E+01 -0.93002446346E+01  0.11339191647E+02  0.51100000000E-03 0. -1.
        -11    1    3    3    0    0 -0.76313758598E+01 -0.17069462373E+02  0.44604807675E+00  0.18703031903E+02  0.51100000000E-03 0.  1.
        -12    1    3    3    0    0 -0.17603023283E+02  0.17433049636E+01  0.23307244364E+02  0.29259753600E+02  0.00000000000E+00 0.  1.
</event>
<event>
 7    1  0.6672802E-013  0.5930194E+02  0.7816164E-02  0.1266605E+00
        -11   -1    0    0    0    0  0.00000000000E+00  0.00000000000E+00  0.45593999997E+02  0.45594000000E+02  0.51100000000E-03 0. -1.
         11   -1    0    0    0    0 -0.00000000000E+00 -0.00000000000E+00 -0.45593999997E+02  0.45594000000E+02  0.51100000000E-03 0.  1.
    9900012    2    1    2    0    0 -0.15372138583E+02 -0.13571524610E+02 -0.24417857404E+02  0.59301942153E+02  0.49999996580E+02 0.  0.
         12    1    1    2    0    0  0.15372138583E+02  0.13571524610E+02  0.24417857404E+02  0.31886057847E+02  0.00000000000E+00 0. -1.
         11    1    3    3    0    0 -0.73550313221E+00 -0.29765147384E+01 -0.83001344836E+00  0.31764016483E+01  0.51100000000E-03 0. -1.
        -11    1    3    3    0    0 -0.65592778280E+01 -0.23349989980E+02 -0.30956186291E+02  0.39325966328E+02  0.51100000000E-03 0.  1.
         12    1    3    3    0    0 -0.80773576224E+01  0.12754980108E+02  0.73683423356E+01  0.16799574176E+02  0.00000000000E+00 0. -1.
</event>
<event>
 7    1  0.6672802E-013  0.5930203E+02  0.7816164E-02  0.1266604E+00
        -11   -1    0    0    0    0  0.00000000000E+00  0.00000000000E+00  0.45593999997E+02  0.45594000000E+02  0.51100000000E-03 0.  1.
         11   -1    0    0    0    0 -0.00000000000E+00 -0.00000000000E+00 -0.45593999997E+02  0.45594000000E+02  0.51100000000E-03 0. -1.
    9900012    2    1    2    0    0 -0.15190719851E+02 -0.22628553574E+02  0.16550092097E+02  0.59302032007E+02  0.50000160453E+02 0.  0.
         12    1    1    2    0    0  0.15190719851E+02  0.22628553574E+02 -0.16550092097E+02  0.31885967993E+02  0.00000000000E+00 0. -1.
         11    1    3    3    0    0 -0.23445496730E+01  0.49120916424E+00  0.15857437071E+01  0.28727657367E+01  0.51100000000E-03 0. -1.
        -11    1    3    3    0    0 -0.72580554683E+01  0.10521024653E+02  0.18128113412E+02  0.22181069070E+02  0.51100000000E-03 0.  1.
         12    1    3    3    0    0 -0.55881147094E+01 -0.33640787392E+02 -0.31637650229E+01  0.34248197200E+02  0.00000000000E+00 0. -1.
</event>
<event>
 7    1  0.6672802E-013  0.5930197E+02  0.7816164E-02  0.1266605E+00
        -11   -1    0    0    0    0  0.00000000000E+00  0.00000000000E+00  0.45593999997E+02  0.45594000000E+02  0.51100000000E-03 0. -1.
         11   -1    0    0    0    0 -0.00000000000E+00 -0.00000000000E+00 -0.45593999997E+02  0.45594000000E+02  0.51100000000E-03 0.  1.
    9900012    2    1    2    0    0  0.10152318293E+02  0.30216545154E+02  0.78091601242E+00  0.59301968613E+02  0.50000044838E+02 0.  0.
         12    1    1    2    0    0 -0.10152318293E+02 -0.30216545154E+02 -0.78091601242E+00  0.31886031387E+02  0.00000000000E+00 0. -1.
         11    1    3    3    0    0 -0.89965059861E+01 -0.78767672489E+01  0.22593570579E+01  0.12169029412E+02  0.51100000000E-03 0. -1.
        -11    1    3    3    0    0 -0.37762011776E+00  0.42234826671E+01 -0.64538922162E+01  0.77222488817E+01  0.51100000000E-03 0.  1.
         12    1    3    3    0    0  0.19526444397E+02  0.33869829736E+02  0.49754511707E+01  0.39410690320E+02  0.00000000000E+00 0. -1.
</event>
<event>
 7    1  0.6672802E-013  0.5930193E+02  0.7816164E-02  0.1266605E+00
        -11   -1    0    0    0    0  0.00000000000E+00  0.00000000000E+00  0.45593999997E+02  0.45594000000E+02  0.51100000000E-03 0.  1.
         11   -1    0    0    0    0 -0.00000000000E+00 -0.00000000000E+00 -0.45593999997E+02  0.45594000000E+02  0.51100000000E-03 0. -1.
    9900012    2    1    2    0    0  0.30204550819E+02 -0.10164037470E+02  0.10484265459E+01  0.59301925515E+02  0.49999966237E+02 0.  0.
         12    1    1    2    0    0 -0.30204550819E+02  0.10164037470E+02 -0.10484265459E+01  0.31886074485E+02  0.00000000000E+00 0. -1.
         11    1    3    3    0    0  0.18901702037E+02 -0.80205979128E+01 -0.11596072569E+02  0.23581205017E+02  0.51100000000E-03 0. -1.
        -11    1    3    3    0    0  0.18681237182E+02 -0.83868709303E+01  0.15454792661E+02  0.25654996455E+02  0.51100000000E-03 0.  1.
         12    1    3    3    0    0 -0.73783884001E+01  0.62434313733E+01 -0.28102935464E+01  0.10065724043E+02  0.00000000000E+00 0. -1.
</event>
<event>
 7    1  0.6672802E-013  0.5930196E+02  0.7816164E-02  0.1266605E+00
        -11   -1    0    0    0    0  0.00000000000E+00  0.00000000000E+00  0.45593999997E+02  0.45594000000E+02  0.51100000000E-03 0.  1.
         11   -1    0    0    0    0 -0.00000000000E+00 -0.00000000000E+00 -0.45593999997E+02  0.45594000000E+02  0.51100000000E-03 0. -1.
    9900012    2    1    2    0    0 -0.21797095565E+02  0.78563382543E+01  0.21906264377E+02  0.59301955328E+02  0.50000020610E+02 0.  0.
         12    1    1    2    0    0  0.21797095565E+02 -0.78563382543E+01 -0.21906264377E+02  0.31886044672E+02  0.00000000000E+00 0. -1.
         11    1    3    3    0    0 -0.33215979666E+01  0.11155189018E+02  0.16074631261E+01  0.11749689061E+02  0.51100000000E-03 0. -1.
        -11    1    3    3    0    0 -0.28525702779E+02 -0.57212451583E+01  0.56730379646E+01  0.29641722710E+02  0.51100000000E-03 0.  1.
         12    1    3    3    0    0  0.10050205181E+02  0.24223943947E+01  0.14625763287E+02  0.17910543557E+02  0.00000000000E+00 0. -1.
</event>
<event>
 7    1  0.6672802E-013  0.5930196E+02  0.7816164E-02  0.1266605E+00
        -11   -1    0    0    0    0  0.00000000000E+00  0.00000000000E+00  0.45593999997E+02  0.45594000000E+02  0.51100000000E-03 0. -1.
         11   -1    0    0    0    0 -0.00000000000E+00 -0.00000000000E+00 -0.45593999997E+02  0.45594000000E+02  0.51100000000E-03 0.  1.
    9900012    2    1    2    0    0 -0.25492882772E+02 -0.14718952330E+02  0.12254991495E+02  0.59301961578E+02  0.50000032007E+02 0.  0.
         12    1    1    2    0    0  0.25492882772E+02  0.14718952330E+02 -0.12254991495E+02  0.31886038422E+02  0.00000000000E+00 0. -1.
         11    1    3    3    0    0  0.19604098385E+01 -0.12386181606E+01  0.47451061975E+01  0.52814216618E+01  0.51100000000E-03 0. -1.
        -11    1    3    3    0    0  0.11473744920E+01  0.66035283864E+01 -0.12183806910E+02  0.13905689715E+02  0.51100000000E-03 0.  1.
         12    1    3    3    0    0 -0.28600667103E+02 -0.20083862556E+02  0.19693692207E+02  0.40114850201E+02  0.00000000000E+00 0. -1.
</event>
<event>
 7    1  0.6672802E-013  0.5930199E+02  0.7816164E-02  0.1266605E+00
        -11   -1    0    0    0    0  0.00000000000E+00  0.00000000000E+00  0.45593999997E+02  0.45594000000E+02  0.51100000000E-03 0.  1.
         11   -1    0    0    0    0 -0.00000000000E+00 -0.00000000000E+00 -0.45593999997E+02  0.45594000000E+02  0.51100000000E-03 0. -1.
    9900012    2    1    2    0    0 -0.18892422701E+02 -0.21862837069E+02 -0.13483702884E+02  0.59301991725E+02  0.50000086988E+02 0.  0.
         12    1    1    2    0    0  0.18892422701E+02  0.21862837069E+02  0.13483702884E+02  0.31886008275E+02  0.00000000000E+00 0. -1.
         11    1    3    3    0    0 -0.16323945376E+02 -0.47129642014E+01 -0.22469501445E+02  0.28170227540E+02  0.51100000000E-03 0. -1.
        -11    1    3    3    0    0 -0.10138378268E+02  0.95393478791E+00  0.29575143005E+01  0.10603942502E+02  0.51100000000E-03 0.  1.
         12    1    3    3    0    0  0.75699009428E+01 -0.18103807656E+02  0.60282842603E+01  0.20527821683E+02  0.00000000000E+00 0. -1.
</event>
<event>
 7    1  0.6672802E-013  0.5930194E+02  0.7816164E-02  0.1266605E+00
        -11   -1    0    0    0    0  0.00000000000E+00  0.00000000000E+00  0.45593999997E+02  0.45594000000E+02  0.51100000000E-03 0.  1.
         11   -1    0    0    0    0 -0.00000000000E+00 -0.00000000000E+00 -0.45593999997E+02  0.45594000000E+02  0.51100000000E-03 0. -1.
    9900012    2    1    2    0    0 -0.12861702765E+02 -0.21361203305E+02  0.19874520572E+02  0.59301937643E+02  0.49999988356E+02 0.  0.
         12    1    1    2    0    0  0.12861702765E+02  0.21361203305E+02 -0.19874520572E+02  0.31886062357E+02  0.00000000000E+00 0. -1.
         11    1    3    3    0    0 -0.24020307035E+01  0.79504285626E+01  0.30653768130E+01  0.88529995536E+01  0.51100000000E-03 0. -1.
        -11    1    3    3    0    0  0.90465301860E+01 -0.12890383700E+02  0.19207839979E+02  0.24838333625E+02  0.51100000000E-03 0.  1.
        -12    1    3    3    0    0 -0.19506202247E+02 -0.16421248168E+02 -0.23986962196E+01  0.25610604465E+02  0.00000000000E+00 0.  1.
</event>
<event>
 7    1  0.6672802E-013  0.5930195E+02  0.7816164E-02  0.1266605E+00
        -11   -1    0    0    0    0  0.00000000000E+00  0.00000000000E+00  0.45593999997E+02  0.45594000000E+02  0.51100000000E-03 0. -1.
         11   -1    0    0    0    0 -0.00000000000E+00 -0.00000000000E+00 -0.45593999997E+02  0.45594000000E+02  0.51100000000E-03 0.  1.
    9900012    2    1    2    0    0  0.25323246940E+02  0.19336002628E+02 -0.12540464043E+01  0.59301945594E+02  0.50000002856E+02 0.  0.
         12    1    1    2    0    0 -0.25323246940E+02 -0.19336002628E+02  0.12540464043E+01  0.31886054406E+02  0.00000000000E+00 0. -1.
         11    1    3    3    0    0  0.14995285264E+02  0.16837020911E+02 -0.13393875182E+02  0.26224792582E+02  0.51100000000E-03 0. -1.
        -11    1    3    3    0    0  0.16070500034E+02  0.28677846322E+01 -0.32517289844E+01  0.16645086413E+02  0.51100000000E-03 0.  1.
         12    1    3    3    0    0 -0.57425383576E+01 -0.36880291466E+00  0.15391557762E+02  0.16432066600E+02  0.00000000000E+00 0. -1.
</event>
<event>
 7    1  0.6672802E-013  0.5930196E+02  0.7816164E-02  0.1266605E+00
        -11   -1    0    0    0    0  0.00000000000E+00  0.00000000000E+00  0.45593999997E+02  0.45594000000E+02  0.51100000000E-03 0. -1.
         11   -1    0    0    0    0 -0.00000000000E+00 -0.00000000000E+00 -0.45593999997E+02  0.45594000000E+02  0.51100000000E-03 0.  1.
    9900012    2    1    2    0    0  0.14785848599E+02 -0.27632421647E+02 -0.58777164333E+01  0.59301959240E+02  0.50000027744E+02 0.  0.
         12    1    1    2    0    0 -0.14785848599E+02  0.27632421647E+02  0.58777164333E+01  0.31886040760E+02  0.00000000000E+00 0. -1.
         11    1    3    3    0    0  0.33737944724E+01  0.22282330874E+01 -0.65632050212E+01  0.77086426980E+01  0.51100000000E-03 0. -1.
        -11    1    3    3    0    0  0.61897939663E+01 -0.27270297794E+02 -0.17167171656E+02  0.32813022933E+02  0.51100000000E-03 0.  1.
         12    1    3    3    0    0  0.52222601608E+01 -0.25903569403E+01  0.17852660244E+02  0.18780293609E+02  0.00000000000E+00 0. -1.
</event>
<event>
 7    1  0.8040172E-013  0.5930195E+02  0.7816164E-02  0.1266605E+00
        -11   -1    0    0    0    0  0.00000000000E+00  0.00000000000E+00  0.45593999997E+02  0.45594000000E+02  0.51100000000E-03 0. -1.
         11   -1    0    0    0    0 -0.00000000000E+00 -0.00000000000E+00 -0.45593999997E+02  0.45594000000E+02  0.51100000000E-03 0.  1.
    9900012    2    1    2    0    0  0.14553456640E+02  0.17483849039E+02 -0.22343501144E+02  0.59301951001E+02  0.50000012718E+02 0.  0.
         12    1    1    2    0    0 -0.14553456640E+02 -0.17483849039E+02  0.22343501144E+02  0.31886048999E+02  0.00000000000E+00 0. -1.
         11    1    3    3    0    0  0.83671958339E+01 -0.15254088096E+01 -0.23136112032E+02  0.24649878669E+02  0.51100000000E-03 0. -1.
        -11    1    3    3    0    0 -0.57858017850E+01  0.31719304032E+01 -0.10056495988E+02  0.12027874151E+02  0.51100000000E-03 0.  1.
         12    1    3    3    0    0  0.11972062591E+02  0.15837327446E+02  0.10849106877E+02  0.22624198181E+02  0.00000000000E+00 0. -1.
</event>
<event>
 7    1  0.6672802E-013  0.5930187E+02  0.7816164E-02  0.1266605E+00
        -11   -1    0    0    0    0  0.00000000000E+00  0.00000000000E+00  0.45593999997E+02  0.45594000000E+02  0.51100000000E-03 0. -1.
         11   -1    0    0    0    0 -0.00000000000E+00 -0.00000000000E+00 -0.45593999997E+02  0.45594000000E+02  0.51100000000E-03 0.  1.
    9900012    2    1    2    0    0 -0.17182745836E+02 -0.14992872475E+02  0.22286601581E+02  0.59301865246E+02  0.49999856321E+02 0.  0.
         12    1    1    2    0    0  0.17182745836E+02  0.14992872475E+02 -0.22286601581E+02  0.31886134754E+02  0.00000000000E+00 0. -1.
         11    1    3    3    0    0 -0.70188764809E+01 -0.21345465853E+02  0.14952150899E+02  0.26990004748E+02  0.51100000000E-03 0. -1.
        -11    1    3    3    0    0 -0.29553210168E+01 -0.11632089817E+02  0.40055175868E+01  0.12652415075E+02  0.51100000000E-03 0.  1.
         12    1    3    3    0    0 -0.72085483385E+01  0.17984683195E+02  0.33289330954E+01  0.19659445423E+02  0.00000000000E+00 0. -1.
</event>
<event>
 7    1  0.6672802E-013  0.5930194E+02  0.7816164E-02  0.1266605E+00
        -11   -1    0    0    0    0  0.00000000000E+00  0.00000000000E+00  0.45593999997E+02  0.45594000000E+02  0.51100000000E-03 0. -1.
         11   -1    0    0    0    0 -0.00000000000E+00 -0.00000000000E+00 -0.45593999997E+02  0.45594000000E+02  0.51100000000E-03 0.  1.
    9900012    2    1    2    0    0  0.23525168844E+02 -0.95316346079E+01  0.19298587753E+02  0.59301935384E+02  0.49999984235E+02 0.  0.
         12    1    1    2    0    0 -0.23525168844E+02  0.95316346079E+01 -0.19298587753E+02  0.31886064616E+02  0.00000000000E+00 0. -1.
         11    1    3    3    0    0  0.20962577315E+02 -0.11603078186E+02  0.55037184448E+01  0.24583571507E+02  0.51100000000E-03 0. -1.
        -11    1    3    3    0    0  0.46817849146E+01  0.12482647971E+02 -0.40645061398E+01  0.13937568682E+02  0.51100000000E-03 0.  1.
         12    1    3    3    0    0 -0.21191933854E+01 -0.10411204393E+02  0.17859375448E+02  0.20780795194E+02  0.00000000000E+00 0. -1.
</event>
<event>
 7    1  0.6672802E-013  0.5930196E+02  0.7816164E-02  0.1266605E+00
        -11   -1    0    0    0    0  0.00000000000E+00  0.00000000000E+00  0.45593999997E+02  0.45594000000E+02  0.51100000000E-03 0.  1.
         11   -1    0    0    0    0 -0.00000000000E+00 -0.00000000000E+00 -0.45593999997E+02  0.45594000000E+02  0.51100000000E-03 0. -1.
    9900012    2    1    2    0    0  0.70892739818E+01  0.34005268356E+01  0.30901431302E+02  0.59301955328E+02  0.50000020608E+02 0.  0.
         12    1    1    2    0    0 -0.70892739818E+01 -0.34005268356E+01 -0.30901431302E+02  0.31886044672E+02  0.00000000000E+00 0. -1.
         11    1    3    3    0    0 -0.86361891635E+01 -0.19726415294E+01  0.68726484038E+01  0.11211974590E+02  0.51100000000E-03 0. -1.
        -11    1    3    3    0    0 -0.62078958076E+01  0.48274166604E+01 -0.67009400794E+01  0.10331723969E+02  0.51100000000E-03 0.  1.
        -12    1    3    3    0    0  0.21933358953E+02  0.54575170460E+00  0.30729722977E+02  0.37758256768E+02  0.00000000000E+00 0.  1.
</event>
<event>
 7    1  0.6672802E-013  0.5930196E+02  0.7816164E-02  0.1266605E+00
        -11   -1    0    0    0    0  0.00000000000E+00  0.00000000000E+00  0.45593999997E+02  0.45594000000E+02  0.51100000000E-03 0.  1.
         11   -1    0    0    0    0 -0.00000000000E+00 -0.00000000000E+00 -0.45593999997E+02  0.45594000000E+02  0.51100000000E-03 0. -1.
    9900012    2    1    2    0    0  0.30716036258E+02  0.77805393099E+01 -0.35647844435E+01  0.59301962875E+02  0.50000034374E+02 0.  0.
         12    1    1    2    0    0 -0.30716036258E+02 -0.77805393099E+01  0.35647844435E+01  0.31886037125E+02  0.00000000000E+00 0. -1.
         11    1    3    3    0    0  0.17746557344E+02 -0.30909404341E+01 -0.91956095201E+01  0.20225069717E+02  0.51100000000E-03 0. -1.
        -11    1    3    3    0    0 -0.16689689649E+01 -0.92734663615E+01 -0.64306751151E+01  0.11407726262E+02  0.51100000000E-03 0.  1.
        -12    1    3    3    0    0  0.14638447879E+02  0.20144946106E+02  0.12061500192E+02  0.27669166897E+02  0.00000000000E+00 0.  1.
</event>
<event>
 7    1  0.6672802E-013  0.5930195E+02  0.7816164E-02  0.1266605E+00
        -11   -1    0    0    0    0  0.00000000000E+00  0.00000000000E+00  0.45593999997E+02  0.45594000000E+02  0.51100000000E-03 0. -1.
         11   -1    0    0    0    0 -0.00000000000E+00 -0.00000000000E+00 -0.45593999997E+02  0.45594000000E+02  0.51100000000E-03 0.  1.
    9900012    2    1    2    0    0  0.52643078471E+01  0.31301675047E+02 -0.30352310496E+01  0.59301946224E+02  0.50000004006E+02 0.  0.
         12    1    1    2    0    0 -0.52643078471E+01 -0.31301675047E+02  0.30352310496E+01  0.31886053776E+02  0.00000000000E+00 0. -1.
         11    1    3    3    0    0 -0.47004976373E+01  0.10402682621E+02  0.26104941904E+00  0.11418346238E+02  0.51100000000E-03 0. -1.
        -11    1    3    3    0    0  0.65809114971E+01  0.22751477052E+02 -0.19840017686E+02  0.30896025735E+02  0.51100000000E-03 0.  1.
        -12    1    3    3    0    0  0.33838939873E+01 -0.18524846260E+01  0.16543737217E+02  0.16987574251E+02  0.00000000000E+00 0.  1.
</event>
<event>
 7    1  0.6672802E-013  0.5930197E+02  0.7816164E-02  0.1266605E+00
        -11   -1    0    0    0    0  0.00000000000E+00  0.00000000000E+00  0.45593999997E+02  0.45594000000E+02  0.51100000000E-03 0.  1.
         11   -1    0    0    0    0 -0.00000000000E+00 -0.00000000000E+00 -0.45593999997E+02  0.45594000000E+02  0.51100000000E-03 0. -1.
    9900012    2    1    2    0    0  0.22101467441E+02 -0.15047033727E+02  0.17373284200E+02  0.59301967150E+02  0.50000042169E+02 0.  0.
         12    1    1    2    0    0 -0.22101467441E+02  0.15047033727E+02 -0.17373284200E+02  0.31886032850E+02  0.00000000000E+00 0. -1.
         11    1    3    3    0    0  0.13052226514E+02  0.50839359967E+01 -0.19313006079E+01  0.14139906099E+02  0.51100000000E-03 0. -1.
        -11    1    3    3    0    0 -0.11999085609E+02 -0.63433260836E+01  0.13897288471E+02  0.19425510761E+02  0.51100000000E-03 0.  1.
         12    1    3    3    0    0  0.21048326536E+02 -0.13787643640E+02  0.54072963377E+01  0.25736550289E+02  0.00000000000E+00 0. -1.
</event>
<event>
 7    1  0.6672802E-013  0.5930189E+02  0.7816164E-02  0.1266605E+00
        -11   -1    0    0    0    0  0.00000000000E+00  0.00000000000E+00  0.45593999997E+02  0.45594000000E+02  0.51100000000E-03 0.  1.
         11   -1    0    0    0    0 -0.00000000000E+00 -0.00000000000E+00 -0.45593999997E+02  0.45594000000E+02  0.51100000000E-03 0. -1.
    9900012    2    1    2    0    0 -0.31562500163E+02 -0.16730166649E+01  0.42111224012E+01  0.59301890906E+02  0.49999903118E+02 0.  0.
         12    1    1    2    0    0  0.31562500163E+02  0.16730166649E+01 -0.42111224012E+01  0.31886109094E+02  0.00000000000E+00 0. -1.
         11    1    3    3    0    0  0.55909395357E+01 -0.39628045025E+00 -0.11394045329E+02  0.12698027891E+02  0.51100000000E-03 0. -1.
        -11    1    3    3    0    0 -0.28757166500E+02  0.36835799091E+01  0.95890646785E+00  0.29007979728E+02  0.51100000000E-03 0.  1.
         12    1    3    3    0    0 -0.83962731987E+01 -0.49603161237E+01  0.14646261262E+02  0.17595883287E+02  0.00000000000E+00 0. -1.
</event>
<event>
 7    1  0.6672802E-013  0.5930193E+02  0.7816164E-02  0.1266605E+00
        -11   -1    0    0    0    0  0.00000000000E+00  0.00000000000E+00  0.45593999997E+02  0.45594000000E+02  0.51100000000E-03 0.  1.
         11   -1    0    0    0    0 -0.00000000000E+00 -0.00000000000E+00 -0.45593999997E+02  0.45594000000E+02  0.51100000000E-03 0. -1.
    9900012    2    1    2    0    0 -0.11526625753E+02 -0.38837419190E+01  0.29474983108E+02  0.59301934364E+02  0.49999982376E+02 0.  0.
         12    1    1    2    0    0  0.11526625753E+02  0.38837419190E+01 -0.29474983108E+02  0.31886065636E+02  0.00000000000E+00 0. -1.
         11    1    3    3    0    0 -0.60095383675E+01 -0.53494417170E+01 -0.88839237113E+01  0.11985623840E+02  0.51100000000E-03 0. -1.
        -11    1    3    3    0    0  0.10766796606E+01 -0.19656671235E+01 -0.38516524325E+01  0.44562667171E+01  0.51100000000E-03 0.  1.
        -12    1    3    3    0    0 -0.65937670458E+01  0.34313669215E+01  0.42210559251E+02  0.42860043807E+02  0.00000000000E+00 0.  1.
</event>
<event>
 7    1  0.6672802E-013  0.5930194E+02  0.7816164E-02  0.1266605E+00
        -11   -1    0    0    0    0  0.00000000000E+00  0.00000000000E+00  0.45593999997E+02  0.45594000000E+02  0.51100000000E-03 0. -1.
         11   -1    0    0    0    0 -0.00000000000E+00 -0.00000000000E+00 -0.45593999997E+02  0.45594000000E+02  0.51100000000E-03 0.  1.
    9900012    2    1    2    0    0 -0.14764755123E+02  0.27132046263E+02 -0.79104093521E+01  0.59301944986E+02  0.50000001748E+02 0.  0.
         12    1    1    2    0    0  0.14764755123E+02 -0.27132046263E+02  0.79104093521E+01  0.31886055014E+02  0.00000000000E+00 0. -1.
         11    1    3    3    0    0 -0.28312343676E+01  0.47734838551E+01 -0.19510427990E+02  0.20284448151E+02  0.51100000000E-03 0. -1.
        -11    1    3    3    0    0 -0.36460837973E+01 -0.34044771857E+01 -0.51663067049E+01  0.71815818031E+01  0.51100000000E-03 0.  1.
         12    1    3    3    0    0 -0.82874369579E+01  0.25763039593E+02  0.16766325343E+02  0.31835915032E+02  0.00000000000E+00 0. -1.
</event>
<event>
 7    1  0.6672802E-013  0.5930194E+02  0.7816164E-02  0.1266605E+00
        -11   -1    0    0    0    0  0.00000000000E+00  0.00000000000E+00  0.45593999997E+02  0.45594000000E+02  0.51100000000E-03 0.  1.
         11   -1    0    0    0    0 -0.00000000000E+00 -0.00000000000E+00 -0.45593999997E+02  0.45594000000E+02  0.51100000000E-03 0. -1.
    9900012    2    1    2    0    0  0.84461103485E+01 -0.15760965386E+02  0.26400308772E+02  0.59301935439E+02  0.49999984336E+02 0.  0.
         12    1    1    2    0    0 -0.84461103485E+01  0.15760965386E+02 -0.26400308772E+02  0.31886064561E+02  0.00000000000E+00 0. -1.
         11    1    3    3    0    0  0.27004618393E+00  0.37992824218E+01  0.16087977746E+02  0.16532710005E+02  0.51100000000E-03 0. -1.
        -11    1    3    3    0    0  0.13942616145E+02 -0.10822750420E+02  0.21253213942E+02  0.27626573707E+02  0.51100000000E-03 0.  1.
         12    1    3    3    0    0 -0.57665519809E+01 -0.87374973880E+01 -0.10940882917E+02  0.15142651728E+02  0.00000000000E+00 0. -1.
</event>
<event>
 7    1  0.6672802E-013  0.5930195E+02  0.7816164E-02  0.1266605E+00
        -11   -1    0    0    0    0  0.00000000000E+00  0.00000000000E+00  0.45593999997E+02  0.45594000000E+02  0.51100000000E-03 0. -1.
         11   -1    0    0    0    0 -0.00000000000E+00 -0.00000000000E+00 -0.45593999997E+02  0.45594000000E+02  0.51100000000E-03 0.  1.
    9900012    2    1    2    0    0 -0.10267148714E+02 -0.28991948379E+01 -0.30048304558E+02  0.59301948500E+02  0.50000008157E+02 0.  0.
         12    1    1    2    0    0  0.10267148714E+02  0.28991948379E+01  0.30048304558E+02  0.31886051500E+02  0.00000000000E+00 0. -1.
         11    1    3    3    0    0 -0.10130631958E+02 -0.12398397488E+01 -0.35056944485E+02  0.36512412456E+02  0.51100000000E-03 0. -1.
        -11    1    3    3    0    0 -0.49823765388E+01 -0.38746946128E+01 -0.71364059063E+01  0.95270994451E+01  0.51100000000E-03 0.  1.
         12    1    3    3    0    0  0.48458597825E+01  0.22153395238E+01  0.12145045833E+02  0.13262436599E+02  0.00000000000E+00 0. -1.
</event>
<event>
 7    1  0.6672802E-013  0.5930194E+02  0.7816164E-02  0.1266605E+00
        -11   -1    0    0    0    0  0.00000000000E+00  0.00000000000E+00  0.45593999997E+02  0.45594000000E+02  0.51100000000E-03 0. -1.
         11   -1    0    0    0    0 -0.00000000000E+00 -0.00000000000E+00 -0.45593999997E+02  0.45594000000E+02  0.51100000000E-03 0.  1.
    9900012    2    1    2    0    0 -0.91788454621E+01 -0.15528028952E+02 -0.26293538994E+02  0.59301935960E+02  0.49999985287E+02 0.  0.
         12    1    1    2    0    0  0.91788454621E+01  0.15528028952E+02  0.26293538994E+02  0.31886064040E+02  0.00000000000E+00 0. -1.
         11    1    3    3    0    0  0.13025116084E+01 -0.13188685930E+02  0.25860035346E+00  0.13255370514E+02  0.51100000000E-03 0. -1.
        -11    1    3    3    0    0 -0.59603084774E+01 -0.11206498696E+02 -0.32193789887E+02  0.34605649794E+02  0.51100000000E-03 0.  1.
         12    1    3    3    0    0 -0.45210485930E+01  0.88671556745E+01  0.56416505395E+01  0.11440915652E+02  0.00000000000E+00 0. -1.
</event>
<event>
 7    1  0.6672802E-013  0.5930193E+02  0.7816164E-02  0.1266605E+00
        -11   -1    0    0    0    0  0.00000000000E+00  0.00000000000E+00  0.45593999997E+02  0.45594000000E+02  0.51100000000E-03 0.  1.
         11   -1    0    0    0    0 -0.00000000000E+00 -0.00000000000E+00 -0.45593999997E+02  0.45594000000E+02  0.51100000000E-03 0. -1.
    9900012    2    1    2    0    0 -0.30468698286E+02 -0.94007949981E+01  0.68613127218E-01  0.59301933614E+02  0.49999981007E+02 0.  0.
         12    1    1    2    0    0  0.30468698286E+02  0.94007949981E+01 -0.68613127218E-01  0.31886066386E+02  0.00000000000E+00 0. -1.
         11    1    3    3    0    0  0.22023912953E+01  0.26126562324E+01  0.94363665752E+00  0.35449894794E+01  0.51100000000E-03 0. -1.
        -11    1    3    3    0    0 -0.19009574608E+02  0.13272738806E+02  0.97005609496E+01  0.25132258258E+02  0.51100000000E-03 0.  1.
         12    1    3    3    0    0 -0.13661514974E+02 -0.25286190036E+02 -0.10575584480E+02  0.30624685876E+02  0.00000000000E+00 0. -1.
</event>
<event>
 7    1  0.6672802E-013  0.5930189E+02  0.7816164E-02  0.1266605E+00
        -11   -1    0    0    0    0  0.00000000000E+00  0.00000000000E+00  0.45593999997E+02  0.45594000000E+02  0.51100000000E-03 0. -1.
         11   -1    0    0    0    0 -0.00000000000E+00 -0.00000000000E+00 -0.45593999997E+02  0.45594000000E+02  0.51100000000E-03 0.  1.
    9900012    2    1    2    0    0 -0.21553948899E+02 -0.75207337753E+00 -0.23485865001E+02  0.59301887312E+02  0.49999896564E+02 0.  0.
         12    1    1    2    0    0  0.21553948899E+02  0.75207337753E+00  0.23485865001E+02  0.31886112688E+02  0.00000000000E+00 0. -1.
         11    1    3    3    0    0  0.13434956554E+02 -0.68272528146E+01 -0.63261824373E+01  0.16344112797E+02  0.51100000000E-03 0. -1.
        -11    1    3    3    0    0 -0.94312407780E+00  0.96184199150E+00 -0.69052677890E+01  0.70354350642E+01  0.51100000000E-03 0.  1.
        -12    1    3    3    0    0 -0.34045781375E+02  0.51133374456E+01 -0.10254414775E+02  0.35922339451E+02  0.00000000000E+00 0.  1.
</event>
<event>
 7    1  0.6672802E-013  0.5930191E+02  0.7816164E-02  0.1266605E+00
        -11   -1    0    0    0    0  0.00000000000E+00  0.00000000000E+00  0.45593999997E+02  0.45594000000E+02  0.51100000000E-03 0.  1.
         11   -1    0    0    0    0 -0.00000000000E+00 -0.00000000000E+00 -0.45593999997E+02  0.45594000000E+02  0.51100000000E-03 0. -1.
    9900012    2    1    2    0    0 -0.67730610227E+01  0.25822065869E+02  0.17437575975E+02  0.59301913736E+02  0.49999944755E+02 0.  0.
         12    1    1    2    0    0  0.67730610227E+01 -0.25822065869E+02 -0.17437575975E+02  0.31886086264E+02  0.00000000000E+00 0. -1.
         11    1    3    3    0    0  0.31279489175E+01  0.20942544603E+02 -0.73274785812E+01  0.22406833367E+02  0.51100000000E-03 0. -1.
        -11    1    3    3    0    0 -0.45253985013E+01  0.15067325375E+02  0.15818560735E+02  0.22309872020E+02  0.51100000000E-03 0.  1.
         12    1    3    3    0    0 -0.53756114389E+01 -0.10187804109E+02  0.89464938212E+01  0.14585208350E+02  0.00000000000E+00 0. -1.
</event>
<event>
 7    1  0.7136869E-013  0.5930198E+02  0.7816164E-02  0.1266605E+00
        -11   -1    0    0    0    0  0.00000000000E+00  0.00000000000E+00  0.45593999997E+02  0.45594000000E+02  0.51100000000E-03 0. -1.
         11   -1    0    0    0    0 -0.00000000000E+00 -0.00000000000E+00 -0.45593999997E+02  0.45594000000E+02  0.51100000000E-03 0.  1.
    9900012    2    1    2    0    0  0.18468005763E+02 -0.12384705758E+02 -0.22853230853E+02  0.59301979019E+02  0.50000063816E+02 0.  0.
         12    1    1    2    0    0 -0.18468005763E+02  0.12384705758E+02  0.22853230853E+02  0.31886020981E+02  0.00000000000E+00 0. -1.
         11    1    3    3    0    0 -0.45174465260E+01  0.30849680841E+01 -0.33833931009E+01  0.64320836695E+01  0.51100000000E-03 0. -1.
        -11    1    3    3    0    0  0.27655934405E+01 -0.17495070475E+02 -0.26057745775E+02  0.31507651660E+02  0.51100000000E-03 0.  1.
         12    1    3    3    0    0  0.20219858848E+02  0.20253966330E+01  0.65879080227E+01  0.21362243690E+02  0.00000000000E+00 0. -1.
</event>
<event>
 7    1  0.6672802E-013  0.5930194E+02  0.7816164E-02  0.1266605E+00
        -11   -1    0    0    0    0  0.00000000000E+00  0.00000000000E+00  0.45593999997E+02  0.45594000000E+02  0.51100000000E-03 0.  1.
         11   -1    0    0    0    0 -0.00000000000E+00 -0.00000000000E+00 -0.45593999997E+02  0.45594000000E+02  0.51100000000E-03 0. -1.
    9900012    2    1    2    0    0  0.69827879320E+01  0.90601430558E+01  0.29763655508E+02  0.59301941782E+02  0.49999995904E+02 0.  0.
         12    1    1    2    0    0 -0.69827879320E+01 -0.90601430558E+01 -0.29763655508E+02  0.31886058218E+02  0.00000000000E+00 0. -1.
         11    1    3    3    0    0 -0.13089639773E+01 -0.87751476071E+01 -0.22895086121E+01  0.91628844894E+01  0.51100000000E-03 0. -1.
        -11    1    3    3    0    0 -0.36091998329E+01  0.18651194032E+02  0.36664619419E+01  0.19347772629E+02  0.51100000000E-03 0.  1.
        -12    1    3    3    0    0  0.11900951742E+02 -0.81590336927E+00  0.28386702178E+02  0.30791284664E+02  0.00000000000E+00 0.  1.
</event>
<event>
 7    1  0.6672802E-013  0.5930194E+02  0.7816164E-02  0.1266605E+00
        -11   -1    0    0    0    0  0.00000000000E+00  0.00000000000E+00  0.45593999997E+02  0.45594000000E+02  0.51100000000E-03 0.  1.
         11   -1    0    0    0    0 -0.00000000000E+00 -0.00000000000E+00 -0.45593999997E+02  0.45594000000E+02  0.51100000000E-03 0. -1.
    9900012    2    1    2    0    0  0.20721539155E+01  0.29313328655E+02 -0.12375608630E+02  0.59301941171E+02  0.49999994791E+02 0.  0.
         12    1    1    2    0    0 -0.20721539155E+01 -0.29313328655E+02  0.12375608630E+02  0.31886058829E+02  0.00000000000E+00 0. -1.
         11    1    3    3    0    0  0.13291084676E+02  0.78253091771E-01 -0.11076695871E+01  0.13337390583E+02  0.51100000000E-03 0. -1.
        -11    1    3    3    0    0  0.96803544952E+01  0.67333530138E+01  0.29010252466E+01  0.12143444886E+02  0.51100000000E-03 0.  1.
         12    1    3    3    0    0 -0.20899285255E+02  0.22501722549E+02 -0.14168964289E+02  0.33821105702E+02  0.00000000000E+00 0. -1.
</event>
<event>
 7    1  0.6672802E-013  0.5930190E+02  0.7816164E-02  0.1266605E+00
        -11   -1    0    0    0    0  0.00000000000E+00  0.00000000000E+00  0.45593999997E+02  0.45594000000E+02  0.51100000000E-03 0. -1.
         11   -1    0    0    0    0 -0.00000000000E+00 -0.00000000000E+00 -0.45593999997E+02  0.45594000000E+02  0.51100000000E-03 0.  1.
    9900012    2    1    2    0    0 -0.28299053269E+02 -0.10517392353E+02  0.10260171948E+02  0.59301904500E+02  0.49999927911E+02 0.  0.
         12    1    1    2    0    0  0.28299053269E+02  0.10517392353E+02 -0.10260171948E+02  0.31886095500E+02  0.00000000000E+00 0. -1.
         11    1    3    3    0    0 -0.29257807789E+01 -0.14608546700E+02 -0.44294678738E+01  0.15543166208E+02  0.51100000000E-03 0.  1.
        -11    1    3    3    0    0 -0.55472748468E+01  0.15743908770E+02  0.12099348019E+02  0.20616428991E+02  0.51100000000E-03 0. -1.
         12    1    3    3    0    0 -0.19825997643E+02 -0.11652754423E+02  0.25902918022E+01  0.23142309302E+02  0.00000000000E+00 0. -1.
</event>
<event>
 7    1  0.6672802E-013  0.5930199E+02  0.7816164E-02  0.1266605E+00
        -11   -1    0    0    0    0  0.00000000000E+00  0.00000000000E+00  0.45593999997E+02  0.45594000000E+02  0.51100000000E-03 0. -1.
         11   -1    0    0    0    0 -0.00000000000E+00 -0.00000000000E+00 -0.45593999997E+02  0.45594000000E+02  0.51100000000E-03 0.  1.
    9900012    2    1    2    0    0 -0.86708747366E+01 -0.12629153373E+01 -0.30658414184E+02  0.59301993914E+02  0.50000090981E+02 0.  0.
         12    1    1    2    0    0  0.86708747366E+01  0.12629153373E+01  0.30658414184E+02  0.31886006086E+02  0.00000000000E+00 0. -1.
         11    1    3    3    0    0 -0.20519190000E+02  0.26761484681E+01 -0.39145018435E+01  0.21059968040E+02  0.51100000000E-03 0. -1.
        -11    1    3    3    0    0 -0.45662306768E+01  0.46155037417E+01 -0.10528103273E+01  0.65773662836E+01  0.51100000000E-03 0.  1.
        -12    1    3    3    0    0  0.16414545941E+02 -0.85545675470E+01 -0.25691102013E+02  0.31664659591E+02  0.00000000000E+00 0.  1.
</event>
<event>
 7    1  0.6672802E-013  0.5930212E+02  0.7816164E-02  0.1266604E+00
        -11   -1    0    0    0    0  0.00000000000E+00  0.00000000000E+00  0.45593999997E+02  0.45594000000E+02  0.51100000000E-03 0.  1.
         11   -1    0    0    0    0 -0.00000000000E+00 -0.00000000000E+00 -0.45593999997E+02  0.45594000000E+02  0.51100000000E-03 0. -1.
    9900012    2    1    2    0    0 -0.26559613636E+01 -0.29530582218E+02  0.11730295687E+02  0.59302121405E+02  0.50000323492E+02 0.  0.
         12    1    1    2    0    0  0.26559613636E+01  0.29530582218E+02 -0.11730295687E+02  0.31885878595E+02  0.00000000000E+00 0. -1.
         11    1    3    3    0    0 -0.16144747043E+02 -0.19025710988E+02  0.12733689331E+02  0.28013878345E+02  0.51100000000E-03 0.  1.
        -11    1    3    3    0    0  0.23053361286E+01  0.61871262495E+01 -0.76686449236E+01  0.10119447669E+02  0.51100000000E-03 0. -1.
        -12    1    3    3    0    0  0.11183449551E+02 -0.16691997479E+02  0.66652512797E+01  0.21168795391E+02  0.00000000000E+00 0.  1.
</event>
<event>
 7    1  0.6672802E-013  0.5930196E+02  0.7816164E-02  0.1266605E+00
        -11   -1    0    0    0    0  0.00000000000E+00  0.00000000000E+00  0.45593999997E+02  0.45594000000E+02  0.51100000000E-03 0.  1.
         11   -1    0    0    0    0 -0.00000000000E+00 -0.00000000000E+00 -0.45593999997E+02  0.45594000000E+02  0.51100000000E-03 0. -1.
    9900012    2    1    2    0    0  0.15304226241E+02  0.26677810074E+02  0.84139576689E+01  0.59301959562E+02  0.50000028330E+02 0.  0.
         12    1    1    2    0    0 -0.15304226241E+02 -0.26677810074E+02 -0.84139576689E+01  0.31886040438E+02  0.00000000000E+00 0. -1.
         11    1    3    3    0    0  0.15174245746E+02  0.24664752757E+02  0.33228944523E+01  0.29148745947E+02  0.51100000000E-03 0. -1.
        -11    1    3    3    0    0 -0.51952000951E+01  0.14209224896E+02  0.70686398388E+01  0.16699037266E+02  0.51100000000E-03 0.  1.
         12    1    3    3    0    0  0.53251805902E+01 -0.12196167578E+02 -0.19775766222E+01  0.13454176348E+02  0.00000000000E+00 0. -1.
</event>
<event>
 7    1  0.6672802E-013  0.5930199E+02  0.7816164E-02  0.1266605E+00
        -11   -1    0    0    0    0  0.00000000000E+00  0.00000000000E+00  0.45593999997E+02  0.45594000000E+02  0.51100000000E-03 0.  1.
         11   -1    0    0    0    0 -0.00000000000E+00 -0.00000000000E+00 -0.45593999997E+02  0.45594000000E+02  0.51100000000E-03 0. -1.
    9900012    2    1    2    0    0 -0.80197271432E+01 -0.26811790882E+01  0.30744309569E+02  0.59301994988E+02  0.50000092939E+02 0.  0.
         12    1    1    2    0    0  0.80197271432E+01  0.26811790882E+01 -0.30744309569E+02  0.31886005012E+02  0.00000000000E+00 0. -1.
         11    1    3    3    0    0  0.37325075653E+01 -0.33084467722E+01  0.40481208167E+01  0.64237617622E+01  0.51100000000E-03 0.  1.
        -11    1    3    3    0    0  0.34456143961E+01 -0.13531428514E+02  0.28794318224E+02  0.32001321511E+02  0.51100000000E-03 0. -1.
         12    1    3    3    0    0 -0.15197849105E+02  0.14158696198E+02 -0.20981294721E+01  0.20876911714E+02  0.00000000000E+00 0. -1.
</event>
<event>
 7    1  0.6672802E-013  0.5930193E+02  0.7816164E-02  0.1266605E+00
        -11   -1    0    0    0    0  0.00000000000E+00  0.00000000000E+00  0.45593999997E+02  0.45594000000E+02  0.51100000000E-03 0. -1.
         11   -1    0    0    0    0 -0.00000000000E+00 -0.00000000000E+00 -0.45593999997E+02  0.45594000000E+02  0.51100000000E-03 0.  1.
    9900012    2    1    2    0    0 -0.54571207900E+00 -0.11355370713E+02 -0.29790592993E+02  0.59301926605E+02  0.49999968225E+02 0.  0.
         12    1    1    2    0    0  0.54571207900E+00  0.11355370713E+02  0.29790592993E+02  0.31886073395E+02  0.00000000000E+00 0. -1.
         11    1    3    3    0    0 -0.15935000851E+02  0.83451301128E+01 -0.65069272369E+01  0.19128657848E+02  0.51100000000E-03 0. -1.
        -11    1    3    3    0    0  0.15812945044E+01 -0.17169548433E+02 -0.68322138437E+01  0.18546509967E+02  0.51100000000E-03 0.  1.
         12    1    3    3    0    0  0.13807994268E+02 -0.25309523930E+01 -0.16451451912E+02  0.21626758789E+02  0.00000000000E+00 0. -1.
</event>
<event>
 7    1  0.6672802E-013  0.5930196E+02  0.7816164E-02  0.1266605E+00
        -11   -1    0    0    0    0  0.00000000000E+00  0.00000000000E+00  0.45593999997E+02  0.45594000000E+02  0.51100000000E-03 0.  1.
         11   -1    0    0    0    0 -0.00000000000E+00 -0.00000000000E+00 -0.45593999997E+02  0.45594000000E+02  0.51100000000E-03 0. -1.
    9900012    2    1    2    0    0  0.18970266294E+02 -0.21486124700E+02  0.13971224580E+02  0.59301958004E+02  0.50000025490E+02 0.  0.
         12    1    1    2    0    0 -0.18970266294E+02  0.21486124700E+02 -0.13971224580E+02  0.31886041996E+02  0.00000000000E+00 0. -1.
         11    1    3    3    0    0 -0.22251259483E+01  0.46511054836E+01 -0.33943281398E+01  0.61729597023E+01  0.51100000000E-03 0. -1.
        -11    1    3    3    0    0 -0.47408277803E+01 -0.15220022734E+02  0.19168547623E+02  0.24931060112E+02  0.51100000000E-03 0.  1.
         12    1    3    3    0    0  0.25936220023E+02 -0.10917207449E+02 -0.18029949029E+01  0.28197938190E+02  0.00000000000E+00 0. -1.
</event>
<event>
 7    1  0.6672802E-013  0.5930189E+02  0.7816164E-02  0.1266605E+00
        -11   -1    0    0    0    0  0.00000000000E+00  0.00000000000E+00  0.45593999997E+02  0.45594000000E+02  0.51100000000E-03 0. -1.
         11   -1    0    0    0    0 -0.00000000000E+00 -0.00000000000E+00 -0.45593999997E+02  0.45594000000E+02  0.51100000000E-03 0.  1.
    9900012    2    1    2    0    0  0.13702299901E+01  0.61993161978E+01 -0.31247641165E+02  0.59301888134E+02  0.49999898063E+02 0.  0.
         12    1    1    2    0    0 -0.13702299901E+01 -0.61993161978E+01  0.31247641165E+02  0.31886111866E+02  0.00000000000E+00 0. -1.
         11    1    3    3    0    0 -0.45357414378E+01 -0.38210091344E+01  0.82174062212E+01  0.10134042947E+02  0.51100000000E-03 0. -1.
        -11    1    3    3    0    0  0.88734410142E+01  0.57714216685E+00 -0.43570486449E+00  0.89028583894E+01  0.51100000000E-03 0.  1.
        -12    1    3    3    0    0 -0.29674695863E+01  0.94431831653E+01 -0.39029342522E+02  0.40264986797E+02  0.00000000000E+00 0.  1.
</event>
<event>
 7    1  0.6672802E-013  0.5930193E+02  0.7816164E-02  0.1266605E+00
        -11   -1    0    0    0    0  0.00000000000E+00  0.00000000000E+00  0.45593999997E+02  0.45594000000E+02  0.51100000000E-03 0. -1.
         11   -1    0    0    0    0 -0.00000000000E+00 -0.00000000000E+00 -0.45593999997E+02  0.45594000000E+02  0.51100000000E-03 0.  1.
    9900012    2    1    2    0    0 -0.12520314955E+02  0.83551511194E+01 -0.28109686844E+02  0.59301932020E+02  0.49999978101E+02 0.  0.
         12    1    1    2    0    0  0.12520314955E+02 -0.83551511194E+01  0.28109686844E+02  0.31886067980E+02  0.00000000000E+00 0. -1.
         11    1    3    3    0    0  0.15279480714E+02 -0.50911278566E+01 -0.50602913083E+01  0.16881607214E+02  0.51100000000E-03 0. -1.
        -11    1    3    3    0    0 -0.88295853623E+01 -0.35646990449E+01 -0.99423278513E+01  0.13766573296E+02  0.51100000000E-03 0.  1.
        -12    1    3    3    0    0 -0.18970210307E+02  0.17010978021E+02 -0.13107067684E+02  0.28653751510E+02  0.00000000000E+00 0.  1.
</event>
<event>
 7    1  0.6672802E-013  0.5930194E+02  0.7816164E-02  0.1266605E+00
        -11   -1    0    0    0    0  0.00000000000E+00  0.00000000000E+00  0.45593999997E+02  0.45594000000E+02  0.51100000000E-03 0.  1.
         11   -1    0    0    0    0 -0.00000000000E+00 -0.00000000000E+00 -0.45593999997E+02  0.45594000000E+02  0.51100000000E-03 0. -1.
    9900012    2    1    2    0    0 -0.17253199685E+02 -0.26590671817E+02  0.34618236609E+01  0.59301937997E+02  0.49999989001E+02 0.  0.
         12    1    1    2    0    0  0.17253199685E+02  0.26590671817E+02 -0.34618236609E+01  0.31886062003E+02  0.00000000000E+00 0. -1.
         11    1    3    3    0    0  0.37692207326E+01 -0.12689550484E+02 -0.51672272287E+01  0.14210276349E+02  0.51100000000E-03 0. -1.
        -11    1    3    3    0    0 -0.27522880627E+02  0.14767146177E+01  0.52687558748E+01  0.28061529410E+02  0.51100000000E-03 0.  1.
         12    1    3    3    0    0  0.65004602098E+01 -0.15377835951E+02  0.33602950148E+01  0.17030132238E+02  0.00000000000E+00 0. -1.
</event>
<event>
 7    1  0.6672802E-013  0.5930194E+02  0.7816164E-02  0.1266605E+00
        -11   -1    0    0    0    0  0.00000000000E+00  0.00000000000E+00  0.45593999997E+02  0.45594000000E+02  0.51100000000E-03 0.  1.
         11   -1    0    0    0    0 -0.00000000000E+00 -0.00000000000E+00 -0.45593999997E+02  0.45594000000E+02  0.51100000000E-03 0. -1.
    9900012    2    1    2    0    0 -0.30891524240E+02  0.14976093000E+01  0.77583342005E+01  0.59301939518E+02  0.49999991775E+02 0.  0.
         12    1    1    2    0    0  0.30891524240E+02 -0.14976093000E+01 -0.77583342005E+01  0.31886060482E+02  0.00000000000E+00 0. -1.
         11    1    3    3    0    0 -0.94778969205E+00  0.57123524916E+01  0.51178263168E+00  0.58130196982E+01  0.51100000000E-03 0. -1.
        -11    1    3    3    0    0 -0.18812782335E+01  0.17226175526E+02 -0.48995821166E+00  0.17335523942E+02  0.51100000000E-03 0.  1.
         12    1    3    3    0    0 -0.28062456315E+02 -0.21440918717E+02  0.77365097805E+01  0.36153395877E+02  0.00000000000E+00 0. -1.
</event>
<event>
 7    1  0.6672802E-013  0.5930195E+02  0.7816164E-02  0.1266605E+00
        -11   -1    0    0    0    0  0.00000000000E+00  0.00000000000E+00  0.45593999997E+02  0.45594000000E+02  0.51100000000E-03 0.  1.
         11   -1    0    0    0    0 -0.00000000000E+00 -0.00000000000E+00 -0.45593999997E+02  0.45594000000E+02  0.51100000000E-03 0. -1.
    9900012    2    1    2    0    0 -0.26973722519E+02  0.76859967436E+01 -0.15167866892E+02  0.59301946018E+02  0.50000003630E+02 0.  0.
         12    1    1    2    0    0  0.26973722519E+02 -0.76859967436E+01  0.15167866892E+02  0.31886053982E+02  0.00000000000E+00 0. -1.
         11    1    3    3    0    0 -0.10836339037E+02  0.12987728144E+02 -0.74844114893E+00  0.16931257794E+02  0.51100000000E-03 0. -1.
        -11    1    3    3    0    0  0.10589012933E+02  0.38391089326E+01 -0.16938850417E+01  0.11390136043E+02  0.51100000000E-03 0.  1.
        -12    1    3    3    0    0 -0.26726396415E+02 -0.91408403334E+01 -0.12725540701E+02  0.30980552181E+02  0.00000000000E+00 0.  1.
</event>
<event>
 7    1  0.6672802E-013  0.5930192E+02  0.7816164E-02  0.1266605E+00
        -11   -1    0    0    0    0  0.00000000000E+00  0.00000000000E+00  0.45593999997E+02  0.45594000000E+02  0.51100000000E-03 0.  1.
         11   -1    0    0    0    0 -0.00000000000E+00 -0.00000000000E+00 -0.45593999997E+02  0.45594000000E+02  0.51100000000E-03 0. -1.
    9900012    2    1    2    0    0  0.89120561978E+01 -0.40512455547E+01  0.30346087490E+02  0.59301915854E+02  0.49999948617E+02 0.  0.
         12    1    1    2    0    0 -0.89120561978E+01  0.40512455547E+01 -0.30346087490E+02  0.31886084146E+02  0.00000000000E+00 0. -1.
         11    1    3    3    0    0  0.75606394888E+00  0.14737212625E+02 -0.33120475022E+01  0.15123714080E+02  0.51100000000E-03 0. -1.
        -11    1    3    3    0    0 -0.18377490077E+01 -0.16776044832E+02  0.13585326902E+02  0.21665043478E+02  0.51100000000E-03 0.  1.
        -12    1    3    3    0    0  0.99937412566E+01 -0.20124133470E+01  0.20072808091E+02  0.22513158296E+02  0.00000000000E+00 0.  1.
</event>
<event>
 7    1  0.6672802E-013  0.5930197E+02  0.7816164E-02  0.1266605E+00
        -11   -1    0    0    0    0  0.00000000000E+00  0.00000000000E+00  0.45593999997E+02  0.45594000000E+02  0.51100000000E-03 0. -1.
         11   -1    0    0    0    0 -0.00000000000E+00 -0.00000000000E+00 -0.45593999997E+02  0.45594000000E+02  0.51100000000E-03 0.  1.
    9900012    2    1    2    0    0 -0.37434260645E+01  0.10795686826E+02 -0.29768421784E+02  0.59301968132E+02  0.50000043961E+02 0.  0.
         12    1    1    2    0    0  0.37434260645E+01 -0.10795686826E+02  0.29768421784E+02  0.31886031868E+02  0.00000000000E+00 0. -1.
         11    1    3    3    0    0  0.34184290116E+01 -0.48301323679E+01 -0.54847504059E+01  0.80683531700E+01  0.51100000000E-03 0. -1.
        -11    1    3    3    0    0  0.17154220055E+02  0.59398133391E+01 -0.53374711761E+01  0.18921872185E+02  0.51100000000E-03 0.  1.
         12    1    3    3    0    0 -0.24316075131E+02  0.96860058549E+01 -0.18946200202E+02  0.32311742777E+02  0.00000000000E+00 0. -1.
</event>
<event>
 7    1  0.6672802E-013  0.5930194E+02  0.7816164E-02  0.1266605E+00
        -11   -1    0    0    0    0  0.00000000000E+00  0.00000000000E+00  0.45593999997E+02  0.45594000000E+02  0.51100000000E-03 0.  1.
         11   -1    0    0    0    0 -0.00000000000E+00 -0.00000000000E+00 -0.45593999997E+02  0.45594000000E+02  0.51100000000E-03 0. -1.
    9900012    2    1    2    0    0  0.21840320353E+01  0.21186608484E+02  0.23729279158E+02  0.59301936205E+02  0.49999985732E+02 0.  0.
         12    1    1    2    0    0 -0.21840320353E+01 -0.21186608484E+02 -0.23729279158E+02  0.31886063795E+02  0.00000000000E+00 0. -1.
         11    1    3    3    0    0 -0.29241825138E+01  0.15388633156E+02  0.41509340941E+01  0.16204663770E+02  0.51100000000E-03 0.  1.
        -11    1    3    3    0    0  0.14322825457E+02  0.13466961337E+02 -0.55212467321E+00  0.19667415149E+02  0.51100000000E-03 0. -1.
        -12    1    3    3    0    0 -0.92146109078E+01 -0.76689860087E+01  0.20130469737E+02  0.23429857286E+02  0.00000000000E+00 0.  1.
</event>
<event>
 7    1  0.6672802E-013  0.5930197E+02  0.7816164E-02  0.1266605E+00
        -11   -1    0    0    0    0  0.00000000000E+00  0.00000000000E+00  0.45593999997E+02  0.45594000000E+02  0.51100000000E-03 0. -1.
         11   -1    0    0    0    0 -0.00000000000E+00 -0.00000000000E+00 -0.45593999997E+02  0.45594000000E+02  0.51100000000E-03 0.  1.
    9900012    2    1    2    0    0  0.45027143414E+01 -0.52729918406E+01 -0.31122984741E+02  0.59301967657E+02  0.50000043095E+02 0.  0.
         12    1    1    2    0    0 -0.45027143414E+01  0.52729918406E+01  0.31122984741E+02  0.31886032343E+02  0.00000000000E+00 0. -1.
         11    1    3    3    0    0  0.35181156207E+01 -0.35158164826E+01 -0.84434403147E+01  0.97994789489E+01  0.51100000000E-03 0. -1.
        -11    1    3    3    0    0 -0.13953448979E+02  0.10458913893E+02 -0.24552185385E+02  0.30114737683E+02  0.51100000000E-03 0.  1.
         12    1    3    3    0    0  0.14938047700E+02 -0.12216089251E+02  0.18726409592E+01  0.19387751026E+02  0.00000000000E+00 0. -1.
</event>
<event>
 7    1  0.6672802E-013  0.5930196E+02  0.7816164E-02  0.1266605E+00
        -11   -1    0    0    0    0  0.00000000000E+00  0.00000000000E+00  0.45593999997E+02  0.45594000000E+02  0.51100000000E-03 0.  1.
         11   -1    0    0    0    0 -0.00000000000E+00 -0.00000000000E+00 -0.45593999997E+02  0.45594000000E+02  0.51100000000E-03 0. -1.
    9900012    2    1    2    0    0  0.13317700833E+02  0.73177338639E+01  0.28032284864E+02  0.59301962632E+02  0.50000033929E+02 0.  0.
         12    1    1    2    0    0 -0.13317700833E+02 -0.73177338639E+01 -0.28032284864E+02  0.31886037368E+02  0.00000000000E+00 0. -1.
         11    1    3    3    0    0  0.45845937991E+00 -0.13452675726E-01 -0.59573206898E+01  0.59749507145E+01  0.51100000000E-03 0. -1.
        -11    1    3    3    0    0  0.21334373852E+01  0.58584123633E+01 -0.78983114579E+01  0.10062597808E+02  0.51100000000E-03 0.  1.
        -12    1    3    3    0    0  0.10725804068E+02  0.14727741763E+01  0.41887917011E+02  0.43264414109E+02  0.00000000000E+00 0.  1.
</event>
<event>
 7    1  0.6672802E-013  0.5930194E+02  0.7816164E-02  0.1266605E+00
        -11   -1    0    0    0    0  0.00000000000E+00  0.00000000000E+00  0.45593999997E+02  0.45594000000E+02  0.51100000000E-03 0.  1.
         11   -1    0    0    0    0 -0.00000000000E+00 -0.00000000000E+00 -0.45593999997E+02  0.45594000000E+02  0.51100000000E-03 0. -1.
    9900012    2    1    2    0    0  0.72959866770E+01  0.80652046144E+01  0.29974015221E+02  0.59301944498E+02  0.50000000857E+02 0.  0.
         12    1    1    2    0    0 -0.72959866770E+01 -0.80652046144E+01 -0.29974015221E+02  0.31886055502E+02  0.00000000000E+00 0. -1.
         11    1    3    3    0    0  0.37614678069E+01 -0.10228576179E+02 -0.37254494524E+01  0.11517438283E+02  0.51100000000E-03 0. -1.
        -11    1    3    3    0    0 -0.83608990814E+00  0.31821305461E+00 -0.48999918594E+01  0.49809864852E+01  0.51100000000E-03 0.  1.
        -12    1    3    3    0    0  0.43706087783E+01  0.17975567739E+02  0.38599456532E+02  0.42803519729E+02  0.00000000000E+00 0.  1.
</event>
<event>
 7    1  0.6672802E-013  0.5930194E+02  0.7816164E-02  0.1266605E+00
        -11   -1    0    0    0    0  0.00000000000E+00  0.00000000000E+00  0.45593999997E+02  0.45594000000E+02  0.51100000000E-03 0.  1.
         11   -1    0    0    0    0 -0.00000000000E+00 -0.00000000000E+00 -0.45593999997E+02  0.45594000000E+02  0.51100000000E-03 0. -1.
    9900012    2    1    2    0    0  0.17470134404E+02  0.21493008602E+02 -0.15797655071E+02  0.59301938459E+02  0.49999989844E+02 0.  0.
         12    1    1    2    0    0 -0.17470134404E+02 -0.21493008602E+02  0.15797655071E+02  0.31886061541E+02  0.00000000000E+00 0. -1.
         11    1    3    3    0    0  0.57168161892E+01  0.26774639017E+01 -0.71049208737E+01  0.95042464808E+01  0.51100000000E-03 0. -1.
        -11    1    3    3    0    0  0.25614165664E+02  0.17648407114E+02 -0.14989693985E+02  0.34528867377E+02  0.51100000000E-03 0.  1.
         12    1    3    3    0    0 -0.13860847449E+02  0.11671375858E+01  0.62969597872E+01  0.15268824601E+02  0.00000000000E+00 0. -1.
</event>
<event>
 7    1  0.6672802E-013  0.5930168E+02  0.7816164E-02  0.1266606E+00
        -11   -1    0    0    0    0  0.00000000000E+00  0.00000000000E+00  0.45593999997E+02  0.45594000000E+02  0.51100000000E-03 0. -1.
         11   -1    0    0    0    0 -0.00000000000E+00 -0.00000000000E+00 -0.45593999997E+02  0.45594000000E+02  0.51100000000E-03 0.  1.
    9900012    2    1    2    0    0  0.14965610312E+02 -0.23872566918E+02 -0.14928783803E+02  0.59301678025E+02  0.49999514873E+02 0.  0.
         12    1    1    2    0    0 -0.14965610312E+02  0.23872566918E+02  0.14928783803E+02  0.31886321975E+02  0.00000000000E+00 0. -1.
         11    1    3    3    0    0 -0.33843831184E+00 -0.22625480254E+02 -0.65119498220E+01  0.23546388002E+02  0.51100000000E-03 0.  1.
        -11    1    3    3    0    0  0.20797976275E+02 -0.10456387307E+02 -0.22551346040E+01  0.23387549786E+02  0.51100000000E-03 0. -1.
        -12    1    3    3    0    0 -0.54939276510E+01  0.92093006426E+01 -0.61616993766E+01  0.12367740237E+02  0.00000000000E+00 0.  1.
</event>
<event>
 7    1  0.6672802E-013  0.5930197E+02  0.7816164E-02  0.1266605E+00
        -11   -1    0    0    0    0  0.00000000000E+00  0.00000000000E+00  0.45593999997E+02  0.45594000000E+02  0.51100000000E-03 0. -1.
         11   -1    0    0    0    0 -0.00000000000E+00 -0.00000000000E+00 -0.45593999997E+02  0.45594000000E+02  0.51100000000E-03 0.  1.
    9900012    2    1    2    0    0 -0.32044841137E+01 -0.19676731031E+02 -0.24885270232E+02  0.59301966427E+02  0.50000040850E+02 0.  0.
         12    1    1    2    0    0  0.32044841137E+01  0.19676731031E+02  0.24885270232E+02  0.31886033573E+02  0.00000000000E+00 0. -1.
         11    1    3    3    0    0  0.84547337999E+01 -0.19150153411E+02 -0.91176220123E+00  0.20953334099E+02  0.51100000000E-03 0. -1.
        -11    1    3    3    0    0  0.40218903470E+01  0.10168901992E+02 -0.81870904588E+01  0.13660549774E+02  0.51100000000E-03 0.  1.
        -12    1    3    3    0    0 -0.15681108261E+02 -0.10695479612E+02 -0.15786417572E+02  0.24688082554E+02  0.00000000000E+00 0.  1.
</event>
<event>
 7    1  0.6672802E-013  0.5930193E+02  0.7816164E-02  0.1266605E+00
        -11   -1    0    0    0    0  0.00000000000E+00  0.00000000000E+00  0.45593999997E+02  0.45594000000E+02  0.51100000000E-03 0.  1.
         11   -1    0    0    0    0 -0.00000000000E+00 -0.00000000000E+00 -0.45593999997E+02  0.45594000000E+02  0.51100000000E-03 0. -1.
    9900012    2    1    2    0    0 -0.30014529283E+02  0.67199938383E+01 -0.84077854926E+01  0.59301934985E+02  0.49999983508E+02 0.  0.
         12    1    1    2    0    0  0.30014529283E+02 -0.67199938383E+01  0.84077854926E+01  0.31886065015E+02  0.00000000000E+00 0. -1.
         11    1    3    3    0    0 -0.59307138023E+01 -0.26385899013E+01  0.14478956573E+01  0.66507086064E+01  0.51100000000E-03 0.  1.
        -11    1    3    3    0    0 -0.19254801367E+02 -0.10018308619E+02  0.10521027876E+02  0.24120653207E+02  0.51100000000E-03 0. -1.
         12    1    3    3    0    0 -0.48290141133E+01  0.19376892359E+02 -0.20376709026E+02  0.28530573172E+02  0.00000000000E+00 0. -1.
</event>
<event>
 7    1  0.6672802E-013  0.5930200E+02  0.7816164E-02  0.1266605E+00
        -11   -1    0    0    0    0  0.00000000000E+00  0.00000000000E+00  0.45593999997E+02  0.45594000000E+02  0.51100000000E-03 0.  1.
         11   -1    0    0    0    0 -0.00000000000E+00 -0.00000000000E+00 -0.45593999997E+02  0.45594000000E+02  0.51100000000E-03 0. -1.
    9900012    2    1    2    0    0 -0.21995109588E+02 -0.34801415430E+01  0.22821491723E+02  0.59302004400E+02  0.50000110105E+02 0.  0.
         12    1    1    2    0    0  0.21995109588E+02  0.34801415430E+01 -0.22821491723E+02  0.31885995600E+02  0.00000000000E+00 0. -1.
         11    1    3    3    0    0 -0.13940207571E+02  0.14167171036E+02  0.12495534098E+02  0.23477148356E+02  0.51100000000E-03 0. -1.
        -11    1    3    3    0    0  0.94300669008E+01 -0.99228207583E+01  0.95553385229E+01  0.16694101596E+02  0.51100000000E-03 0.  1.
         12    1    3    3    0    0 -0.17484968917E+02 -0.77244918206E+01  0.77061910167E+00  0.19130754448E+02  0.00000000000E+00 0. -1.
</event>
<event>
 7    1  0.6672802E-013  0.5930194E+02  0.7816164E-02  0.1266605E+00
        -11   -1    0    0    0    0  0.00000000000E+00  0.00000000000E+00  0.45593999997E+02  0.45594000000E+02  0.51100000000E-03 0.  1.
         11   -1    0    0    0    0 -0.00000000000E+00 -0.00000000000E+00 -0.45593999997E+02  0.45594000000E+02  0.51100000000E-03 0. -1.
    9900012    2    1    2    0    0  0.76146990427E+01  0.17865032856E+02  0.25289872044E+02  0.59301942413E+02  0.49999997054E+02 0.  0.
         12    1    1    2    0    0 -0.76146990427E+01 -0.17865032856E+02 -0.25289872044E+02  0.31886057587E+02  0.00000000000E+00 0. -1.
         11    1    3    3    0    0 -0.10224380584E+01 -0.54647291661E+01 -0.91046401074E+01  0.10667854338E+02  0.51100000000E-03 0. -1.
        -11    1    3    3    0    0 -0.30861717532E+01 -0.37605008583E+01  0.47030469463E+01  0.67664225138E+01  0.51100000000E-03 0.  1.
         12    1    3    3    0    0  0.11723308854E+02  0.27090262880E+02  0.29691465205E+02  0.41867665560E+02  0.00000000000E+00 0. -1.
</event>
<event>
 7    1  0.6672802E-013  0.5930177E+02  0.7816164E-02  0.1266605E+00
        -11   -1    0    0    0    0  0.00000000000E+00  0.00000000000E+00  0.45593999997E+02  0.45594000000E+02  0.51100000000E-03 0.  1.
         11   -1    0    0    0    0 -0.00000000000E+00 -0.00000000000E+00 -0.45593999997E+02  0.45594000000E+02  0.51100000000E-03 0. -1.
    9900012    2    1    2    0    0 -0.18068152302E+02 -0.59231630530E+01  0.25596671953E+02  0.59301770947E+02  0.49999684341E+02 0.  0.
         12    1    1    2    0    0  0.18068152302E+02  0.59231630530E+01 -0.25596671953E+02  0.31886229053E+02  0.00000000000E+00 0. -1.
         11    1    3    3    0    0  0.53763118351E+01  0.17352658707E+02  0.38564305021E+01  0.18571256005E+02  0.51100000000E-03 0. -1.
        -11    1    3    3    0    0 -0.33290849236E+01 -0.79263749400E+01  0.88317477559E+01  0.12325177273E+02  0.51100000000E-03 0.  1.
        -12    1    3    3    0    0 -0.20115379214E+02 -0.15349446820E+02  0.12908493695E+02  0.28405337669E+02  0.00000000000E+00 0.  1.
</event>
<event>
 7    1  0.6672802E-013  0.5930196E+02  0.7816164E-02  0.1266605E+00
        -11   -1    0    0    0    0  0.00000000000E+00  0.00000000000E+00  0.45593999997E+02  0.45594000000E+02  0.51100000000E-03 0.  1.
         11   -1    0    0    0    0 -0.00000000000E+00 -0.00000000000E+00 -0.45593999997E+02  0.45594000000E+02  0.51100000000E-03 0. -1.
    9900012    2    1    2    0    0 -0.93180935082E+01 -0.18508340700E+02  0.24234972666E+02  0.59301961641E+02  0.50000032123E+02 0.  0.
         12    1    1    2    0    0  0.93180935082E+01  0.18508340700E+02 -0.24234972666E+02  0.31886038359E+02  0.00000000000E+00 0. -1.
         11    1    3    3    0    0 -0.46440744489E+00 -0.38893465754E+01 -0.77791098684E+01  0.87096062864E+01  0.51100000000E-03 0. -1.
        -11    1    3    3    0    0 -0.16259500667E+02 -0.13822295688E+02  0.41379048954E+01  0.21738203174E+02  0.51100000000E-03 0.  1.
         12    1    3    3    0    0  0.74058146040E+01 -0.79669843662E+00  0.27876177639E+02  0.28854152181E+02  0.00000000000E+00 0. -1.
</event>
<event>
 7    1  0.6672802E-013  0.5930196E+02  0.7816164E-02  0.1266605E+00
        -11   -1    0    0    0    0  0.00000000000E+00  0.00000000000E+00  0.45593999997E+02  0.45594000000E+02  0.51100000000E-03 0. -1.
         11   -1    0    0    0    0 -0.00000000000E+00 -0.00000000000E+00 -0.45593999997E+02  0.45594000000E+02  0.51100000000E-03 0.  1.
    9900012    2    1    2    0    0 -0.71423179243E+01  0.15767964200E+02 -0.26778315165E+02  0.59301959741E+02  0.50000028658E+02 0.  0.
         12    1    1    2    0    0  0.71423179243E+01 -0.15767964200E+02  0.26778315165E+02  0.31886040259E+02  0.00000000000E+00 0. -1.
         11    1    3    3    0    0 -0.96099208884E+01  0.31989021324E+01  0.65126321353E+01  0.12041508706E+02  0.51100000000E-03 0. -1.
        -11    1    3    3    0    0 -0.17844995528E+01 -0.91822756588E+01 -0.18151899094E+02  0.20420334618E+02  0.51100000000E-03 0.  1.
         12    1    3    3    0    0  0.42521025168E+01  0.21751337726E+02 -0.15139048206E+02  0.26840116417E+02  0.00000000000E+00 0. -1.
</event>
<event>
 7    1  0.6672802E-013  0.5930193E+02  0.7816164E-02  0.1266605E+00
        -11   -1    0    0    0    0  0.00000000000E+00  0.00000000000E+00  0.45593999997E+02  0.45594000000E+02  0.51100000000E-03 0.  1.
         11   -1    0    0    0    0 -0.00000000000E+00 -0.00000000000E+00 -0.45593999997E+02  0.45594000000E+02  0.51100000000E-03 0. -1.
    9900012    2    1    2    0    0  0.19454515072E+02  0.25256520828E+02 -0.59298441832E+00  0.59301927311E+02  0.49999969512E+02 0.  0.
         12    1    1    2    0    0 -0.19454515072E+02 -0.25256520828E+02  0.59298441832E+00  0.31886072689E+02  0.00000000000E+00 0. -1.
         11    1    3    3    0    0  0.96715604630E+01 -0.11444992636E+02  0.36969384592E+01  0.15433544391E+02  0.51100000000E-03 0. -1.
        -11    1    3    3    0    0  0.89787258185E-01  0.84153663727E+01  0.79332610828E+01  0.11565599189E+02  0.51100000000E-03 0.  1.
         12    1    3    3    0    0  0.96931673509E+01  0.28286147092E+02 -0.12223183960E+02  0.32302783730E+02  0.00000000000E+00 0. -1.
</event>
<event>
 7    1  0.6672802E-013  0.5930198E+02  0.7816164E-02  0.1266605E+00
        -11   -1    0    0    0    0  0.00000000000E+00  0.00000000000E+00  0.45593999997E+02  0.45594000000E+02  0.51100000000E-03 0.  1.
         11   -1    0    0    0    0 -0.00000000000E+00 -0.00000000000E+00 -0.45593999997E+02  0.45594000000E+02  0.51100000000E-03 0. -1.
    9900012    2    1    2    0    0  0.59587587885E+01 -0.21327639043E+01  0.31251607912E+02  0.59301976647E+02  0.50000059490E+02 0.  0.
         12    1    1    2    0    0 -0.59587587885E+01  0.21327639043E+01 -0.31251607912E+02  0.31886023353E+02  0.00000000000E+00 0. -1.
         11    1    3    3    0    0  0.16372057383E+01 -0.17768282331E+02  0.77575474245E+01  0.19456922725E+02  0.51100000000E-03 0. -1.
        -11    1    3    3    0    0  0.13493456160E+02  0.26281105341E+01  0.18726095014E+02  0.23230302599E+02  0.51100000000E-03 0.  1.
        -12    1    3    3    0    0 -0.91719031102E+01  0.13007407893E+02  0.47679654735E+01  0.16614751323E+02  0.00000000000E+00 0.  1.
</event>
<event>
 7    1  0.6672802E-013  0.5930209E+02  0.7816164E-02  0.1266604E+00
        -11   -1    0    0    0    0  0.00000000000E+00  0.00000000000E+00  0.45593999997E+02  0.45594000000E+02  0.51100000000E-03 0.  1.
         11   -1    0    0    0    0 -0.00000000000E+00 -0.00000000000E+00 -0.45593999997E+02  0.45594000000E+02  0.51100000000E-03 0. -1.
    9900012    2    1    2    0    0  0.19602393611E+01  0.31468291362E+02  0.47555911220E+01  0.59302085453E+02  0.50000257925E+02 0.  0.
         12    1    1    2    0    0 -0.19602393611E+01 -0.31468291362E+02 -0.47555911220E+01  0.31885914547E+02  0.00000000000E+00 0. -1.
         11    1    3    3    0    0  0.52244804593E+01  0.10295961417E+02 -0.18344411407E+02  0.21675318861E+02  0.51100000000E-03 0. -1.
        -11    1    3    3    0    0  0.62816276309E+01  0.90882162766E+01  0.15738932819E+01  0.11159375480E+02  0.51100000000E-03 0.  1.
         12    1    3    3    0    0 -0.95458687291E+01  0.12084113668E+02  0.21526109247E+02  0.26467391112E+02  0.00000000000E+00 0. -1.
</event>
<event>
 7    1  0.6672802E-013  0.5930202E+02  0.7816164E-02  0.1266605E+00
        -11   -1    0    0    0    0  0.00000000000E+00  0.00000000000E+00  0.45593999997E+02  0.45594000000E+02  0.51100000000E-03 0.  1.
         11   -1    0    0    0    0 -0.00000000000E+00 -0.00000000000E+00 -0.45593999997E+02  0.45594000000E+02  0.51100000000E-03 0. -1.
    9900012    2    1    2    0    0 -0.27774267529E+02  0.52237473260E+00  0.15653530297E+02  0.59302018396E+02  0.50000135629E+02 0.  0.
         12    1    1    2    0    0  0.27774267529E+02 -0.52237473260E+00 -0.15653530297E+02  0.31885981604E+02  0.00000000000E+00 0. -1.
         11    1    3    3    0    0  0.98653637678E+00  0.50688317793E+01  0.53587940570E+01  0.74419744447E+01  0.51100000000E-03 0. -1.
        -11    1    3    3    0    0 -0.36086770582E+02  0.62554280978E+01  0.12342143145E+02  0.38648594922E+02  0.51100000000E-03 0.  1.
         12    1    3    3    0    0  0.73259666766E+01 -0.10801885144E+02 -0.20474069050E+01  0.13211449029E+02  0.00000000000E+00 0. -1.
</event>
<event>
 7    1  0.6672802E-013  0.5930197E+02  0.7816164E-02  0.1266605E+00
        -11   -1    0    0    0    0  0.00000000000E+00  0.00000000000E+00  0.45593999997E+02  0.45594000000E+02  0.51100000000E-03 0.  1.
         11   -1    0    0    0    0 -0.00000000000E+00 -0.00000000000E+00 -0.45593999997E+02  0.45594000000E+02  0.51100000000E-03 0. -1.
    9900012    2    1    2    0    0  0.26969687162E+02  0.86898171638E+01  0.14623345102E+02  0.59301965911E+02  0.50000039910E+02 0.  0.
         12    1    1    2    0    0 -0.26969687162E+02 -0.86898171638E+01 -0.14623345102E+02  0.31886034089E+02  0.00000000000E+00 0. -1.
         11    1    3    3    0    0  0.12900442602E+02 -0.14452939485E+02  0.11727804399E+02  0.22646197812E+02  0.51100000000E-03 0.  1.
        -11    1    3    3    0    0 -0.59536041560E+01  0.10317752009E+02 -0.27305879071E+01  0.12221191412E+02  0.51100000000E-03 0. -1.
        -12    1    3    3    0    0  0.20022848716E+02  0.12825004640E+02  0.56261286105E+01  0.24434576686E+02  0.00000000000E+00 0.  1.
</event>
<event>
 7    1  0.6672802E-013  0.5930193E+02  0.7816164E-02  0.1266605E+00
        -11   -1    0    0    0    0  0.00000000000E+00  0.00000000000E+00  0.45593999997E+02  0.45594000000E+02  0.51100000000E-03 0. -1.
         11   -1    0    0    0    0 -0.00000000000E+00 -0.00000000000E+00 -0.45593999997E+02  0.45594000000E+02  0.51100000000E-03 0.  1.
    9900012    2    1    2    0    0 -0.30153909562E+02 -0.16172965918E+01 -0.10239495370E+02  0.59301934461E+02  0.49999982553E+02 0.  0.
         12    1    1    2    0    0  0.30153909562E+02  0.16172965918E+01  0.10239495370E+02  0.31886065539E+02  0.00000000000E+00 0. -1.
         11    1    3    3    0    0 -0.18072645065E+02 -0.82916476382E+01  0.11896818098E+02  0.23171236508E+02  0.51100000000E-03 0. -1.
        -11    1    3    3    0    0 -0.93395505791E+01 -0.18038159068E+01  0.25812073944E+01  0.98561447188E+01  0.51100000000E-03 0.  1.
        -12    1    3    3    0    0 -0.27417139179E+01  0.84781669532E+01 -0.24717520862E+02  0.26274553234E+02  0.00000000000E+00 0.  1.
</event>
<event>
 7    1  0.6672802E-013  0.5930191E+02  0.7816164E-02  0.1266605E+00
        -11   -1    0    0    0    0  0.00000000000E+00  0.00000000000E+00  0.45593999997E+02  0.45594000000E+02  0.51100000000E-03 0.  1.
         11   -1    0    0    0    0 -0.00000000000E+00 -0.00000000000E+00 -0.45593999997E+02  0.45594000000E+02  0.51100000000E-03 0. -1.
    9900012    2    1    2    0    0 -0.24323694475E+02 -0.33380373816E+01  0.20345465548E+02  0.59301912519E+02  0.49999942536E+02 0.  0.
         12    1    1    2    0    0  0.24323694475E+02  0.33380373816E+01 -0.20345465548E+02  0.31886087481E+02  0.00000000000E+00 0. -1.
         11    1    3    3    0    0  0.84747761074E+01  0.46376292525E+01  0.69628754788E+01  0.11908445337E+02  0.51100000000E-03 0. -1.
        -11    1    3    3    0    0 -0.10944248898E+02  0.85152031921E+01  0.14407157526E+02  0.19996286095E+02  0.51100000000E-03 0.  1.
         12    1    3    3    0    0 -0.21854221684E+02 -0.16490869826E+02 -0.10245674568E+01  0.27397181087E+02  0.00000000000E+00 0. -1.
</event>
<event>
 7    1  0.6672802E-013  0.5930193E+02  0.7816164E-02  0.1266605E+00
        -11   -1    0    0    0    0  0.00000000000E+00  0.00000000000E+00  0.45593999997E+02  0.45594000000E+02  0.51100000000E-03 0.  1.
         11   -1    0    0    0    0 -0.00000000000E+00 -0.00000000000E+00 -0.45593999997E+02  0.45594000000E+02  0.51100000000E-03 0. -1.
    9900012    2    1    2    0    0 -0.14706421834E+01 -0.31835106963E+02  0.10413813293E+01  0.59301932527E+02  0.49999979026E+02 0.  0.
         12    1    1    2    0    0  0.14706421834E+01  0.31835106963E+02 -0.10413813293E+01  0.31886067473E+02  0.00000000000E+00 0. -1.
         11    1    3    3    0    0 -0.30114293563E+01  0.25486431824E+01 -0.29462941389E+01  0.49239149315E+01  0.51100000000E-03 0. -1.
        -11    1    3    3    0    0 -0.14100095435E+02 -0.34049467323E+02  0.90252390344E+01  0.37942507247E+02  0.51100000000E-03 0.  1.
         12    1    3    3    0    0  0.15640882608E+02 -0.33428282252E+00 -0.50375635662E+01  0.16435510349E+02  0.00000000000E+00 0. -1.
</event>
<event>
 7    1  0.6672802E-013  0.5930195E+02  0.7816164E-02  0.1266605E+00
        -11   -1    0    0    0    0  0.00000000000E+00  0.00000000000E+00  0.45593999997E+02  0.45594000000E+02  0.51100000000E-03 0. -1.
         11   -1    0    0    0    0 -0.00000000000E+00 -0.00000000000E+00 -0.45593999997E+02  0.45594000000E+02  0.51100000000E-03 0.  1.
    9900012    2    1    2    0    0  0.99921017235E+00 -0.24298406949E+02 -0.20623029696E+02  0.59301947327E+02  0.50000006018E+02 0.  0.
         12    1    1    2    0    0 -0.99921017235E+00  0.24298406949E+02  0.20623029696E+02  0.31886052673E+02  0.00000000000E+00 0. -1.
         11    1    3    3    0    0  0.70628433095E+01 -0.19566900861E+01 -0.11486941550E+02  0.13625792386E+02  0.51100000000E-03 0. -1.
        -11    1    3    3    0    0  0.66424705533E+01  0.16275438953E+01 -0.16249721293E+02  0.17630222816E+02  0.51100000000E-03 0.  1.
         12    1    3    3    0    0 -0.12706103691E+02 -0.23969260758E+02  0.71136331465E+01  0.28045932126E+02  0.00000000000E+00 0. -1.
</event>
<event>
 7    1  0.6672802E-013  0.5930194E+02  0.7816164E-02  0.1266605E+00
        -11   -1    0    0    0    0  0.00000000000E+00  0.00000000000E+00  0.45593999997E+02  0.45594000000E+02  0.51100000000E-03 0. -1.
         11   -1    0    0    0    0 -0.00000000000E+00 -0.00000000000E+00 -0.45593999997E+02  0.45594000000E+02  0.51100000000E-03 0.  1.
    9900012    2    1    2    0    0 -0.29781529029E+02 -0.53555638304E+00 -0.11379558870E+02  0.59301942670E+02  0.49999997525E+02 0.  0.
         12    1    1    2    0    0  0.29781529029E+02  0.53555638304E+00  0.11379558870E+02  0.31886057330E+02  0.00000000000E+00 0. -1.
         11    1    3    3    0    0  0.43067676260E+01 -0.36599410402E+01 -0.13917066990E+02  0.15020924395E+02  0.51100000000E-03 0. -1.
        -11    1    3    3    0    0 -0.33629235773E+01  0.11757812666E+02  0.17683797382E+01  0.12356479306E+02  0.51100000000E-03 0.  1.
        -12    1    3    3    0    0 -0.30725373078E+02 -0.86334280093E+01  0.76912838183E+00  0.31924538970E+02  0.00000000000E+00 0.  1.
</event>
<event>
 7    1  0.6672802E-013  0.5930190E+02  0.7816164E-02  0.1266605E+00
        -11   -1    0    0    0    0  0.00000000000E+00  0.00000000000E+00  0.45593999997E+02  0.45594000000E+02  0.51100000000E-03 0. -1.
         11   -1    0    0    0    0 -0.00000000000E+00 -0.00000000000E+00 -0.45593999997E+02  0.45594000000E+02  0.51100000000E-03 0.  1.
    9900012    2    1    2    0    0 -0.99190668561E+01  0.27462743915E+02 -0.12811446217E+02  0.59301900445E+02  0.49999920516E+02 0.  0.
         12    1    1    2    0    0  0.99190668561E+01 -0.27462743915E+02  0.12811446217E+02  0.31886099555E+02  0.00000000000E+00 0. -1.
         11    1    3    3    0    0 -0.11848014171E+02 -0.96953109996E+01 -0.14282186802E+02  0.20936937582E+02  0.51100000000E-03 0. -1.
        -11    1    3    3    0    0  0.24567560724E+01  0.19835062604E+01  0.56029697456E-01  0.31580194857E+01  0.51100000000E-03 0.  1.
        -12    1    3    3    0    0 -0.52780875731E+00  0.35174548654E+02  0.14147108876E+01  0.35206943378E+02  0.00000000000E+00 0.  1.
</event>
<event>
 7    1  0.6672802E-013  0.5930195E+02  0.7816164E-02  0.1266605E+00
        -11   -1    0    0    0    0  0.00000000000E+00  0.00000000000E+00  0.45593999997E+02  0.45594000000E+02  0.51100000000E-03 0.  1.
         11   -1    0    0    0    0 -0.00000000000E+00 -0.00000000000E+00 -0.45593999997E+02  0.45594000000E+02  0.51100000000E-03 0. -1.
    9900012    2    1    2    0    0  0.11907904008E+02 -0.53786933354E+01  0.29085938264E+02  0.59301947806E+02  0.50000006890E+02 0.  0.
         12    1    1    2    0    0 -0.11907904008E+02  0.53786933354E+01 -0.29085938264E+02  0.31886052194E+02  0.00000000000E+00 0. -1.
         11    1    3    3    0    0  0.14452442226E+02  0.10710584388E+02  0.14893185843E+02  0.23353729661E+02  0.51100000000E-03 0. -1.
        -11    1    3    3    0    0  0.53380487703E+01 -0.16914923446E+01 -0.71130527753E+01  0.90527029705E+01  0.51100000000E-03 0.  1.
        -12    1    3    3    0    0 -0.78825869888E+01 -0.14397785379E+02  0.21305805196E+02  0.26895515174E+02  0.00000000000E+00 0.  1.
</event>
<event>
 7    1  0.6672802E-013  0.5930203E+02  0.7816164E-02  0.1266604E+00
        -11   -1    0    0    0    0  0.00000000000E+00  0.00000000000E+00  0.45593999997E+02  0.45594000000E+02  0.51100000000E-03 0. -1.
         11   -1    0    0    0    0 -0.00000000000E+00 -0.00000000000E+00 -0.45593999997E+02  0.45594000000E+02  0.51100000000E-03 0.  1.
    9900012    2    1    2    0    0 -0.21190016666E+02 -0.17529142219E+02 -0.16137757971E+02  0.59302033407E+02  0.50000163007E+02 0.  0.
         12    1    1    2    0    0  0.21190016666E+02  0.17529142219E+02  0.16137757971E+02  0.31885966593E+02  0.00000000000E+00 0. -1.
         11    1    3    3    0    0 -0.71511299322E+01 -0.11487471553E+00 -0.15080628163E+02  0.16690632150E+02  0.51100000000E-03 0. -1.
        -11    1    3    3    0    0  0.13436781736E+01 -0.14215266310E+02 -0.15638236158E+02  0.21176253155E+02  0.51100000000E-03 0.  1.
         12    1    3    3    0    0 -0.15382564907E+02 -0.31990011928E+01  0.14581106350E+02  0.21435148102E+02  0.00000000000E+00 0. -1.
</event>
<event>
 7    1  0.6672802E-013  0.5930188E+02  0.7816164E-02  0.1266605E+00
        -11   -1    0    0    0    0  0.00000000000E+00  0.00000000000E+00  0.45593999997E+02  0.45594000000E+02  0.51100000000E-03 0. -1.
         11   -1    0    0    0    0 -0.00000000000E+00 -0.00000000000E+00 -0.45593999997E+02  0.45594000000E+02  0.51100000000E-03 0.  1.
    9900012    2    1    2    0    0  0.26016422391E+02  0.13165721166E+02 -0.12904808800E+02  0.59301881735E+02  0.49999886392E+02 0.  0.
         12    1    1    2    0    0 -0.26016422391E+02 -0.13165721166E+02  0.12904808800E+02  0.31886118265E+02  0.00000000000E+00 0. -1.
         11    1    3    3    0    0  0.20481147456E+01 -0.82758351894E+01  0.60520049340E+01  0.10455189433E+02  0.51100000000E-03 0. -1.
        -11    1    3    3    0    0  0.21811062693E+02 -0.83327530843E+00 -0.47462900919E+01  0.22337056061E+02  0.51100000000E-03 0.  1.
        -12    1    3    3    0    0  0.21572449519E+01  0.22274831664E+02 -0.14210523643E+02  0.26509636241E+02  0.00000000000E+00 0.  1.
</event>
<event>
 7    1  0.6672802E-013  0.5930199E+02  0.7816164E-02  0.1266605E+00
        -11   -1    0    0    0    0  0.00000000000E+00  0.00000000000E+00  0.45593999997E+02  0.45594000000E+02  0.51100000000E-03 0. -1.
         11   -1    0    0    0    0 -0.00000000000E+00 -0.00000000000E+00 -0.45593999997E+02  0.45594000000E+02  0.51100000000E-03 0.  1.
    9900012    2    1    2    0    0  0.45008371319E+01  0.28981188716E+02 -0.12512016868E+02  0.59301993659E+02  0.50000090515E+02 0.  0.
         12    1    1    2    0    0 -0.45008371319E+01 -0.28981188716E+02  0.12512016868E+02  0.31886006341E+02  0.00000000000E+00 0. -1.
         11    1    3    3    0    0 -0.43945258648E+01  0.14234082656E+02  0.12155878588E+02  0.19227229419E+02  0.51100000000E-03 0. -1.
        -11    1    3    3    0    0 -0.36371723928E+01  0.16926300463E+02 -0.79056738429E+01  0.19032297537E+02  0.51100000000E-03 0.  1.
         12    1    3    3    0    0  0.12532535389E+02 -0.21791944023E+01 -0.16762221613E+02  0.21042466703E+02  0.00000000000E+00 0. -1.
</event>
<event>
 7    1  0.6672802E-013  0.5930192E+02  0.7816164E-02  0.1266605E+00
        -11   -1    0    0    0    0  0.00000000000E+00  0.00000000000E+00  0.45593999997E+02  0.45594000000E+02  0.51100000000E-03 0.  1.
         11   -1    0    0    0    0 -0.00000000000E+00 -0.00000000000E+00 -0.45593999997E+02  0.45594000000E+02  0.51100000000E-03 0. -1.
    9900012    2    1    2    0    0  0.30695508061E+02 -0.84526977886E+01 -0.17492280076E+01  0.59301919751E+02  0.49999955725E+02 0.  0.
         12    1    1    2    0    0 -0.30695508061E+02  0.84526977886E+01  0.17492280076E+01  0.31886080249E+02  0.00000000000E+00 0. -1.
         11    1    3    3    0    0  0.67334066420E+01  0.30136778052E+01  0.19753927375E+02  0.21086456932E+02  0.51100000000E-03 0. -1.
        -11    1    3    3    0    0  0.17454584051E+01 -0.14044796755E+01  0.29330842168E+01  0.36908226030E+01  0.51100000000E-03 0.  1.
        -12    1    3    3    0    0  0.22216643014E+02 -0.10061895918E+02 -0.24436239600E+02  0.34524640216E+02  0.00000000000E+00 0.  1.
</event>
<event>
 7    1  0.6672802E-013  0.5930206E+02  0.7816164E-02  0.1266604E+00
        -11   -1    0    0    0    0  0.00000000000E+00  0.00000000000E+00  0.45593999997E+02  0.45594000000E+02  0.51100000000E-03 0. -1.
         11   -1    0    0    0    0 -0.00000000000E+00 -0.00000000000E+00 -0.45593999997E+02  0.45594000000E+02  0.51100000000E-03 0.  1.
    9900012    2    1    2    0    0 -0.31741561868E+02 -0.17712548624E+01 -0.24594818184E+01  0.59302060397E+02  0.50000212228E+02 0.  0.
         12    1    1    2    0    0  0.31741561868E+02  0.17712548624E+01  0.24594818184E+01  0.31885939603E+02  0.00000000000E+00 0. -1.
         11    1    3    3    0    0 -0.11234138208E+02  0.44144084847E+01  0.55574980353E+01  0.13288289891E+02  0.51100000000E-03 0. -1.
        -11    1    3    3    0    0 -0.28533444885E+02 -0.11994607325E+02  0.31185179671E+01  0.31108732479E+02  0.51100000000E-03 0.  1.
        -12    1    3    3    0    0  0.80260212259E+01  0.58089439776E+01 -0.11135497821E+02  0.14905038026E+02  0.00000000000E+00 0.  1.
</event>
<event>
 7    1  0.6672802E-013  0.5930194E+02  0.7816164E-02  0.1266605E+00
        -11   -1    0    0    0    0  0.00000000000E+00  0.00000000000E+00  0.45593999997E+02  0.45594000000E+02  0.51100000000E-03 0.  1.
         11   -1    0    0    0    0 -0.00000000000E+00 -0.00000000000E+00 -0.45593999997E+02  0.45594000000E+02  0.51100000000E-03 0. -1.
    9900012    2    1    2    0    0 -0.19979884458E+02  0.65508334978E+01  0.23971054286E+02  0.59301942764E+02  0.49999997696E+02 0.  0.
         12    1    1    2    0    0  0.19979884458E+02 -0.65508334978E+01 -0.23971054286E+02  0.31886057236E+02  0.00000000000E+00 0. -1.
         11    1    3    3    0    0 -0.74481176434E+01  0.10843781501E+02 -0.17118444752E+01  0.13266215189E+02  0.51100000000E-03 0. -1.
        -11    1    3    3    0    0 -0.13218872791E+02  0.14125709977E+02  0.97103948162E+01  0.21646386487E+02  0.51100000000E-03 0.  1.
         12    1    3    3    0    0  0.68710597610E+00 -0.18418657981E+02  0.15972503945E+02  0.24389341088E+02  0.00000000000E+00 0. -1.
</event>
<event>
 7    1  0.6672802E-013  0.5930193E+02  0.7816164E-02  0.1266605E+00
        -11   -1    0    0    0    0  0.00000000000E+00  0.00000000000E+00  0.45593999997E+02  0.45594000000E+02  0.51100000000E-03 0. -1.
         11   -1    0    0    0    0 -0.00000000000E+00 -0.00000000000E+00 -0.45593999997E+02  0.45594000000E+02  0.51100000000E-03 0.  1.
    9900012    2    1    2    0    0 -0.63320151572E+01  0.19461610022E+02 -0.24451437139E+02  0.59301930020E+02  0.49999974453E+02 0.  0.
         12    1    1    2    0    0  0.63320151572E+01 -0.19461610022E+02  0.24451437139E+02  0.31886069980E+02  0.00000000000E+00 0. -1.
         11    1    3    3    0    0 -0.13273239779E+02  0.10607005495E+02 -0.14336089639E+01  0.17051178690E+02  0.51100000000E-03 0. -1.
        -11    1    3    3    0    0  0.98912880146E+01  0.94565231692E+01  0.46246765579E+01  0.14444758308E+02  0.51100000000E-03 0.  1.
         12    1    3    3    0    0 -0.29500633933E+01 -0.60191864158E+00 -0.27642504733E+02  0.27805993023E+02  0.00000000000E+00 0. -1.
</event>
<event>
 7    1  0.6672802E-013  0.5930194E+02  0.7816164E-02  0.1266605E+00
        -11   -1    0    0    0    0  0.00000000000E+00  0.00000000000E+00  0.45593999997E+02  0.45594000000E+02  0.51100000000E-03 0.  1.
         11   -1    0    0    0    0 -0.00000000000E+00 -0.00000000000E+00 -0.45593999997E+02  0.45594000000E+02  0.51100000000E-03 0. -1.
    9900012    2    1    2    0    0 -0.10710606707E+02  0.11380051455E+02  0.27793845506E+02  0.59301944816E+02  0.50000001438E+02 0.  0.
         12    1    1    2    0    0  0.10710606707E+02 -0.11380051455E+02 -0.27793845506E+02  0.31886055184E+02  0.00000000000E+00 0. -1.
         11    1    3    3    0    0  0.12276415325E+02  0.76079222025E+01  0.58362127291E+01  0.15577298634E+02  0.51100000000E-03 0. -1.
        -11    1    3    3    0    0 -0.33936789448E+01  0.11581130016E+02  0.18882393098E+02  0.22409471181E+02  0.51100000000E-03 0.  1.
         12    1    3    3    0    0 -0.19593343087E+02 -0.78090007635E+01  0.30752396792E+01  0.21315175001E+02  0.00000000000E+00 0. -1.
</event>
<event>
 7    1  0.6672802E-013  0.5930196E+02  0.7816164E-02  0.1266605E+00
        -11   -1    0    0    0    0  0.00000000000E+00  0.00000000000E+00  0.45593999997E+02  0.45594000000E+02  0.51100000000E-03 0. -1.
         11   -1    0    0    0    0 -0.00000000000E+00 -0.00000000000E+00 -0.45593999997E+02  0.45594000000E+02  0.51100000000E-03 0.  1.
    9900012    2    1    2    0    0 -0.26067796995E+02  0.15991397126E+02 -0.90257744187E+01  0.59301961895E+02  0.50000032585E+02 0.  0.
         12    1    1    2    0    0  0.26067796995E+02 -0.15991397126E+02  0.90257744187E+01  0.31886038105E+02  0.00000000000E+00 0. -1.
         11    1    3    3    0    0 -0.89962373163E+01  0.90908480998E+01  0.14768356761E+02  0.19536636525E+02  0.51100000000E-03 0. -1.
        -11    1    3    3    0    0 -0.51812032035E+01 -0.86484842094E+01 -0.16599183839E+01  0.10217459325E+02  0.51100000000E-03 0.  1.
        -12    1    3    3    0    0 -0.11890356475E+02  0.15549033236E+02 -0.22134212796E+02  0.29547866044E+02  0.00000000000E+00 0.  1.
</event>
<event>
 7    1  0.6672802E-013  0.5930194E+02  0.7816164E-02  0.1266605E+00
        -11   -1    0    0    0    0  0.00000000000E+00  0.00000000000E+00  0.45593999997E+02  0.45594000000E+02  0.51100000000E-03 0.  1.
         11   -1    0    0    0    0 -0.00000000000E+00 -0.00000000000E+00 -0.45593999997E+02  0.45594000000E+02  0.51100000000E-03 0. -1.
    9900012    2    1    2    0    0 -0.24885956081E+02 -0.19015590557E+02  0.59847436024E+01  0.59301942697E+02  0.49999997573E+02 0.  0.
         12    1    1    2    0    0  0.24885956081E+02  0.19015590557E+02 -0.59847436024E+01  0.31886057303E+02  0.00000000000E+00 0. -1.
         11    1    3    3    0    0  0.20988234049E+01  0.81394005119E+01  0.34116341883E+01  0.90716122313E+01  0.51100000000E-03 0. -1.
        -11    1    3    3    0    0  0.38435959832E+01  0.30539046505E+01 -0.42979925471E+01  0.65247455040E+01  0.51100000000E-03 0.  1.
        -12    1    3    3    0    0 -0.30828375469E+02 -0.30208895720E+02  0.68711019612E+01  0.43705584962E+02  0.00000000000E+00 0.  1.
</event>
<event>
 7    1  0.6672802E-013  0.5930193E+02  0.7816164E-02  0.1266605E+00
        -11   -1    0    0    0    0  0.00000000000E+00  0.00000000000E+00  0.45593999997E+02  0.45594000000E+02  0.51100000000E-03 0. -1.
         11   -1    0    0    0    0 -0.00000000000E+00 -0.00000000000E+00 -0.45593999997E+02  0.45594000000E+02  0.51100000000E-03 0.  1.
    9900012    2    1    2    0    0  0.29140419189E+02  0.11066359255E+02 -0.67151298041E+01  0.59301932416E+02  0.49999978823E+02 0.  0.
         12    1    1    2    0    0 -0.29140419189E+02 -0.11066359255E+02  0.67151298041E+01  0.31886067584E+02  0.00000000000E+00 0. -1.
         11    1    3    3    0    0 -0.93510900457E+01  0.93737012142E+01 -0.48320632703E+01  0.14094608728E+02  0.51100000000E-03 0. -1.
        -11    1    3    3    0    0  0.51215105918E+01  0.88564143176E+01 -0.40620573480E+01  0.11007554473E+02  0.51100000000E-03 0.  1.
        -12    1    3    3    0    0  0.33369998643E+02 -0.71637562766E+01  0.21789908143E+01  0.34199769215E+02  0.00000000000E+00 0.  1.
</event>
<event>
 7    1  0.6672802E-013  0.5930207E+02  0.7816164E-02  0.1266604E+00
        -11   -1    0    0    0    0  0.00000000000E+00  0.00000000000E+00  0.45593999997E+02  0.45594000000E+02  0.51100000000E-03 0.  1.
         11   -1    0    0    0    0 -0.00000000000E+00 -0.00000000000E+00 -0.45593999997E+02  0.45594000000E+02  0.51100000000E-03 0. -1.
    9900012    2    1    2    0    0 -0.25637838820E+02  0.15612046976E+02  0.10755354992E+02  0.59302071268E+02  0.50000232054E+02 0.  0.
         12    1    1    2    0    0  0.25637838820E+02 -0.15612046976E+02 -0.10755354992E+02  0.31885928732E+02  0.00000000000E+00 0. -1.
         11    1    3    3    0    0 -0.10285451504E+02  0.26041350768E+02  0.97624124104E+01  0.29652102098E+02  0.51100000000E-03 0. -1.
        -11    1    3    3    0    0 -0.54208142266E+01  0.54575212245E+00  0.10659715247E+02  0.11971324140E+02  0.51100000000E-03 0.  1.
         12    1    3    3    0    0 -0.99315730888E+01 -0.10975055914E+02 -0.96667726653E+01  0.17678645030E+02  0.00000000000E+00 0. -1.
</event>
<event>
 7    1  0.6672802E-013  0.5930195E+02  0.7816164E-02  0.1266605E+00
        -11   -1    0    0    0    0  0.00000000000E+00  0.00000000000E+00  0.45593999997E+02  0.45594000000E+02  0.51100000000E-03 0.  1.
         11   -1    0    0    0    0 -0.00000000000E+00 -0.00000000000E+00 -0.45593999997E+02  0.45594000000E+02  0.51100000000E-03 0. -1.
    9900012    2    1    2    0    0 -0.23427529623E+02 -0.21122143246E+01  0.21526949254E+02  0.59301950734E+02  0.50000012231E+02 0.  0.
         12    1    1    2    0    0  0.23427529623E+02  0.21122143246E+01 -0.21526949254E+02  0.31886049266E+02  0.00000000000E+00 0. -1.
         11    1    3    3    0    0  0.10343847351E+01  0.15900666774E+02 -0.26399824881E+01  0.16151491059E+02  0.51100000000E-03 0. -1.
        -11    1    3    3    0    0  0.43306244033E+00  0.28096024222E+01  0.41119233617E+01  0.49989321701E+01  0.51100000000E-03 0.  1.
         12    1    3    3    0    0 -0.24894976799E+02 -0.20822483521E+02  0.20055008380E+02  0.38151527505E+02  0.00000000000E+00 0. -1.
</event>
<event>
 7    1  0.6672802E-013  0.5930194E+02  0.7816164E-02  0.1266605E+00
        -11   -1    0    0    0    0  0.00000000000E+00  0.00000000000E+00  0.45593999997E+02  0.45594000000E+02  0.51100000000E-03 0. -1.
         11   -1    0    0    0    0 -0.00000000000E+00 -0.00000000000E+00 -0.45593999997E+02  0.45594000000E+02  0.51100000000E-03 0.  1.
    9900012    2    1    2    0    0 -0.31329843278E+02 -0.42454258136E+01 -0.41398220153E+01  0.59301939622E+02  0.49999991964E+02 0.  0.
         12    1    1    2    0    0  0.31329843278E+02  0.42454258136E+01  0.41398220153E+01  0.31886060378E+02  0.00000000000E+00 0. -1.
         11    1    3    3    0    0 -0.22012598615E+02  0.12673081665E+02 -0.17859574958E+01  0.25462740252E+02  0.51100000000E-03 0. -1.
        -11    1    3    3    0    0 -0.13052263951E+02  0.23742545581E+01  0.27229607607E+01  0.13543012757E+02  0.51100000000E-03 0.  1.
         12    1    3    3    0    0  0.37350192891E+01 -0.19292762037E+02 -0.50768252802E+01  0.20296186613E+02  0.00000000000E+00 0. -1.
</event>
<event>
 7    1  0.6672802E-013  0.5930194E+02  0.7816164E-02  0.1266605E+00
        -11   -1    0    0    0    0  0.00000000000E+00  0.00000000000E+00  0.45593999997E+02  0.45594000000E+02  0.51100000000E-03 0.  1.
         11   -1    0    0    0    0 -0.00000000000E+00 -0.00000000000E+00 -0.45593999997E+02  0.45594000000E+02  0.51100000000E-03 0. -1.
    9900012    2    1    2    0    0 -0.30158899654E+02 -0.99310030814E+01  0.29217307569E+01  0.59301944096E+02  0.50000000124E+02 0.  0.
         12    1    1    2    0    0  0.30158899654E+02  0.99310030814E+01 -0.29217307569E+01  0.31886055904E+02  0.00000000000E+00 0. -1.
         11    1    3    3    0    0 -0.31417994885E+02 -0.70240719049E+01 -0.58895379167E+01  0.32727887892E+02  0.51100000000E-03 0. -1.
        -11    1    3    3    0    0 -0.81409604130E+01 -0.80789222995E+00  0.13559033396E+02  0.15835886877E+02  0.51100000000E-03 0.  1.
         12    1    3    3    0    0  0.94000556448E+01 -0.20990389465E+01 -0.47477647223E+01  0.10738169326E+02  0.00000000000E+00 0. -1.
</event>
<event>
 7    1  0.6672802E-013  0.5930189E+02  0.7816164E-02  0.1266605E+00
        -11   -1    0    0    0    0  0.00000000000E+00  0.00000000000E+00  0.45593999997E+02  0.45594000000E+02  0.51100000000E-03 0. -1.
         11   -1    0    0    0    0 -0.00000000000E+00 -0.00000000000E+00 -0.45593999997E+02  0.45594000000E+02  0.51100000000E-03 0.  1.
    9900012    2    1    2    0    0  0.19381635039E+02 -0.10958677278E+02 -0.22825065096E+02  0.59301890468E+02  0.49999902320E+02 0.  0.
         12    1    1    2    0    0 -0.19381635039E+02  0.10958677278E+02  0.22825065096E+02  0.31886109532E+02  0.00000000000E+00 0. -1.
         11    1    3    3    0    0 -0.16498259710E+01  0.73902531000E+01 -0.14049449463E+02  0.15960100160E+02  0.51100000000E-03 0. -1.
        -11    1    3    3    0    0  0.15166718023E+02 -0.17960005719E+02 -0.19874344735E+02  0.30782799091E+02  0.51100000000E-03 0.  1.
        -12    1    3    3    0    0  0.58647429874E+01 -0.38892465884E+00  0.11098729102E+02  0.12558991217E+02  0.00000000000E+00 0.  1.
</event>
<event>
 7    1  0.6672802E-013  0.5930195E+02  0.7816164E-02  0.1266605E+00
        -11   -1    0    0    0    0  0.00000000000E+00  0.00000000000E+00  0.45593999997E+02  0.45594000000E+02  0.51100000000E-03 0.  1.
         11   -1    0    0    0    0 -0.00000000000E+00 -0.00000000000E+00 -0.45593999997E+02  0.45594000000E+02  0.51100000000E-03 0. -1.
    9900012    2    1    2    0    0 -0.19794192533E+02  0.21749859643E+01  0.24903404035E+02  0.59301950472E+02  0.50000011753E+02 0.  0.
         12    1    1    2    0    0  0.19794192533E+02 -0.21749859643E+01 -0.24903404035E+02  0.31886049528E+02  0.00000000000E+00 0. -1.
         11    1    3    3    0    0  0.11577329657E+02 -0.42375982738E+01  0.80769016464E+01  0.14738661458E+02  0.51100000000E-03 0. -1.
        -11    1    3    3    0    0  0.30835658901E+01 -0.21645812919E+01  0.66231300027E+01  0.76196877929E+01  0.51100000000E-03 0.  1.
         12    1    3    3    0    0 -0.34455088080E+02  0.85771655301E+01  0.10203372386E+02  0.36943601221E+02  0.00000000000E+00 0. -1.
</event>
<event>
 7    1  0.6672802E-013  0.5930194E+02  0.7816164E-02  0.1266605E+00
        -11   -1    0    0    0    0  0.00000000000E+00  0.00000000000E+00  0.45593999997E+02  0.45594000000E+02  0.51100000000E-03 0.  1.
         11   -1    0    0    0    0 -0.00000000000E+00 -0.00000000000E+00 -0.45593999997E+02  0.45594000000E+02  0.51100000000E-03 0. -1.
    9900012    2    1    2    0    0 -0.14219376950E+02 -0.25028231528E+02  0.13715596461E+02  0.59301942851E+02  0.49999997854E+02 0.  0.
         12    1    1    2    0    0  0.14219376950E+02  0.25028231528E+02 -0.13715596461E+02  0.31886057149E+02  0.00000000000E+00 0. -1.
         11    1    3    3    0    0  0.11529636065E+02 -0.42580948520E+01  0.57655893182E+01  0.13575930908E+02  0.51100000000E-03 0. -1.
        -11    1    3    3    0    0 -0.55683976253E+01 -0.23950098706E+02  0.38370560395E+01  0.24886487889E+02  0.51100000000E-03 0.  1.
         12    1    3    3    0    0 -0.20180615390E+02  0.31799620306E+01  0.41129511031E+01  0.20839524054E+02  0.00000000000E+00 0. -1.
</event>
<event>
 7    1  0.6672802E-013  0.5930194E+02  0.7816164E-02  0.1266605E+00
        -11   -1    0    0    0    0  0.00000000000E+00  0.00000000000E+00  0.45593999997E+02  0.45594000000E+02  0.51100000000E-03 0. -1.
         11   -1    0    0    0    0 -0.00000000000E+00 -0.00000000000E+00 -0.45593999997E+02  0.45594000000E+02  0.51100000000E-03 0.  1.
    9900012    2    1    2    0    0  0.13467789534E+02 -0.95913962545E+01 -0.27264345075E+02  0.59301941143E+02  0.49999994740E+02 0.  0.
         12    1    1    2    0    0 -0.13467789534E+02  0.95913962545E+01  0.27264345075E+02  0.31886058857E+02  0.00000000000E+00 0. -1.
         11    1    3    3    0    0  0.25509457889E+01 -0.10673462728E+02 -0.13446955214E+02  0.17356576155E+02  0.51100000000E-03 0. -1.
        -11    1    3    3    0    0  0.89715374617E+01 -0.16712161626E+02 -0.14739163470E+02  0.24021402347E+02  0.51100000000E-03 0.  1.
         12    1    3    3    0    0  0.19453062833E+01  0.17794228100E+02  0.92177360900E+00  0.17923962642E+02  0.00000000000E+00 0. -1.
</event>
<event>
 7    1  0.6672802E-013  0.5930194E+02  0.7816164E-02  0.1266605E+00
        -11   -1    0    0    0    0  0.00000000000E+00  0.00000000000E+00  0.45593999997E+02  0.45594000000E+02  0.51100000000E-03 0. -1.
         11   -1    0    0    0    0 -0.00000000000E+00 -0.00000000000E+00 -0.45593999997E+02  0.45594000000E+02  0.51100000000E-03 0.  1.
    9900012    2    1    2    0    0 -0.54522793714E+01  0.25010309580E+02 -0.19012563631E+02  0.59301944875E+02  0.50000001545E+02 0.  0.
         12    1    1    2    0    0  0.54522793714E+01 -0.25010309580E+02  0.19012563631E+02  0.31886055125E+02  0.00000000000E+00 0. -1.
         11    1    3    3    0    0 -0.38121299412E+01  0.15323135038E+01  0.52379366256E+01  0.66570488745E+01  0.51100000000E-03 0. -1.
        -11    1    3    3    0    0  0.12657447983E+02 -0.58749206814E+01 -0.55406424309E+01  0.15014140044E+02  0.51100000000E-03 0.  1.
        -12    1    3    3    0    0 -0.14297597413E+02  0.29352916758E+02 -0.18709857826E+02  0.37630755956E+02  0.00000000000E+00 0.  1.
</event>
<event>
 7    1  0.6672802E-013  0.5930192E+02  0.7816164E-02  0.1266605E+00
        -11   -1    0    0    0    0  0.00000000000E+00  0.00000000000E+00  0.45593999997E+02  0.45594000000E+02  0.51100000000E-03 0.  1.
         11   -1    0    0    0    0 -0.00000000000E+00 -0.00000000000E+00 -0.45593999997E+02  0.45594000000E+02  0.51100000000E-03 0. -1.
    9900012    2    1    2    0    0 -0.62056760211E+00 -0.11535000791E+02  0.29720043395E+02  0.59301916409E+02  0.49999949629E+02 0.  0.
         12    1    1    2    0    0  0.62056760211E+00  0.11535000791E+02 -0.29720043395E+02  0.31886083591E+02  0.00000000000E+00 0. -1.
         11    1    3    3    0    0  0.64839705016E+01 -0.14974895288E+01 -0.10939641741E+02  0.12804690939E+02  0.51100000000E-03 0. -1.
        -11    1    3    3    0    0 -0.55804578055E+00  0.24664167427E+01 -0.83880860139E+00  0.26642497579E+01  0.51100000000E-03 0.  1.
        -12    1    3    3    0    0 -0.65464923231E+01 -0.12503928005E+02  0.41498493738E+02  0.43832975712E+02  0.00000000000E+00 0.  1.
</event>
<event>
 7    1  0.6672802E-013  0.5930175E+02  0.7816164E-02  0.1266605E+00
        -11   -1    0    0    0    0  0.00000000000E+00  0.00000000000E+00  0.45593999997E+02  0.45594000000E+02  0.51100000000E-03 0. -1.
         11   -1    0    0    0    0 -0.00000000000E+00 -0.00000000000E+00 -0.45593999997E+02  0.45594000000E+02  0.51100000000E-03 0.  1.
    9900012    2    1    2    0    0 -0.22565222324E+02  0.15222828154E+01 -0.22477237093E+02  0.59301752325E+02  0.49999650379E+02 0.  0.
         12    1    1    2    0    0  0.22565222324E+02 -0.15222828154E+01  0.22477237093E+02  0.31886247675E+02  0.00000000000E+00 0. -1.
         11    1    3    3    0    0 -0.17866554009E+02  0.39147380781E+00  0.18136435262E+01  0.17962636415E+02  0.51100000000E-03 0. -1.
        -11    1    3    3    0    0 -0.64712193488E+01  0.10370582447E+02  0.29028101977E+01  0.12563915291E+02  0.51100000000E-03 0.  1.
        -12    1    3    3    0    0  0.17725510338E+01 -0.92397734392E+01 -0.27193690817E+02  0.28775200618E+02  0.00000000000E+00 0.  1.
</event>
<event>
 7    1  0.6672802E-013  0.5930194E+02  0.7816164E-02  0.1266605E+00
        -11   -1    0    0    0    0  0.00000000000E+00  0.00000000000E+00  0.45593999997E+02  0.45594000000E+02  0.51100000000E-03 0. -1.
         11   -1    0    0    0    0 -0.00000000000E+00 -0.00000000000E+00 -0.45593999997E+02  0.45594000000E+02  0.51100000000E-03 0.  1.
    9900012    2    1    2    0    0 -0.32393253179E+01 -0.30969329277E+02 -0.68650105079E+01  0.59301937941E+02  0.49999988899E+02 0.  0.
         12    1    1    2    0    0  0.32393253179E+01  0.30969329277E+02  0.68650105079E+01  0.31886062059E+02  0.00000000000E+00 0. -1.
         11    1    3    3    0    0  0.12075403494E+01  0.36114512314E+01 -0.42289508953E+01  0.56907609007E+01  0.51100000000E-03 0. -1.
        -11    1    3    3    0    0 -0.42904976592E+01  0.87522882843E+01  0.22486984581E+01  0.10003377699E+02  0.51100000000E-03 0.  1.
         12    1    3    3    0    0 -0.15636800803E+00 -0.43333068793E+02 -0.48847580707E+01  0.43607799341E+02  0.00000000000E+00 0. -1.
</event>
<event>
 7    1  0.6672802E-013  0.5930193E+02  0.7816164E-02  0.1266605E+00
        -11   -1    0    0    0    0  0.00000000000E+00  0.00000000000E+00  0.45593999997E+02  0.45594000000E+02  0.51100000000E-03 0. -1.
         11   -1    0    0    0    0 -0.00000000000E+00 -0.00000000000E+00 -0.45593999997E+02  0.45594000000E+02  0.51100000000E-03 0.  1.
    9900012    2    1    2    0    0 -0.11820687433E+02 -0.24098074892E+02 -0.17212657846E+02  0.59301930079E+02  0.49999974561E+02 0.  0.
         12    1    1    2    0    0  0.11820687433E+02  0.24098074892E+02  0.17212657846E+02  0.31886069921E+02  0.00000000000E+00 0. -1.
         11    1    3    3    0    0 -0.16377536030E+02 -0.35344662589E+02 -0.13278333028E+02  0.41155594860E+02  0.51100000000E-03 0. -1.
        -11    1    3    3    0    0 -0.37295679169E+01  0.22784317237E-01 -0.12916100441E+01  0.39469548692E+01  0.51100000000E-03 0.  1.
         12    1    3    3    0    0  0.82864165140E+01  0.11223803380E+02 -0.26427147729E+01  0.14199380350E+02  0.00000000000E+00 0. -1.
</event>
<event>
 7    1  0.6672802E-013  0.5930196E+02  0.7816164E-02  0.1266605E+00
        -11   -1    0    0    0    0  0.00000000000E+00  0.00000000000E+00  0.45593999997E+02  0.45594000000E+02  0.51100000000E-03 0.  1.
         11   -1    0    0    0    0 -0.00000000000E+00 -0.00000000000E+00 -0.45593999997E+02  0.45594000000E+02  0.51100000000E-03 0. -1.
    9900012    2    1    2    0    0 -0.21057898915E+02 -0.13983187066E+02  0.19435924561E+02  0.59301956175E+02  0.50000022154E+02 0.  0.
         12    1    1    2    0    0  0.21057898915E+02  0.13983187066E+02 -0.19435924561E+02  0.31886043825E+02  0.00000000000E+00 0. -1.
         11    1    3    3    0    0  0.11127453961E+01  0.48306370824E+01  0.13081363257E+02  0.13989114406E+02  0.51100000000E-03 0. -1.
        -11    1    3    3    0    0 -0.28924897877E+01  0.86176328840E+01  0.74708129184E+01  0.11766186282E+02  0.51100000000E-03 0.  1.
        -12    1    3    3    0    0 -0.19278154524E+02 -0.27431457032E+02 -0.11162516138E+01  0.33546655488E+02  0.00000000000E+00 0.  1.
</event>
<event>
 7    1  0.6672802E-013  0.5930194E+02  0.7816164E-02  0.1266605E+00
        -11   -1    0    0    0    0  0.00000000000E+00  0.00000000000E+00  0.45593999997E+02  0.45594000000E+02  0.51100000000E-03 0.  1.
         11   -1    0    0    0    0 -0.00000000000E+00 -0.00000000000E+00 -0.45593999997E+02  0.45594000000E+02  0.51100000000E-03 0. -1.
    9900012    2    1    2    0    0 -0.95596620532E+01 -0.86558368600E+01  0.29161794610E+02  0.59301938544E+02  0.49999989998E+02 0.  0.
         12    1    1    2    0    0  0.95596620532E+01  0.86558368600E+01 -0.29161794610E+02  0.31886061456E+02  0.00000000000E+00 0. -1.
         11    1    3    3    0    0  0.36749522426E+01 -0.15607900669E+02  0.13010189317E+02  0.20648894973E+02  0.51100000000E-03 0. -1.
        -11    1    3    3    0    0 -0.14508496868E+01 -0.36806780284E+01  0.21533292758E+02  0.21893721767E+02  0.51100000000E-03 0.  1.
         12    1    3    3    0    0 -0.11783764609E+02  0.10632741837E+02 -0.53816874649E+01  0.16759321803E+02  0.00000000000E+00 0. -1.
</event>
<event>
 7    1  0.6672802E-013  0.5930192E+02  0.7816164E-02  0.1266605E+00
        -11   -1    0    0    0    0  0.00000000000E+00  0.00000000000E+00  0.45593999997E+02  0.45594000000E+02  0.51100000000E-03 0. -1.
         11   -1    0    0    0    0 -0.00000000000E+00 -0.00000000000E+00 -0.45593999997E+02  0.45594000000E+02  0.51100000000E-03 0.  1.
    9900012    2    1    2    0    0  0.26452521066E+01  0.31363715283E+02 -0.51031250804E+01  0.59301923405E+02  0.49999962389E+02 0.  0.
         12    1    1    2    0    0 -0.26452521066E+01 -0.31363715283E+02  0.51031250804E+01  0.31886076595E+02  0.00000000000E+00 0. -1.
         11    1    3    3    0    0 -0.26485579572E+01  0.98601434048E+01  0.15292217288E+02  0.18387201991E+02  0.51100000000E-03 0. -1.
        -11    1    3    3    0    0  0.50073019626E+01  0.68123497825E+01  0.62311714656E+01  0.10502793942E+02  0.51100000000E-03 0.  1.
        -12    1    3    3    0    0  0.28650810116E+00  0.14691222095E+02 -0.26626513834E+02  0.30411927471E+02  0.00000000000E+00 0.  1.
</event>
<event>
 7    1  0.6672802E-013  0.5930196E+02  0.7816164E-02  0.1266605E+00
        -11   -1    0    0    0    0  0.00000000000E+00  0.00000000000E+00  0.45593999997E+02  0.45594000000E+02  0.51100000000E-03 0. -1.
         11   -1    0    0    0    0 -0.00000000000E+00 -0.00000000000E+00 -0.45593999997E+02  0.45594000000E+02  0.51100000000E-03 0.  1.
    9900012    2    1    2    0    0  0.29585797870E+02 -0.92428121546E+01 -0.74813434203E+01  0.59301960555E+02  0.50000030142E+02 0.  0.
         12    1    1    2    0    0 -0.29585797870E+02  0.92428121546E+01  0.74813434203E+01  0.31886039445E+02  0.00000000000E+00 0. -1.
         11    1    3    3    0    0  0.68053231394E+01 -0.99903586001E+01 -0.64422782745E+00  0.12105152529E+02  0.51100000000E-03 0. -1.
        -11    1    3    3    0    0  0.30457659113E+02 -0.98358126567E+01 -0.10385443859E+02  0.33649214756E+02  0.51100000000E-03 0.  1.
         12    1    3    3    0    0 -0.76771843831E+01  0.10583359102E+02  0.35483282662E+01  0.13547593270E+02  0.00000000000E+00 0. -1.
</event>
<event>
 7    1  0.6672802E-013  0.5930184E+02  0.7816164E-02  0.1266605E+00
        -11   -1    0    0    0    0  0.00000000000E+00  0.00000000000E+00  0.45593999997E+02  0.45594000000E+02  0.51100000000E-03 0.  1.
         11   -1    0    0    0    0 -0.00000000000E+00 -0.00000000000E+00 -0.45593999997E+02  0.45594000000E+02  0.51100000000E-03 0. -1.
    9900012    2    1    2    0    0 -0.11985140316E+02  0.16102796934E+02  0.24774656706E+02  0.59301838858E+02  0.49999808195E+02 0.  0.
         12    1    1    2    0    0  0.11985140316E+02 -0.16102796934E+02 -0.24774656706E+02  0.31886161142E+02  0.00000000000E+00 0. -1.
         11    1    3    3    0    0 -0.82277550298E+01  0.98481360148E+01 -0.39837728207E+01  0.13436970713E+02  0.51100000000E-03 0. -1.
        -11    1    3    3    0    0 -0.60016044468E+01  0.66817780470E+01 -0.61477931103E+01  0.10883968678E+02  0.51100000000E-03 0.  1.
        -12    1    3    3    0    0  0.22442191604E+01 -0.42711712800E+00  0.34906222637E+02  0.34980899466E+02  0.00000000000E+00 0.  1.
</event>
<event>
 7    1  0.6672802E-013  0.5930178E+02  0.7816164E-02  0.1266605E+00
        -11   -1    0    0    0    0  0.00000000000E+00  0.00000000000E+00  0.45593999997E+02  0.45594000000E+02  0.51100000000E-03 0.  1.
         11   -1    0    0    0    0 -0.00000000000E+00 -0.00000000000E+00 -0.45593999997E+02  0.45594000000E+02  0.51100000000E-03 0. -1.
    9900012    2    1    2    0    0 -0.17089132335E+01 -0.27692498513E+02 -0.15714203390E+02  0.59301779676E+02  0.49999700262E+02 0.  0.
         12    1    1    2    0    0  0.17089132335E+01  0.27692498513E+02  0.15714203390E+02  0.31886220324E+02  0.00000000000E+00 0. -1.
         11    1    3    3    0    0  0.81116231173E+01 -0.42614454113E+01 -0.22065257577E+02  0.23892131316E+02  0.51100000000E-03 0. -1.
        -11    1    3    3    0    0 -0.87661834489E+01 -0.22838209355E+02 -0.41730950654E+01  0.24816214487E+02  0.51100000000E-03 0.  1.
        -12    1    3    3    0    0 -0.10543529020E+01 -0.59284374669E+00  0.10524149252E+02  0.10593433874E+02  0.00000000000E+00 0.  1.
</event>
<event>
 7    1  0.6672802E-013  0.5930187E+02  0.7816164E-02  0.1266605E+00
        -11   -1    0    0    0    0  0.00000000000E+00  0.00000000000E+00  0.45593999997E+02  0.45594000000E+02  0.51100000000E-03 0.  1.
         11   -1    0    0    0    0 -0.00000000000E+00 -0.00000000000E+00 -0.45593999997E+02  0.45594000000E+02  0.51100000000E-03 0. -1.
    9900012    2    1    2    0    0 -0.21646784284E+02  0.23407070043E+02 -0.50083356078E+00  0.59301873987E+02  0.49999872262E+02 0.  0.
         12    1    1    2    0    0  0.21646784284E+02 -0.23407070043E+02  0.50083356078E+00  0.31886126013E+02  0.00000000000E+00 0. -1.
         11    1    3    3    0    0  0.30514771027E+01  0.89003939656E+01  0.18749385857E+02  0.20977797680E+02  0.51100000000E-03 0. -1.
        -11    1    3    3    0    0 -0.12076214050E+02 -0.10243650683E+01 -0.28517930718E+01  0.12450582057E+02  0.51100000000E-03 0.  1.
        -12    1    3    3    0    0 -0.12622047337E+02  0.15531041146E+02 -0.16398426346E+02  0.25873494249E+02  0.00000000000E+00 0.  1.
</event>
<event>
 7    1  0.6672802E-013  0.5930193E+02  0.7816164E-02  0.1266605E+00
        -11   -1    0    0    0    0  0.00000000000E+00  0.00000000000E+00  0.45593999997E+02  0.45594000000E+02  0.51100000000E-03 0. -1.
         11   -1    0    0    0    0 -0.00000000000E+00 -0.00000000000E+00 -0.45593999997E+02  0.45594000000E+02  0.51100000000E-03 0.  1.
    9900012    2    1    2    0    0  0.25262949142E+02  0.10075028050E+02 -0.16643283846E+02  0.59301926445E+02  0.49999967933E+02 0.  0.
         12    1    1    2    0    0 -0.25262949142E+02 -0.10075028050E+02  0.16643283846E+02  0.31886073555E+02  0.00000000000E+00 0. -1.
         11    1    3    3    0    0  0.28997162857E+01  0.13604197850E+02  0.88466307650E+01  0.16484702904E+02  0.51100000000E-03 0. -1.
        -11    1    3    3    0    0 -0.38954252127E+01  0.21610004602E+01  0.15322959530E+01  0.47108589159E+01  0.51100000000E-03 0.  1.
        -12    1    3    3    0    0  0.26258658069E+02 -0.56901702602E+01 -0.27022210564E+02  0.38106364625E+02  0.00000000000E+00 0.  1.
</event>
<event>
 7    1  0.6672802E-013  0.5930194E+02  0.7816164E-02  0.1266605E+00
        -11   -1    0    0    0    0  0.00000000000E+00  0.00000000000E+00  0.45593999997E+02  0.45594000000E+02  0.51100000000E-03 0.  1.
         11   -1    0    0    0    0 -0.00000000000E+00 -0.00000000000E+00 -0.45593999997E+02  0.45594000000E+02  0.51100000000E-03 0. -1.
    9900012    2    1    2    0    0 -0.14645729411E+02  0.15159825180E+02  0.23924943313E+02  0.59301943455E+02  0.49999998955E+02 0.  0.
         12    1    1    2    0    0  0.14645729411E+02 -0.15159825180E+02 -0.23924943313E+02  0.31886056545E+02  0.00000000000E+00 0. -1.
         11    1    3    3    0    0 -0.82876635213E+01 -0.65548463328E+01 -0.27946570940E+01  0.10929843806E+02  0.51100000000E-03 0. -1.
        -11    1    3    3    0    0 -0.11120835824E+02 -0.45396985619E+01  0.23581996493E+01  0.12241035834E+02  0.51100000000E-03 0.  1.
        -12    1    3    3    0    0  0.47627699344E+01  0.26254370075E+02  0.24361400758E+02  0.36131063815E+02  0.00000000000E+00 0.  1.
</event>
<event>
 7    1  0.6672802E-013  0.5930181E+02  0.7816164E-02  0.1266605E+00
        -11   -1    0    0    0    0  0.00000000000E+00  0.00000000000E+00  0.45593999997E+02  0.45594000000E+02  0.51100000000E-03 0.  1.
         11   -1    0    0    0    0 -0.00000000000E+00 -0.00000000000E+00 -0.45593999997E+02  0.45594000000E+02  0.51100000000E-03 0. -1.
    9900012    2    1    2    0    0 -0.91104742059E+01  0.57886127412E+01  0.30003668848E+02  0.59301812989E+02  0.49999761017E+02 0.  0.
         12    1    1    2    0    0  0.91104742059E+01 -0.57886127412E+01 -0.30003668848E+02  0.31886187011E+02  0.00000000000E+00 0. -1.
         11    1    3    3    0    0 -0.38286637399E+01 -0.53424823933E+00  0.17748592655E+02  0.18164708330E+02  0.51100000000E-03 0. -1.
        -11    1    3    3    0    0 -0.12771763687E+02  0.92616766815E+01  0.22890845285E+02  0.27800852519E+02  0.51100000000E-03 0.  1.
         12    1    3    3    0    0  0.74899532210E+01 -0.29388157009E+01 -0.10635769092E+02  0.13336252141E+02  0.00000000000E+00 0. -1.
</event>
<event>
 7    1  0.6672802E-013  0.5930197E+02  0.7816164E-02  0.1266605E+00
        -11   -1    0    0    0    0  0.00000000000E+00  0.00000000000E+00  0.45593999997E+02  0.45594000000E+02  0.51100000000E-03 0. -1.
         11   -1    0    0    0    0 -0.00000000000E+00 -0.00000000000E+00 -0.45593999997E+02  0.45594000000E+02  0.51100000000E-03 0.  1.
    9900012    2    1    2    0    0 -0.23985386827E+02 -0.25810108289E+00 -0.21008413362E+02  0.59301971251E+02  0.50000049648E+02 0.  0.
         12    1    1    2    0    0  0.23985386827E+02  0.25810108289E+00  0.21008413362E+02  0.31886028749E+02  0.00000000000E+00 0. -1.
         11    1    3    3    0    0  0.37031401863E+01  0.35695636683E+01 -0.11828773956E+01  0.52777107931E+01  0.51100000000E-03 0. -1.
        -11    1    3    3    0    0 -0.19029081005E+01  0.16970468628E+02 -0.56051863014E+01  0.17973201674E+02  0.51100000000E-03 0.  1.
        -12    1    3    3    0    0 -0.25785618913E+02 -0.20798133379E+02 -0.14220349665E+02  0.36051058783E+02  0.00000000000E+00 0.  1.
</event>
<event>
 7    1  0.6672802E-013  0.5930195E+02  0.7816164E-02  0.1266605E+00
        -11   -1    0    0    0    0  0.00000000000E+00  0.00000000000E+00  0.45593999997E+02  0.45594000000E+02  0.51100000000E-03 0.  1.
         11   -1    0    0    0    0 -0.00000000000E+00 -0.00000000000E+00 -0.45593999997E+02  0.45594000000E+02  0.51100000000E-03 0. -1.
    9900012    2    1    2    0    0 -0.98010484669E+01 -0.41769702988E+01  0.30053491365E+02  0.59301953285E+02  0.50000016882E+02 0.  0.
         12    1    1    2    0    0  0.98010484669E+01  0.41769702988E+01 -0.30053491365E+02  0.31886046715E+02  0.00000000000E+00 0. -1.
         11    1    3    3    0    0 -0.11388300479E+02 -0.11701932993E+02  0.24909260627E+01  0.16517667404E+02  0.51100000000E-03 0. -1.
        -11    1    3    3    0    0 -0.16415584851E+01 -0.85360606247E+00  0.32489539796E+02  0.32542181150E+02  0.51100000000E-03 0.  1.
         12    1    3    3    0    0  0.32288104967E+01  0.83785687568E+01 -0.49269744943E+01  0.10242104730E+02  0.00000000000E+00 0. -1.
</event>
<event>
 7    1  0.6672802E-013  0.5930195E+02  0.7816164E-02  0.1266605E+00
        -11   -1    0    0    0    0  0.00000000000E+00  0.00000000000E+00  0.45593999997E+02  0.45594000000E+02  0.51100000000E-03 0.  1.
         11   -1    0    0    0    0 -0.00000000000E+00 -0.00000000000E+00 -0.45593999997E+02  0.45594000000E+02  0.51100000000E-03 0. -1.
    9900012    2    1    2    0    0 -0.83890839875E+00 -0.26242213042E+02  0.18093159333E+02  0.59301954034E+02  0.50000018250E+02 0.  0.
         12    1    1    2    0    0  0.83890839875E+00  0.26242213042E+02 -0.18093159333E+02  0.31886045966E+02  0.00000000000E+00 0. -1.
         11    1    3    3    0    0 -0.85788819311E+00 -0.63831896179E+01  0.31834242631E+01  0.71843769493E+01  0.51100000000E-03 0.  1.
        -11    1    3    3    0    0 -0.21315123851E+00 -0.60136627101E+01  0.30602713462E+02  0.31188710204E+02  0.51100000000E-03 0. -1.
         12    1    3    3    0    0  0.23213103287E+00 -0.13845360714E+02 -0.15692978392E+02  0.20928866881E+02  0.00000000000E+00 0. -1.
</event>
<event>
 7    1  0.6672802E-013  0.5930201E+02  0.7816164E-02  0.1266605E+00
        -11   -1    0    0    0    0  0.00000000000E+00  0.00000000000E+00  0.45593999997E+02  0.45594000000E+02  0.51100000000E-03 0.  1.
         11   -1    0    0    0    0 -0.00000000000E+00 -0.00000000000E+00 -0.45593999997E+02  0.45594000000E+02  0.51100000000E-03 0. -1.
    9900012    2    1    2    0    0  0.13178468239E+02 -0.31222243408E+00  0.29033551112E+02  0.59302006238E+02  0.50000113457E+02 0.  0.
         12    1    1    2    0    0 -0.13178468239E+02  0.31222243408E+00 -0.29033551112E+02  0.31885993762E+02  0.00000000000E+00 0. -1.
         11    1    3    3    0    0 -0.11132114593E+02  0.25533999787E+01  0.86260996971E+01  0.14312701457E+02  0.51100000000E-03 0. -1.
        -11    1    3    3    0    0 -0.44525750944E+01  0.75937145698E+01  0.82268457866E+01  0.12048689464E+02  0.51100000000E-03 0.  1.
        -12    1    3    3    0    0  0.28763157926E+02 -0.10459336983E+02  0.12180605629E+02  0.32940615317E+02  0.00000000000E+00 0.  1.
</event>
<event>
 7    1  0.6672802E-013  0.5930193E+02  0.7816164E-02  0.1266605E+00
        -11   -1    0    0    0    0  0.00000000000E+00  0.00000000000E+00  0.45593999997E+02  0.45594000000E+02  0.51100000000E-03 0.  1.
         11   -1    0    0    0    0 -0.00000000000E+00 -0.00000000000E+00 -0.45593999997E+02  0.45594000000E+02  0.51100000000E-03 0. -1.
    9900012    2    1    2    0    0 -0.26856117240E+02 -0.11095862279E+01  0.17153398260E+02  0.59301932718E+02  0.49999979375E+02 0.  0.
         12    1    1    2    0    0  0.26856117240E+02  0.11095862279E+01 -0.17153398260E+02  0.31886067282E+02  0.00000000000E+00 0. -1.
         11    1    3    3    0    0 -0.17341313465E+02  0.12305111997E+02  0.47976784259E+01  0.21798042401E+02  0.51100000000E-03 0. -1.
        -11    1    3    3    0    0 -0.12937151622E+02 -0.68384893373E+01 -0.74035959647E+01  0.16399636032E+02  0.51100000000E-03 0.  1.
        -12    1    3    3    0    0  0.34223478471E+01 -0.65762088879E+01  0.19759315799E+02  0.21104254286E+02  0.00000000000E+00 0.  1.
</event>
<event>
 7    1  0.6672802E-013  0.5930193E+02  0.7816164E-02  0.1266605E+00
        -11   -1    0    0    0    0  0.00000000000E+00  0.00000000000E+00  0.45593999997E+02  0.45594000000E+02  0.51100000000E-03 0.  1.
         11   -1    0    0    0    0 -0.00000000000E+00 -0.00000000000E+00 -0.45593999997E+02  0.45594000000E+02  0.51100000000E-03 0. -1.
    9900012    2    1    2    0    0 -0.10065575331E+02  0.24668341553E+02  0.17517946903E+02  0.59301931797E+02  0.49999977694E+02 0.  0.
         12    1    1    2    0    0  0.10065575331E+02 -0.24668341553E+02 -0.17517946903E+02  0.31886068203E+02  0.00000000000E+00 0. -1.
         11    1    3    3    0    0 -0.20377354262E+01 -0.28653168829E+01 -0.16982727128E+01  0.39046814178E+01  0.51100000000E-03 0. -1.
        -11    1    3    3    0    0 -0.16182913004E+02  0.34268222503E+02  0.58394300315E+01  0.38344447970E+02  0.51100000000E-03 0.  1.
         12    1    3    3    0    0  0.81550730992E+01 -0.67345640666E+01  0.13376789584E+02  0.17052802409E+02  0.00000000000E+00 0. -1.
</event>
<event>
 7    1  0.6672802E-013  0.5930193E+02  0.7816164E-02  0.1266605E+00
        -11   -1    0    0    0    0  0.00000000000E+00  0.00000000000E+00  0.45593999997E+02  0.45594000000E+02  0.51100000000E-03 0. -1.
         11   -1    0    0    0    0 -0.00000000000E+00 -0.00000000000E+00 -0.45593999997E+02  0.45594000000E+02  0.51100000000E-03 0.  1.
    9900012    2    1    2    0    0 -0.21482695367E+02  0.18168569588E+02 -0.15003949122E+02  0.59301927643E+02  0.49999970117E+02 0.  0.
         12    1    1    2    0    0  0.21482695367E+02 -0.18168569588E+02  0.15003949122E+02  0.31886072357E+02  0.00000000000E+00 0. -1.
         11    1    3    3    0    0 -0.52756552381E+01  0.13985035749E+01  0.15160125627E+01  0.56645074624E+01  0.51100000000E-03 0.  1.
        -11    1    3    3    0    0  0.12058356768E+02  0.44886163228E+01 -0.18748230337E+02  0.22738684778E+02  0.51100000000E-03 0. -1.
         12    1    3    3    0    0 -0.28265396897E+02  0.12281449690E+02  0.22282686518E+01  0.30898735402E+02  0.00000000000E+00 0. -1.
</event>
<event>
 7    1  0.6672802E-013  0.5930192E+02  0.7816164E-02  0.1266605E+00
        -11   -1    0    0    0    0  0.00000000000E+00  0.00000000000E+00  0.45593999997E+02  0.45594000000E+02  0.51100000000E-03 0. -1.
         11   -1    0    0    0    0 -0.00000000000E+00 -0.00000000000E+00 -0.45593999997E+02  0.45594000000E+02  0.51100000000E-03 0.  1.
    9900012    2    1    2    0    0  0.13842376038E+02 -0.25926923784E+02  0.12365498628E+02  0.59301916709E+02  0.49999950178E+02 0.  0.
         12    1    1    2    0    0 -0.13842376038E+02  0.25926923784E+02 -0.12365498628E+02  0.31886083291E+02  0.00000000000E+00 0. -1.
         11    1    3    3    0    0  0.27320999593E+00 -0.76699764370E+01  0.12274276324E+02  0.14476223326E+02  0.51100000000E-03 0. -1.
        -11    1    3    3    0    0 -0.11788510786E+02 -0.13064742825E+02 -0.53172868484E+01  0.18382873315E+02  0.51100000000E-03 0.  1.
         12    1    3    3    0    0  0.25357676828E+02 -0.51922045226E+01  0.54085091523E+01  0.26442820068E+02  0.00000000000E+00 0. -1.
</event>
<event>
 7    1  0.6672802E-013  0.5930194E+02  0.7816164E-02  0.1266605E+00
        -11   -1    0    0    0    0  0.00000000000E+00  0.00000000000E+00  0.45593999997E+02  0.45594000000E+02  0.51100000000E-03 0. -1.
         11   -1    0    0    0    0 -0.00000000000E+00 -0.00000000000E+00 -0.45593999997E+02  0.45594000000E+02  0.51100000000E-03 0.  1.
    9900012    2    1    2    0    0 -0.11135977766E+02  0.17048643637E+02 -0.24536804902E+02  0.59301936501E+02  0.49999986273E+02 0.  0.
         12    1    1    2    0    0  0.11135977766E+02 -0.17048643637E+02  0.24536804902E+02  0.31886063499E+02  0.00000000000E+00 0. -1.
         11    1    3    3    0    0 -0.12999471958E+01 -0.12287958569E+02 -0.10007729602E+02  0.15900894332E+02  0.51100000000E-03 0. -1.
        -11    1    3    3    0    0  0.65355606806E+01  0.78980354135E+01  0.36392813229E+01  0.10878275857E+02  0.51100000000E-03 0.  1.
         12    1    3    3    0    0 -0.16371591250E+02  0.21438566794E+02 -0.18168356623E+02  0.32522766312E+02  0.00000000000E+00 0. -1.
</event>
<event>
 7    1  0.6672802E-013  0.5930194E+02  0.7816164E-02  0.1266605E+00
        -11   -1    0    0    0    0  0.00000000000E+00  0.00000000000E+00  0.45593999997E+02  0.45594000000E+02  0.51100000000E-03 0.  1.
         11   -1    0    0    0    0 -0.00000000000E+00 -0.00000000000E+00 -0.45593999997E+02  0.45594000000E+02  0.51100000000E-03 0. -1.
    9900012    2    1    2    0    0  0.30359617656E+02  0.27256253404E+01  0.93586978376E+01  0.59301942813E+02  0.49999997785E+02 0.  0.
         12    1    1    2    0    0 -0.30359617656E+02 -0.27256253404E+01 -0.93586978376E+01  0.31886057187E+02  0.00000000000E+00 0. -1.
         11    1    3    3    0    0  0.56618301075E+01  0.26184650073E+01 -0.54529961994E+01  0.82853996266E+01  0.51100000000E-03 0. -1.
        -11    1    3    3    0    0  0.36608146646E+02 -0.94942729448E+00  0.13315595422E+02  0.38966176291E+02  0.51100000000E-03 0.  1.
         12    1    3    3    0    0 -0.11910359098E+02  0.10565876276E+01  0.14960986154E+01  0.12050366896E+02  0.00000000000E+00 0. -1.
</event>
<event>
 7    1  0.6672802E-013  0.5930190E+02  0.7816164E-02  0.1266605E+00
        -11   -1    0    0    0    0  0.00000000000E+00  0.00000000000E+00  0.45593999997E+02  0.45594000000E+02  0.51100000000E-03 0. -1.
         11   -1    0    0    0    0 -0.00000000000E+00 -0.00000000000E+00 -0.45593999997E+02  0.45594000000E+02  0.51100000000E-03 0.  1.
    9900012    2    1    2    0    0  0.29447765514E+02 -0.31104983178E+01 -0.11826978815E+02  0.59301897676E+02  0.49999915466E+02 0.  0.
         12    1    1    2    0    0 -0.29447765514E+02  0.31104983178E+01  0.11826978815E+02  0.31886102324E+02  0.00000000000E+00 0. -1.
         11    1    3    3    0    0  0.11374722497E+02  0.21047959322E+01  0.77425841734E+01  0.13919845105E+02  0.51100000000E-03 0. -1.
        -11    1    3    3    0    0  0.19648262994E+02 -0.47673920181E+01  0.49438219184E+01  0.20814025097E+02  0.51100000000E-03 0.  1.
        -12    1    3    3    0    0 -0.15752199776E+01 -0.44790223197E+00 -0.24513384906E+02  0.24568027474E+02  0.00000000000E+00 0.  1.
</event>
<event>
 7    1  0.6672802E-013  0.5930195E+02  0.7816164E-02  0.1266605E+00
        -11   -1    0    0    0    0  0.00000000000E+00  0.00000000000E+00  0.45593999997E+02  0.45594000000E+02  0.51100000000E-03 0.  1.
         11   -1    0    0    0    0 -0.00000000000E+00 -0.00000000000E+00 -0.45593999997E+02  0.45594000000E+02  0.51100000000E-03 0. -1.
    9900012    2    1    2    0    0  0.16105722768E+02  0.26052378308E+02 -0.88656466965E+01  0.59301946423E+02  0.50000004368E+02 0.  0.
         12    1    1    2    0    0 -0.16105722768E+02 -0.26052378308E+02  0.88656466965E+01  0.31886053577E+02  0.00000000000E+00 0. -1.
         11    1    3    3    0    0  0.82574310507E+01  0.97222686698E+01 -0.20234071915E+02  0.23919141753E+02  0.51100000000E-03 0. -1.
        -11    1    3    3    0    0  0.17459709049E+02  0.75625428893E+01  0.15619214809E+01  0.19091178434E+02  0.51100000000E-03 0.  1.
        -12    1    3    3    0    0 -0.96114173325E+01  0.87675667490E+01  0.98065037381E+01  0.16291626236E+02  0.00000000000E+00 0.  1.
</event>
<event>
 7    1  0.6672802E-013  0.5930197E+02  0.7816164E-02  0.1266605E+00
        -11   -1    0    0    0    0  0.00000000000E+00  0.00000000000E+00  0.45593999997E+02  0.45594000000E+02  0.51100000000E-03 0.  1.
         11   -1    0    0    0    0 -0.00000000000E+00 -0.00000000000E+00 -0.45593999997E+02  0.45594000000E+02  0.51100000000E-03 0. -1.
    9900012    2    1    2    0    0 -0.20706710941E+02  0.19191723653E+02  0.14819874964E+02  0.59301971262E+02  0.50000049668E+02 0.  0.
         12    1    1    2    0    0  0.20706710941E+02 -0.19191723653E+02 -0.14819874964E+02  0.31886028738E+02  0.00000000000E+00 0. -1.
         11    1    3    3    0    0  0.80641273159E+01  0.82481625207E+01  0.99084045686E+01  0.15206538583E+02  0.51100000000E-03 0. -1.
        -11    1    3    3    0    0 -0.79283814985E+01 -0.91036544699E+01  0.87684797157E+01  0.14920522601E+02  0.51100000000E-03 0.  1.
         12    1    3    3    0    0 -0.20842456758E+02  0.20047215603E+02 -0.38570093204E+01  0.29174910077E+02  0.00000000000E+00 0. -1.
</event>
<event>
 7    1  0.6672802E-013  0.5930194E+02  0.7816164E-02  0.1266605E+00
        -11   -1    0    0    0    0  0.00000000000E+00  0.00000000000E+00  0.45593999997E+02  0.45594000000E+02  0.51100000000E-03 0. -1.
         11   -1    0    0    0    0 -0.00000000000E+00 -0.00000000000E+00 -0.45593999997E+02  0.45594000000E+02  0.51100000000E-03 0.  1.
    9900012    2    1    2    0    0  0.21174259484E+02  0.23324454077E+02  0.49337100644E+01  0.59301938504E+02  0.49999989927E+02 0.  0.
         12    1    1    2    0    0 -0.21174259484E+02 -0.23324454077E+02 -0.49337100644E+01  0.31886061496E+02  0.00000000000E+00 0. -1.
         11    1    3    3    0    0 -0.77195552015E+01 -0.59142586733E+01 -0.56210710970E+01  0.11232383038E+02  0.51100000000E-03 0. -1.
        -11    1    3    3    0    0 -0.43785894180E+00  0.73386748300E+01 -0.43542105352E+01  0.85444144539E+01  0.51100000000E-03 0.  1.
         12    1    3    3    0    0  0.29331673627E+02  0.21900037921E+02  0.14908991697E+02  0.39525141013E+02  0.00000000000E+00 0. -1.
</event>
<event>
 7    1  0.6672802E-013  0.5930184E+02  0.7816164E-02  0.1266605E+00
        -11   -1    0    0    0    0  0.00000000000E+00  0.00000000000E+00  0.45593999997E+02  0.45594000000E+02  0.51100000000E-03 0.  1.
         11   -1    0    0    0    0 -0.00000000000E+00 -0.00000000000E+00 -0.45593999997E+02  0.45594000000E+02  0.51100000000E-03 0. -1.
    9900012    2    1    2    0    0 -0.21680646546E+02  0.53975653259E+01  0.22749570768E+02  0.59301841307E+02  0.49999812661E+02 0.  0.
         12    1    1    2    0    0  0.21680646546E+02 -0.53975653259E+01 -0.22749570768E+02  0.31886158693E+02  0.00000000000E+00 0. -1.
         11    1    3    3    0    0  0.55924359695E+01  0.32226180790E+01 -0.43932722384E+01  0.78077812839E+01  0.51100000000E-03 0. -1.
        -11    1    3    3    0    0 -0.65101507282E+01  0.69479035174E+01 -0.66023205748E+01  0.11586460332E+02  0.51100000000E-03 0.  1.
        -12    1    3    3    0    0 -0.20762931787E+02 -0.47729562705E+01  0.33745163581E+02  0.39907599691E+02  0.00000000000E+00 0.  1.
</event>
<event>
 7    1  0.6672802E-013  0.5930194E+02  0.7816164E-02  0.1266605E+00
        -11   -1    0    0    0    0  0.00000000000E+00  0.00000000000E+00  0.45593999997E+02  0.45594000000E+02  0.51100000000E-03 0.  1.
         11   -1    0    0    0    0 -0.00000000000E+00 -0.00000000000E+00 -0.45593999997E+02  0.45594000000E+02  0.51100000000E-03 0. -1.
    9900012    2    1    2    0    0 -0.14474049753E+02 -0.25685720729E+02  0.12143571675E+02  0.59301941940E+02  0.49999996192E+02 0.  0.
         12    1    1    2    0    0  0.14474049753E+02  0.25685720729E+02 -0.12143571675E+02  0.31886058060E+02  0.00000000000E+00 0. -1.
         11    1    3    3    0    0 -0.12714116690E+02 -0.21791462930E+02 -0.34997126316E+01  0.25470858026E+02  0.51100000000E-03 0. -1.
        -11    1    3    3    0    0 -0.13283820468E+02 -0.92073608072E+01  0.13289797475E+02  0.20924963475E+02  0.51100000000E-03 0.  1.
         12    1    3    3    0    0  0.11523887405E+02  0.53131030077E+01  0.23534868317E+01  0.12906120438E+02  0.00000000000E+00 0. -1.
</event>
<event>
 7    1  0.6672802E-013  0.5930228E+02  0.7816164E-02  0.1266604E+00
        -11   -1    0    0    0    0  0.00000000000E+00  0.00000000000E+00  0.45593999997E+02  0.45594000000E+02  0.51100000000E-03 0.  1.
         11   -1    0    0    0    0 -0.00000000000E+00 -0.00000000000E+00 -0.45593999997E+02  0.45594000000E+02  0.51100000000E-03 0. -1.
    9900012    2    1    2    0    0 -0.23329401618E+02  0.17990159251E+02  0.12198048017E+02  0.59302279291E+02  0.50000611435E+02 0.  0.
         12    1    1    2    0    0  0.23329401618E+02 -0.17990159251E+02 -0.12198048017E+02  0.31885720709E+02  0.00000000000E+00 0. -1.
         11    1    3    3    0    0 -0.56992764593E+01  0.15764801547E+02 -0.52316258801E+01  0.17560769618E+02  0.51100000000E-03 0. -1.
        -11    1    3    3    0    0 -0.15580288796E+02  0.16177074280E+02  0.51498033778E+01  0.23042647555E+02  0.51100000000E-03 0.  1.
         12    1    3    3    0    0 -0.20498363628E+01 -0.13951716576E+02  0.12279870519E+02  0.18698862118E+02  0.00000000000E+00 0. -1.
</event>
<event>
 7    1  0.6672802E-013  0.5930195E+02  0.7816164E-02  0.1266605E+00
        -11   -1    0    0    0    0  0.00000000000E+00  0.00000000000E+00  0.45593999997E+02  0.45594000000E+02  0.51100000000E-03 0. -1.
         11   -1    0    0    0    0 -0.00000000000E+00 -0.00000000000E+00 -0.45593999997E+02  0.45594000000E+02  0.51100000000E-03 0.  1.
    9900012    2    1    2    0    0  0.36337533286E+01 -0.17455071148E+02 -0.26435515838E+02  0.59301950235E+02  0.50000011320E+02 0.  0.
         12    1    1    2    0    0 -0.36337533286E+01  0.17455071148E+02  0.26435515838E+02  0.31886049765E+02  0.00000000000E+00 0. -1.
         11    1    3    3    0    0  0.34984105450E+01 -0.17119596773E+02 -0.15642011178E+02  0.23451907896E+02  0.51100000000E-03 0. -1.
        -11    1    3    3    0    0 -0.15474879181E+02 -0.54248557784E+01 -0.10416301885E+02  0.19426793124E+02  0.51100000000E-03 0.  1.
         12    1    3    3    0    0  0.15610221964E+02  0.50893814039E+01 -0.37720277512E+00  0.16423249215E+02  0.00000000000E+00 0. -1.
</event>
<event>
 7    1  0.6672802E-013  0.5930195E+02  0.7816164E-02  0.1266605E+00
        -11   -1    0    0    0    0  0.00000000000E+00  0.00000000000E+00  0.45593999997E+02  0.45594000000E+02  0.51100000000E-03 0. -1.
         11   -1    0    0    0    0 -0.00000000000E+00 -0.00000000000E+00 -0.45593999997E+02  0.45594000000E+02  0.51100000000E-03 0.  1.
    9900012    2    1    2    0    0 -0.26488733482E+02 -0.29393059080E+01 -0.17505081961E+02  0.59301946385E+02  0.50000004299E+02 0.  0.
         12    1    1    2    0    0  0.26488733482E+02  0.29393059080E+01  0.17505081961E+02  0.31886053615E+02  0.00000000000E+00 0. -1.
         11    1    3    3    0    0 -0.42322427398E+01 -0.19320496871E+02 -0.68292624625E+01  0.20924442741E+02  0.51100000000E-03 0. -1.
        -11    1    3    3    0    0 -0.17179593314E+02 -0.23155298652E+01 -0.67935242716E+01  0.18618594933E+02  0.51100000000E-03 0.  1.
        -12    1    3    3    0    0 -0.50768974283E+01  0.18696720829E+02 -0.38822952267E+01  0.19758908711E+02  0.00000000000E+00 0.  1.
</event>
<event>
 7    1  0.6672802E-013  0.5930194E+02  0.7816164E-02  0.1266605E+00
        -11   -1    0    0    0    0  0.00000000000E+00  0.00000000000E+00  0.45593999997E+02  0.45594000000E+02  0.51100000000E-03 0. -1.
         11   -1    0    0    0    0 -0.00000000000E+00 -0.00000000000E+00 -0.45593999997E+02  0.45594000000E+02  0.51100000000E-03 0.  1.
    9900012    2    1    2    0    0 -0.17280378868E+02 -0.91635155102E+01 -0.25182118966E+02  0.59301943079E+02  0.49999998270E+02 0.  0.
         12    1    1    2    0    0  0.17280378868E+02  0.91635155102E+01  0.25182118966E+02  0.31886056921E+02  0.00000000000E+00 0. -1.
         11    1    3    3    0    0 -0.30542253227E+01  0.17775296167E+01  0.52552002791E+01  0.63328535507E+01  0.51100000000E-03 0. -1.
        -11    1    3    3    0    0  0.52897361188E+01 -0.13405507522E+02  0.24788614644E+01  0.14623053530E+02  0.51100000000E-03 0.  1.
        -12    1    3    3    0    0 -0.19515889665E+02  0.24644623952E+01 -0.32916180709E+02  0.38346035998E+02  0.00000000000E+00 0.  1.
</event>
<event>
 7    1  0.6672802E-013  0.5930196E+02  0.7816164E-02  0.1266605E+00
        -11   -1    0    0    0    0  0.00000000000E+00  0.00000000000E+00  0.45593999997E+02  0.45594000000E+02  0.51100000000E-03 0. -1.
         11   -1    0    0    0    0 -0.00000000000E+00 -0.00000000000E+00 -0.45593999997E+02  0.45594000000E+02  0.51100000000E-03 0.  1.
    9900012    2    1    2    0    0  0.37231667907E+01 -0.28201367431E+02 -0.14406274631E+02  0.59301955330E+02  0.50000020612E+02 0.  0.
         12    1    1    2    0    0 -0.37231667907E+01  0.28201367431E+02  0.14406274631E+02  0.31886044670E+02  0.00000000000E+00 0. -1.
         11    1    3    3    0    0  0.10649151002E+02 -0.18886467331E+02  0.13073214338E+02  0.25318214761E+02  0.51100000000E-03 0. -1.
        -11    1    3    3    0    0 -0.63708165432E+01 -0.12900332826E+02 -0.14190298644E+02  0.20208178204E+02  0.51100000000E-03 0.  1.
        -12    1    3    3    0    0 -0.55516766798E+00  0.35854327251E+01 -0.13289190326E+02  0.13775562365E+02  0.00000000000E+00 0.  1.
</event>
<event>
 7    1  0.6672802E-013  0.5930193E+02  0.7816164E-02  0.1266605E+00
        -11   -1    0    0    0    0  0.00000000000E+00  0.00000000000E+00  0.45593999997E+02  0.45594000000E+02  0.51100000000E-03 0.  1.
         11   -1    0    0    0    0 -0.00000000000E+00 -0.00000000000E+00 -0.45593999997E+02  0.45594000000E+02  0.51100000000E-03 0. -1.
    9900012    2    1    2    0    0 -0.23045149602E+02  0.15128303144E+01  0.21985306609E+02  0.59301932785E+02  0.49999979497E+02 0.  0.
         12    1    1    2    0    0  0.23045149602E+02 -0.15128303144E+01 -0.21985306609E+02  0.31886067215E+02  0.00000000000E+00 0. -1.
         11    1    3    3    0    0 -0.13072608348E+02  0.63654144665E+01  0.79193837394E+01  0.16556818216E+02  0.51100000000E-03 0. -1.
        -11    1    3    3    0    0 -0.98249936517E+01  0.45291110339E+01  0.25649743940E+02  0.27837972474E+02  0.51100000000E-03 0.  1.
         12    1    3    3    0    0 -0.14754760190E+00 -0.93816951860E+01 -0.11583821071E+02  0.14907142096E+02  0.00000000000E+00 0. -1.
</event>
<event>
 7    1  0.6672802E-013  0.5930195E+02  0.7816164E-02  0.1266605E+00
        -11   -1    0    0    0    0  0.00000000000E+00  0.00000000000E+00  0.45593999997E+02  0.45594000000E+02  0.51100000000E-03 0.  1.
         11   -1    0    0    0    0 -0.00000000000E+00 -0.00000000000E+00 -0.45593999997E+02  0.45594000000E+02  0.51100000000E-03 0. -1.
    9900012    2    1    2    0    0 -0.81287189046E+01  0.20570119562E+02  0.22967682082E+02  0.59301948033E+02  0.50000007305E+02 0.  0.
         12    1    1    2    0    0  0.81287189046E+01 -0.20570119562E+02 -0.22967682082E+02  0.31886051967E+02  0.00000000000E+00 0. -1.
         11    1    3    3    0    0  0.85263922805E+00  0.17563395072E+02  0.21205455559E+01  0.17711480848E+02  0.51100000000E-03 0. -1.
        -11    1    3    3    0    0 -0.18551051655E+02  0.77784422832E+01  0.23871695491E+01  0.20256955857E+02  0.51100000000E-03 0.  1.
         12    1    3    3    0    0  0.95696935223E+01 -0.47717177933E+01  0.18459966977E+02  0.21333511328E+02  0.00000000000E+00 0. -1.
</event>
<event>
 7    1  0.6672802E-013  0.5930183E+02  0.7816164E-02  0.1266605E+00
        -11   -1    0    0    0    0  0.00000000000E+00  0.00000000000E+00  0.45593999997E+02  0.45594000000E+02  0.51100000000E-03 0. -1.
         11   -1    0    0    0    0 -0.00000000000E+00 -0.00000000000E+00 -0.45593999997E+02  0.45594000000E+02  0.51100000000E-03 0.  1.
    9900012    2    1    2    0    0 -0.21276293327E+02  0.23670085465E+02  0.19427414990E+01  0.59301829829E+02  0.49999791729E+02 0.  0.
         12    1    1    2    0    0  0.21276293327E+02 -0.23670085465E+02 -0.19427414990E+01  0.31886170171E+02  0.00000000000E+00 0. -1.
         11    1    3    3    0    0 -0.20395216442E+02  0.15519737433E+02  0.14780831682E+02  0.29585470914E+02  0.51100000000E-03 0. -1.
        -11    1    3    3    0    0 -0.42719598570E+01  0.10063189000E+02  0.45913503983E+01  0.11857399066E+02  0.51100000000E-03 0.  1.
        -12    1    3    3    0    0  0.33908829721E+01 -0.19128409686E+01 -0.17429440582E+02  0.17858959849E+02  0.00000000000E+00 0.  1.
</event>
<event>
 7    1  0.6672802E-013  0.5930189E+02  0.7816164E-02  0.1266605E+00
        -11   -1    0    0    0    0  0.00000000000E+00  0.00000000000E+00  0.45593999997E+02  0.45594000000E+02  0.51100000000E-03 0. -1.
         11   -1    0    0    0    0 -0.00000000000E+00 -0.00000000000E+00 -0.45593999997E+02  0.45594000000E+02  0.51100000000E-03 0.  1.
    9900012    2    1    2    0    0 -0.45968814923E+01  0.27468893974E+01 -0.31433217447E+02  0.59301892055E+02  0.49999905214E+02 0.  0.
         12    1    1    2    0    0  0.45968814923E+01 -0.27468893974E+01  0.31433217447E+02  0.31886107945E+02  0.00000000000E+00 0. -1.
         11    1    3    3    0    0  0.11096584932E+02 -0.50403269614E+01 -0.15236776207E+02  0.19511495137E+02  0.51100000000E-03 0. -1.
        -11    1    3    3    0    0  0.70980103593E+01 -0.62859329976E+01 -0.31099692444E+01  0.99783071547E+01  0.51100000000E-03 0.  1.
        -12    1    3    3    0    0 -0.22791476783E+02  0.14073149356E+02 -0.13086471995E+02  0.29812089763E+02  0.00000000000E+00 0.  1.
</event>
<event>
 7    1  0.6672802E-013  0.5930194E+02  0.7816164E-02  0.1266605E+00
        -11   -1    0    0    0    0  0.00000000000E+00  0.00000000000E+00  0.45593999997E+02  0.45594000000E+02  0.51100000000E-03 0.  1.
         11   -1    0    0    0    0 -0.00000000000E+00 -0.00000000000E+00 -0.45593999997E+02  0.45594000000E+02  0.51100000000E-03 0. -1.
    9900012    2    1    2    0    0 -0.28373500655E+02 -0.10430436652E+02  0.10142536417E+02  0.59301943593E+02  0.49999999208E+02 0.  0.
         12    1    1    2    0    0  0.28373500655E+02  0.10430436652E+02 -0.10142536417E+02  0.31886056407E+02  0.00000000000E+00 0. -1.
         11    1    3    3    0    0 -0.30242236499E+02  0.48307413207E+01  0.20049004213E+01  0.30691180429E+02  0.51100000000E-03 0. -1.
        -11    1    3    3    0    0 -0.30706699834E+01 -0.14543503851E+02  0.14337086453E+02  0.20651744881E+02  0.51100000000E-03 0.  1.
        -12    1    3    3    0    0  0.49394058267E+01 -0.71767412186E+00 -0.61994504572E+01  0.79590182835E+01  0.00000000000E+00 0.  1.
</event>
<event>
 7    1  0.6672802E-013  0.5930196E+02  0.7816164E-02  0.1266605E+00
        -11   -1    0    0    0    0  0.00000000000E+00  0.00000000000E+00  0.45593999997E+02  0.45594000000E+02  0.51100000000E-03 0.  1.
         11   -1    0    0    0    0 -0.00000000000E+00 -0.00000000000E+00 -0.45593999997E+02  0.45594000000E+02  0.51100000000E-03 0. -1.
    9900012    2    1    2    0    0 -0.15900657744E+01  0.29831841426E+02  0.11146849884E+02  0.59301963333E+02  0.50000035208E+02 0.  0.
         12    1    1    2    0    0  0.15900657744E+01 -0.29831841426E+02 -0.11146849884E+02  0.31886036667E+02  0.00000000000E+00 0. -1.
         11    1    3    3    0    0  0.82408911653E+01 -0.88019013848E+01  0.76273477548E+01  0.14267522182E+02  0.51100000000E-03 0. -1.
        -11    1    3    3    0    0 -0.62883433108E+01  0.29143718781E+01  0.58423254763E+01  0.90647444680E+01  0.51100000000E-03 0.  1.
         12    1    3    3    0    0 -0.35426136290E+01  0.35719370932E+02 -0.23228233474E+01  0.35969696683E+02  0.00000000000E+00 0. -1.
</event>
<event>
 7    1  0.6672802E-013  0.5930194E+02  0.7816164E-02  0.1266605E+00
        -11   -1    0    0    0    0  0.00000000000E+00  0.00000000000E+00  0.45593999997E+02  0.45594000000E+02  0.51100000000E-03 0.  1.
         11   -1    0    0    0    0 -0.00000000000E+00 -0.00000000000E+00 -0.45593999997E+02  0.45594000000E+02  0.51100000000E-03 0. -1.
    9900012    2    1    2    0    0  0.10062810482E+02  0.28410387520E+02  0.10407231561E+02  0.59301941250E+02  0.49999994934E+02 0.  0.
         12    1    1    2    0    0 -0.10062810482E+02 -0.28410387520E+02 -0.10407231561E+02  0.31886058750E+02  0.00000000000E+00 0. -1.
         11    1    3    3    0    0 -0.25535091399E+01  0.90083574463E+01  0.84968627593E+01  0.12643875585E+02  0.51100000000E-03 0. -1.
        -11    1    3    3    0    0  0.49481216666E+01  0.13786485350E+02  0.20842132235E+02  0.25474409958E+02  0.51100000000E-03 0.  1.
         12    1    3    3    0    0  0.76681979550E+01  0.56155447239E+01 -0.18931763433E+02  0.21183655707E+02  0.00000000000E+00 0. -1.
</event>
<event>
 7    1  0.6672802E-013  0.5930194E+02  0.7816164E-02  0.1266605E+00
        -11   -1    0    0    0    0  0.00000000000E+00  0.00000000000E+00  0.45593999997E+02  0.45594000000E+02  0.51100000000E-03 0.  1.
         11   -1    0    0    0    0 -0.00000000000E+00 -0.00000000000E+00 -0.45593999997E+02  0.45594000000E+02  0.51100000000E-03 0. -1.
    9900012    2    1    2    0    0  0.99226656790E+00 -0.93333750795E+01  0.30473338098E+02  0.59301940065E+02  0.49999992773E+02 0.  0.
         12    1    1    2    0    0 -0.99226656790E+00  0.93333750795E+01 -0.30473338098E+02  0.31886059935E+02  0.00000000000E+00 0. -1.
         11    1    3    3    0    0  0.13445756483E+02 -0.61539327913E+01  0.18117323115E+02  0.23385821630E+02  0.51100000000E-03 0. -1.
        -11    1    3    3    0    0 -0.44803824096E+00  0.11474837840E+02 -0.26066338369E+01  0.11775703034E+02  0.51100000000E-03 0.  1.
        -12    1    3    3    0    0 -0.12005451674E+02 -0.14654280129E+02  0.14962648820E+02  0.24140415401E+02  0.00000000000E+00 0.  1.
</event>
<event>
 7    1  0.6672802E-013  0.5930194E+02  0.7816164E-02  0.1266605E+00
        -11   -1    0    0    0    0  0.00000000000E+00  0.00000000000E+00  0.45593999997E+02  0.45594000000E+02  0.51100000000E-03 0. -1.
         11   -1    0    0    0    0 -0.00000000000E+00 -0.00000000000E+00 -0.45593999997E+02  0.45594000000E+02  0.51100000000E-03 0.  1.
    9900012    2    1    2    0    0 -0.29827934465E+02  0.59533047200E+01 -0.95693819423E+01  0.59301943764E+02  0.49999999518E+02 0.  0.
         12    1    1    2    0    0  0.29827934465E+02 -0.59533047200E+01  0.95693819423E+01  0.31886056236E+02  0.00000000000E+00 0. -1.
         11    1    3    3    0    0 -0.46439823808E+01  0.87664486767E+01  0.51211127733E+01  0.11164362546E+02  0.51100000000E-03 0. -1.
        -11    1    3    3    0    0 -0.23920526890E+02 -0.44001880465E+01  0.78106026313E+01  0.25545229990E+02  0.51100000000E-03 0.  1.
        -12    1    3    3    0    0 -0.12634251946E+01  0.15870440897E+01 -0.22501097347E+02  0.22592351227E+02  0.00000000000E+00 0.  1.
</event>
<event>
 7    1  0.6672802E-013  0.5930193E+02  0.7816164E-02  0.1266605E+00
        -11   -1    0    0    0    0  0.00000000000E+00  0.00000000000E+00  0.45593999997E+02  0.45594000000E+02  0.51100000000E-03 0. -1.
         11   -1    0    0    0    0 -0.00000000000E+00 -0.00000000000E+00 -0.45593999997E+02  0.45594000000E+02  0.51100000000E-03 0.  1.
    9900012    2    1    2    0    0 -0.77990075470E+01 -0.22318559588E+02 -0.21395763336E+02  0.59301932360E+02  0.49999978720E+02 0.  0.
         12    1    1    2    0    0  0.77990075470E+01  0.22318559588E+02  0.21395763336E+02  0.31886067640E+02  0.00000000000E+00 0. -1.
         11    1    3    3    0    0 -0.54556442713E+01 -0.17972735576E+01  0.36314699922E+01  0.67957208022E+01  0.51100000000E-03 0. -1.
        -11    1    3    3    0    0 -0.17342912523E+02  0.57501847817E+00 -0.19377966335E+02  0.26011782726E+02  0.51100000000E-03 0.  1.
         12    1    3    3    0    0  0.14999549247E+02 -0.21096304509E+02 -0.56492669936E+01  0.26494428832E+02  0.00000000000E+00 0. -1.
</event>
<event>
 7    1  0.6672802E-013  0.5930194E+02  0.7816164E-02  0.1266605E+00
        -11   -1    0    0    0    0  0.00000000000E+00  0.00000000000E+00  0.45593999997E+02  0.45594000000E+02  0.51100000000E-03 0. -1.
         11   -1    0    0    0    0 -0.00000000000E+00 -0.00000000000E+00 -0.45593999997E+02  0.45594000000E+02  0.51100000000E-03 0.  1.
    9900012    2    1    2    0    0  0.31471077599E+02  0.37438310185E+01  0.35037083718E+01  0.59301937711E+02  0.49999988480E+02 0.  0.
         12    1    1    2    0    0 -0.31471077599E+02 -0.37438310185E+01 -0.35037083718E+01  0.31886062289E+02  0.00000000000E+00 0. -1.
         11    1    3    3    0    0 -0.19286833939E+01  0.93797155141E+01 -0.56218093507E+01  0.11104216469E+02  0.51100000000E-03 0. -1.
        -11    1    3    3    0    0 -0.58965170775E+01  0.79601296318E+00 -0.28768256612E+01  0.66089845233E+01  0.51100000000E-03 0.  1.
         12    1    3    3    0    0  0.39296278071E+02 -0.64318974588E+01  0.12002343384E+02  0.41588736718E+02  0.00000000000E+00 0. -1.
</event>
