<event>
 7    1  0.3509180E-013  0.7246161E+02  0.7816164E-02  0.1226708E+00
        -11   -1    0    0    0    0  0.00000000000E+00  0.00000000000E+00  0.45593999997E+02  0.45594000000E+02  0.51100000000E-03 0.  1.
         11   -1    0    0    0    0 -0.00000000000E+00 -0.00000000000E+00 -0.45593999997E+02  0.45594000000E+02  0.51100000000E-03 0. -1.
    9900012    2    1    2    0    0  0.33979470369E+01 -0.13916833420E+01 -0.18362868642E+02  0.72461607626E+02  0.70000048631E+02 0.  0.
        -12    1    1    2    0    0 -0.33979470369E+01  0.13916833420E+01  0.18362868642E+02  0.18726392374E+02  0.00000000000E+00 0.  1.
         11    1    3    3    0    0  0.21991776167E+02 -0.46725989609E+01 -0.26386901101E+02  0.34666121069E+02  0.51100000000E-03 0. -1.
        -11    1    3    3    0    0 -0.32573118894E+01  0.15783112370E+02 -0.78859946370E+00  0.16135011813E+02  0.51100000000E-03 0.  1.
        -12    1    3    3    0    0 -0.15336517241E+02 -0.12502196752E+02  0.88126319222E+01  0.21660474743E+02  0.00000000000E+00 0.  1.
</event>
<event>
 7    1  0.3509180E-013  0.7246156E+02  0.7816164E-02  0.1226708E+00
        -11   -1    0    0    0    0  0.00000000000E+00  0.00000000000E+00  0.45593999997E+02  0.45594000000E+02  0.51100000000E-03 0.  1.
         11   -1    0    0    0    0 -0.00000000000E+00 -0.00000000000E+00 -0.45593999997E+02  0.45594000000E+02  0.51100000000E-03 0. -1.
    9900012    2    1    2    0    0 -0.47366394237E+01  0.10726166674E+02 -0.14601136539E+02  0.72461558994E+02  0.69999985279E+02 0.  0.
        -12    1    1    2    0    0  0.47366394237E+01 -0.10726166674E+02  0.14601136539E+02  0.18726441006E+02  0.00000000000E+00 0.  1.
         11    1    3    3    0    0  0.81498609888E+00 -0.29839375916E+01 -0.94900320771E+01  0.99814224926E+01  0.51100000000E-03 0. -1.
        -11    1    3    3    0    0  0.14389248880E+02  0.85449337371E+01  0.22494031842E+02  0.28036544806E+02  0.51100000000E-03 0.  1.
         12    1    3    3    0    0 -0.19940874402E+02  0.51651705281E+01 -0.27605136304E+02  0.34443591695E+02  0.00000000000E+00 0. -1.
</event>
<event>
 7    1  0.3509180E-013  0.7246156E+02  0.7816164E-02  0.1226708E+00
        -11   -1    0    0    0    0  0.00000000000E+00  0.00000000000E+00  0.45593999997E+02  0.45594000000E+02  0.51100000000E-03 0. -1.
         11   -1    0    0    0    0 -0.00000000000E+00 -0.00000000000E+00 -0.45593999997E+02  0.45594000000E+02  0.51100000000E-03 0.  1.
    9900012    2    1    2    0    0  0.69484886453E+01  0.17378714442E+02  0.61499160464E+00  0.72461563479E+02  0.69999991121E+02 0.  0.
        -12    1    1    2    0    0 -0.69484886453E+01 -0.17378714442E+02 -0.61499160464E+00  0.18726436521E+02  0.00000000000E+00 0.  1.
         11    1    3    3    0    0 -0.13168848493E+02  0.13137929618E+02  0.11675349353E+02  0.21962184501E+02  0.51100000000E-03 0. -1.
        -11    1    3    3    0    0  0.61728530398E+01 -0.19505949185E+02  0.89273293480E+00  0.20478846174E+02  0.51100000000E-03 0.  1.
        -12    1    3    3    0    0  0.13944484099E+02  0.23746734010E+02 -0.11953090683E+02  0.30020532803E+02  0.00000000000E+00 0.  1.
</event>
<event>
 7    1  0.3509180E-013  0.7246157E+02  0.7816164E-02  0.1226708E+00
        -11   -1    0    0    0    0  0.00000000000E+00  0.00000000000E+00  0.45593999997E+02  0.45594000000E+02  0.51100000000E-03 0. -1.
         11   -1    0    0    0    0 -0.00000000000E+00 -0.00000000000E+00 -0.45593999997E+02  0.45594000000E+02  0.51100000000E-03 0.  1.
    9900012    2    1    2    0    0  0.61403709713E+01 -0.17656519057E+02 -0.11056374812E+01  0.72461568009E+02  0.69999997023E+02 0.  0.
        -12    1    1    2    0    0 -0.61403709713E+01  0.17656519057E+02  0.11056374812E+01  0.18726431991E+02  0.00000000000E+00 0.  1.
         11    1    3    3    0    0  0.18180123410E+02  0.71598254130E+01  0.80443595835E+01  0.21130350412E+02  0.51100000000E-03 0. -1.
        -11    1    3    3    0    0  0.85717317565E+01 -0.26169540568E+02 -0.12780285150E+02  0.30358773486E+02  0.51100000000E-03 0.  1.
         12    1    3    3    0    0 -0.20611484195E+02  0.13531960972E+01  0.36302880850E+01  0.20972444111E+02  0.00000000000E+00 0. -1.
</event>
<event>
 7    1  0.3509180E-013  0.7246161E+02  0.7816164E-02  0.1226708E+00
        -11   -1    0    0    0    0  0.00000000000E+00  0.00000000000E+00  0.45593999997E+02  0.45594000000E+02  0.51100000000E-03 0.  1.
         11   -1    0    0    0    0 -0.00000000000E+00 -0.00000000000E+00 -0.45593999997E+02  0.45594000000E+02  0.51100000000E-03 0. -1.
    9900012    2    1    2    0    0  0.20999945064E+01  0.42683197680E+00 -0.18603372276E+02  0.72461611601E+02  0.70000053809E+02 0.  0.
        -12    1    1    2    0    0 -0.20999945064E+01 -0.42683197680E+00  0.18603372276E+02  0.18726388399E+02  0.00000000000E+00 0.  1.
         11    1    3    3    0    0  0.43559810625E+01 -0.30824824979E+01 -0.23386291788E+01  0.58262729136E+01  0.51100000000E-03 0. -1.
        -11    1    3    3    0    0 -0.14351048147E+01 -0.27087438972E+02  0.72039380899E+01  0.28065737121E+02  0.51100000000E-03 0.  1.
         12    1    3    3    0    0 -0.82088174139E+00  0.30596753447E+02 -0.23468681187E+02  0.38569601566E+02  0.00000000000E+00 0. -1.
</event>
<event>
 7    1  0.3509180E-013  0.7246159E+02  0.7816164E-02  0.1226708E+00
        -11   -1    0    0    0    0  0.00000000000E+00  0.00000000000E+00  0.45593999997E+02  0.45594000000E+02  0.51100000000E-03 0.  1.
         11   -1    0    0    0    0 -0.00000000000E+00 -0.00000000000E+00 -0.45593999997E+02  0.45594000000E+02  0.51100000000E-03 0. -1.
    9900012    2    1    2    0    0  0.15690782490E+02 -0.67931017270E+01 -0.76375121145E+01  0.72461588771E+02  0.70000024069E+02 0.  0.
        -12    1    1    2    0    0 -0.15690782490E+02  0.67931017270E+01  0.76375121145E+01  0.18726411229E+02  0.00000000000E+00 0.  1.
         11    1    3    3    0    0  0.53606333430E+01  0.55502845569E+01 -0.11500805551E+02  0.13849569563E+02  0.51100000000E-03 0. -1.
        -11    1    3    3    0    0 -0.13116681113E+02  0.10426464936E+02 -0.13577268578E+02  0.21566193840E+02  0.51100000000E-03 0.  1.
         12    1    3    3    0    0  0.23446830259E+02 -0.22769851220E+02  0.17440562014E+02  0.37045825367E+02  0.00000000000E+00 0. -1.
</event>
<event>
 7    1  0.3509180E-013  0.7246158E+02  0.7816164E-02  0.1226708E+00
        -11   -1    0    0    0    0  0.00000000000E+00  0.00000000000E+00  0.45593999997E+02  0.45594000000E+02  0.51100000000E-03 0.  1.
         11   -1    0    0    0    0 -0.00000000000E+00 -0.00000000000E+00 -0.45593999997E+02  0.45594000000E+02  0.51100000000E-03 0. -1.
    9900012    2    1    2    0    0  0.10290679748E+02 -0.62951062893E+01 -0.14323143331E+02  0.72461577817E+02  0.70000009800E+02 0.  0.
        -12    1    1    2    0    0 -0.10290679748E+02  0.62951062893E+01  0.14323143331E+02  0.18726422183E+02  0.00000000000E+00 0.  1.
         11    1    3    3    0    0  0.69477614661E+01 -0.76937108669E+01 -0.19668845298E+02  0.22233489423E+02  0.51100000000E-03 0. -1.
        -11    1    3    3    0    0  0.12749687913E+02  0.17820439036E+02 -0.11628291377E+02  0.24806042609E+02  0.51100000000E-03 0.  1.
        -12    1    3    3    0    0 -0.94067696304E+01 -0.16421834459E+02  0.16973993344E+02  0.25422045785E+02  0.00000000000E+00 0.  1.
</event>
<event>
 7    1  0.3509180E-013  0.7246152E+02  0.7816164E-02  0.1226708E+00
        -11   -1    0    0    0    0  0.00000000000E+00  0.00000000000E+00  0.45593999997E+02  0.45594000000E+02  0.51100000000E-03 0. -1.
         11   -1    0    0    0    0 -0.00000000000E+00 -0.00000000000E+00 -0.45593999997E+02  0.45594000000E+02  0.51100000000E-03 0.  1.
    9900012    2    1    2    0    0 -0.10068072065E+02  0.96894792188E+01  0.12467111998E+02  0.72461522376E+02  0.69999937578E+02 0.  0.
        -12    1    1    2    0    0  0.10068072065E+02 -0.96894792188E+01 -0.12467111998E+02  0.18726477624E+02  0.00000000000E+00 0.  1.
         11    1    3    3    0    0 -0.17193983496E+02  0.23215171040E+02 -0.18075133902E+02  0.34077671586E+02  0.51100000000E-03 0. -1.
        -11    1    3    3    0    0  0.36468394315E+01  0.37803833323E+01  0.44663181869E+01  0.68948338911E+01  0.51100000000E-03 0.  1.
        -12    1    3    3    0    0  0.34790719998E+01 -0.17306075154E+02  0.26075927713E+02  0.31489016899E+02  0.00000000000E+00 0.  1.
</event>
<event>
 7    1  0.3509180E-013  0.7246166E+02  0.7816164E-02  0.1226708E+00
        -11   -1    0    0    0    0  0.00000000000E+00  0.00000000000E+00  0.45593999997E+02  0.45594000000E+02  0.51100000000E-03 0.  1.
         11   -1    0    0    0    0 -0.00000000000E+00 -0.00000000000E+00 -0.45593999997E+02  0.45594000000E+02  0.51100000000E-03 0. -1.
    9900012    2    1    2    0    0 -0.43570991833E+01  0.15585256334E+02  0.94229171722E+01  0.72461657689E+02  0.70000113848E+02 0.  0.
        -12    1    1    2    0    0  0.43570991833E+01 -0.15585256334E+02 -0.94229171722E+01  0.18726342311E+02  0.00000000000E+00 0.  1.
         11    1    3    3    0    0  0.20455206900E+02  0.47454070661E+01  0.16571878048E+02  0.26749981679E+02  0.51100000000E-03 0. -1.
        -11    1    3    3    0    0 -0.94792854969E+01  0.91204296899E+01  0.14209246469E+02  0.19363413355E+02  0.51100000000E-03 0.  1.
        -12    1    3    3    0    0 -0.15333020586E+02  0.17194195783E+01 -0.21358207345E+02  0.26348262656E+02  0.00000000000E+00 0.  1.
</event>
<event>
 7    1  0.3509180E-013  0.7246160E+02  0.7816164E-02  0.1226708E+00
        -11   -1    0    0    0    0  0.00000000000E+00  0.00000000000E+00  0.45593999997E+02  0.45594000000E+02  0.51100000000E-03 0.  1.
         11   -1    0    0    0    0 -0.00000000000E+00 -0.00000000000E+00 -0.45593999997E+02  0.45594000000E+02  0.51100000000E-03 0. -1.
    9900012    2    1    2    0    0  0.13342927148E+02  0.92342401128E+01 -0.93473569392E+01  0.72461602133E+02  0.70000041475E+02 0.  0.
        -12    1    1    2    0    0 -0.13342927148E+02 -0.92342401128E+01  0.93473569392E+01  0.18726397867E+02  0.00000000000E+00 0.  1.
         11    1    3    3    0    0  0.24042442395E+02 -0.12725502391E+02  0.73776830789E+01  0.28185238252E+02  0.51100000000E-03 0. -1.
        -11    1    3    3    0    0  0.96364498938E+01  0.43654225621E+01  0.29193037809E+01  0.10974534866E+02  0.51100000000E-03 0.  1.
         12    1    3    3    0    0 -0.20335965141E+02  0.17594319942E+02 -0.19644343799E+02  0.33301829015E+02  0.00000000000E+00 0. -1.
</event>
<event>
 7    1  0.3509180E-013  0.7246158E+02  0.7816164E-02  0.1226708E+00
        -11   -1    0    0    0    0  0.00000000000E+00  0.00000000000E+00  0.45593999997E+02  0.45594000000E+02  0.51100000000E-03 0. -1.
         11   -1    0    0    0    0 -0.00000000000E+00 -0.00000000000E+00 -0.45593999997E+02  0.45594000000E+02  0.51100000000E-03 0.  1.
    9900012    2    1    2    0    0  0.56528757342E+01 -0.54291258685E+01  0.17007299486E+02  0.72461584231E+02  0.70000018155E+02 0.  0.
        -12    1    1    2    0    0 -0.56528757342E+01  0.54291258685E+01 -0.17007299486E+02  0.18726415769E+02  0.00000000000E+00 0.  1.
         11    1    3    3    0    0  0.10534302990E+02 -0.10434303874E+02  0.12861260718E+02  0.19627996952E+02  0.51100000000E-03 0. -1.
        -11    1    3    3    0    0 -0.15617441611E+02 -0.92681624317E+01  0.21354157290E+02  0.28032184203E+02  0.51100000000E-03 0.  1.
        -12    1    3    3    0    0  0.10736014356E+02  0.14273340437E+02 -0.17208118523E+02  0.24801403076E+02  0.00000000000E+00 0.  1.
</event>
<event>
 7    1  0.3509180E-013  0.7246157E+02  0.7816164E-02  0.1226708E+00
        -11   -1    0    0    0    0  0.00000000000E+00  0.00000000000E+00  0.45593999997E+02  0.45594000000E+02  0.51100000000E-03 0.  1.
         11   -1    0    0    0    0 -0.00000000000E+00 -0.00000000000E+00 -0.45593999997E+02  0.45594000000E+02  0.51100000000E-03 0. -1.
    9900012    2    1    2    0    0  0.96893046081E+01 -0.14604048076E+02 -0.65968364288E+01  0.72461572288E+02  0.70000002597E+02 0.  0.
        -12    1    1    2    0    0 -0.96893046081E+01  0.14604048076E+02  0.65968364288E+01  0.18726427712E+02  0.00000000000E+00 0.  1.
         11    1    3    3    0    0  0.86694938890E+01  0.10465698700E+01  0.11654562773E+02  0.14563113214E+02  0.51100000000E-03 0. -1.
        -11    1    3    3    0    0  0.17400583904E+02  0.12037684042E+02 -0.52077671529E+00  0.21165003330E+02  0.51100000000E-03 0.  1.
         12    1    3    3    0    0 -0.16380773185E+02 -0.27688301988E+02 -0.17730622487E+02  0.36733455744E+02  0.00000000000E+00 0. -1.
</event>
<event>
 7    1  0.3509180E-013  0.7246153E+02  0.7816164E-02  0.1226708E+00
        -11   -1    0    0    0    0  0.00000000000E+00  0.00000000000E+00  0.45593999997E+02  0.45594000000E+02  0.51100000000E-03 0.  1.
         11   -1    0    0    0    0 -0.00000000000E+00 -0.00000000000E+00 -0.45593999997E+02  0.45594000000E+02  0.51100000000E-03 0. -1.
    9900012    2    1    2    0    0  0.98724573378E+01  0.25738832074E+01 -0.15703193181E+02  0.72461533042E+02  0.69999951472E+02 0.  0.
        -12    1    1    2    0    0 -0.98724573378E+01 -0.25738832074E+01  0.15703193181E+02  0.18726466958E+02  0.00000000000E+00 0.  1.
         11    1    3    3    0    0 -0.19755164371E+02  0.38306681271E+01 -0.42488714469E+01  0.20566804478E+02  0.51100000000E-03 0. -1.
        -11    1    3    3    0    0  0.93636334815E+01  0.21242643478E+01 -0.25340016141E+02  0.27098091248E+02  0.51100000000E-03 0.  1.
        -12    1    3    3    0    0  0.20263988227E+02 -0.33810492676E+01  0.13885694407E+02  0.24796637316E+02  0.00000000000E+00 0.  1.
</event>
<event>
 7    1  0.3509180E-013  0.7246156E+02  0.7816164E-02  0.1226708E+00
        -11   -1    0    0    0    0  0.00000000000E+00  0.00000000000E+00  0.45593999997E+02  0.45594000000E+02  0.51100000000E-03 0.  1.
         11   -1    0    0    0    0 -0.00000000000E+00 -0.00000000000E+00 -0.45593999997E+02  0.45594000000E+02  0.51100000000E-03 0. -1.
    9900012    2    1    2    0    0 -0.60266875879E+01 -0.57332135467E+00 -0.17720885052E+02  0.72461563401E+02  0.69999991021E+02 0.  0.
        -12    1    1    2    0    0  0.60266875879E+01  0.57332135467E+00  0.17720885052E+02  0.18726436599E+02  0.00000000000E+00 0.  1.
         11    1    3    3    0    0 -0.11439178150E+02 -0.11167503658E+01 -0.23147590335E+02  0.25844010268E+02  0.51100000000E-03 0. -1.
        -11    1    3    3    0    0  0.16510473147E+02 -0.17631400373E+02 -0.15603720791E+01  0.24205304459E+02  0.51100000000E-03 0.  1.
         12    1    3    3    0    0 -0.11097982585E+02  0.18174829384E+02  0.69870773625E+01  0.22412248675E+02  0.00000000000E+00 0. -1.
</event>
<event>
 7    1  0.3509180E-013  0.7246167E+02  0.7816164E-02  0.1226708E+00
        -11   -1    0    0    0    0  0.00000000000E+00  0.00000000000E+00  0.45593999997E+02  0.45594000000E+02  0.51100000000E-03 0.  1.
         11   -1    0    0    0    0 -0.00000000000E+00 -0.00000000000E+00 -0.45593999997E+02  0.45594000000E+02  0.51100000000E-03 0. -1.
    9900012    2    1    2    0    0  0.30354962744E+00  0.59055839640E+01 -0.17768159885E+02  0.72461666402E+02  0.70000125198E+02 0.  0.
        -12    1    1    2    0    0 -0.30354962744E+00 -0.59055839640E+01  0.17768159885E+02  0.18726333598E+02  0.00000000000E+00 0.  1.
         11    1    3    3    0    0  0.20015330946E+01 -0.16502972941E+02 -0.97353143508E+01  0.19264750100E+02  0.51100000000E-03 0. -1.
        -11    1    3    3    0    0 -0.92816151275E+01 -0.13152931940E+02 -0.76282757454E+00  0.16116138004E+02  0.51100000000E-03 0.  1.
         12    1    3    3    0    0  0.75836316603E+01  0.35561488845E+02 -0.72700179598E+01  0.37080778298E+02  0.00000000000E+00 0. -1.
</event>
<event>
 7    1  0.3509180E-013  0.7246150E+02  0.7816164E-02  0.1226708E+00
        -11   -1    0    0    0    0  0.00000000000E+00  0.00000000000E+00  0.45593999997E+02  0.45594000000E+02  0.51100000000E-03 0.  1.
         11   -1    0    0    0    0 -0.00000000000E+00 -0.00000000000E+00 -0.45593999997E+02  0.45594000000E+02  0.51100000000E-03 0. -1.
    9900012    2    1    2    0    0  0.80379620577E+01 -0.16139254838E+02  0.50593814522E+01  0.72461502157E+02  0.69999911239E+02 0.  0.
        -12    1    1    2    0    0 -0.80379620577E+01  0.16139254838E+02 -0.50593814522E+01  0.18726497843E+02  0.00000000000E+00 0.  1.
         11    1    3    3    0    0 -0.18477578066E+02 -0.87736515625E+01 -0.39462390996E+01  0.20831962371E+02  0.51100000000E-03 0. -1.
        -11    1    3    3    0    0  0.35797073558E+00 -0.69431915487E+01  0.21530297913E+02  0.22624981335E+02  0.51100000000E-03 0.  1.
         12    1    3    3    0    0  0.26157569388E+02 -0.42241172708E+00 -0.12524677361E+02  0.29004558452E+02  0.00000000000E+00 0. -1.
</event>
<event>
 7    1  0.3509180E-013  0.7246157E+02  0.7816164E-02  0.1226708E+00
        -11   -1    0    0    0    0  0.00000000000E+00  0.00000000000E+00  0.45593999997E+02  0.45594000000E+02  0.51100000000E-03 0.  1.
         11   -1    0    0    0    0 -0.00000000000E+00 -0.00000000000E+00 -0.45593999997E+02  0.45594000000E+02  0.51100000000E-03 0. -1.
    9900012    2    1    2    0    0  0.16354505543E+02  0.52566559260E+00 -0.91067602611E+01  0.72461567923E+02  0.69999996911E+02 0.  0.
        -12    1    1    2    0    0 -0.16354505543E+02 -0.52566559260E+00  0.91067602611E+01  0.18726432077E+02  0.00000000000E+00 0.  1.
         11    1    3    3    0    0 -0.62964234447E+01 -0.82640856187E+01 -0.85707208663E+01  0.13468382076E+02  0.51100000000E-03 0. -1.
        -11    1    3    3    0    0 -0.40021827817E+01  0.25690297934E+02 -0.66717935988E+01  0.26842535369E+02  0.51100000000E-03 0.  1.
         12    1    3    3    0    0  0.26653111770E+02 -0.16900546722E+02  0.61357542039E+01  0.32150650478E+02  0.00000000000E+00 0. -1.
</event>
<event>
 7    1  0.3509180E-013  0.7246157E+02  0.7816164E-02  0.1226708E+00
        -11   -1    0    0    0    0  0.00000000000E+00  0.00000000000E+00  0.45593999997E+02  0.45594000000E+02  0.51100000000E-03 0.  1.
         11   -1    0    0    0    0 -0.00000000000E+00 -0.00000000000E+00 -0.45593999997E+02  0.45594000000E+02  0.51100000000E-03 0. -1.
    9900012    2    1    2    0    0  0.15807477240E+02  0.10036194873E+02  0.27830576435E+00  0.72461574865E+02  0.70000005955E+02 0.  0.
        -12    1    1    2    0    0 -0.15807477240E+02 -0.10036194873E+02 -0.27830576435E+00  0.18726425135E+02  0.00000000000E+00 0.  1.
         11    1    3    3    0    0 -0.12412906781E+02  0.23386651684E+02 -0.55964769406E+01  0.27061712550E+02  0.51100000000E-03 0. -1.
        -11    1    3    3    0    0  0.48297418162E+01  0.81682458264E+01  0.94793294426E+01  0.13412842086E+02  0.51100000000E-03 0.  1.
         12    1    3    3    0    0  0.23390642205E+02 -0.21518702637E+02 -0.36045467376E+01  0.31987020229E+02  0.00000000000E+00 0. -1.
</event>
<event>
 7    1  0.3509180E-013  0.7246155E+02  0.7816164E-02  0.1226708E+00
        -11   -1    0    0    0    0  0.00000000000E+00  0.00000000000E+00  0.45593999997E+02  0.45594000000E+02  0.51100000000E-03 0.  1.
         11   -1    0    0    0    0 -0.00000000000E+00 -0.00000000000E+00 -0.45593999997E+02  0.45594000000E+02  0.51100000000E-03 0. -1.
    9900012    2    1    2    0    0 -0.15468778584E+02  0.60247585159E+01 -0.86659709062E+01  0.72461551383E+02  0.69999975364E+02 0.  0.
        -12    1    1    2    0    0  0.15468778584E+02 -0.60247585159E+01  0.86659709062E+01  0.18726448617E+02  0.00000000000E+00 0.  1.
         11    1    3    3    0    0  0.13995517913E+02  0.15158314639E+02  0.23401080279E+01  0.20763552928E+02  0.51100000000E-03 0.  1.
        -11    1    3    3    0    0 -0.17194033384E+02  0.13423958932E+02  0.36713752480E+01  0.22120498500E+02  0.51100000000E-03 0. -1.
        -12    1    3    3    0    0 -0.12270263113E+02 -0.22557515055E+02 -0.14677454182E+02  0.29577499955E+02  0.00000000000E+00 0.  1.
</event>
<event>
 7    1  0.3509180E-013  0.7246162E+02  0.7816164E-02  0.1226708E+00
        -11   -1    0    0    0    0  0.00000000000E+00  0.00000000000E+00  0.45593999997E+02  0.45594000000E+02  0.51100000000E-03 0.  1.
         11   -1    0    0    0    0 -0.00000000000E+00 -0.00000000000E+00 -0.45593999997E+02  0.45594000000E+02  0.51100000000E-03 0. -1.
    9900012    2    1    2    0    0  0.12470084513E+02  0.98842300618E+01 -0.98730055738E+01  0.72461621526E+02  0.70000066739E+02 0.  0.
        -12    1    1    2    0    0 -0.12470084513E+02 -0.98842300618E+01  0.98730055738E+01  0.18726378474E+02  0.00000000000E+00 0.  1.
         11    1    3    3    0    0 -0.19477448553E+02  0.53921190390E+01 -0.55724053642E+01  0.20964199286E+02  0.51100000000E-03 0. -1.
        -11    1    3    3    0    0 -0.58232174934E+01  0.16320964538E+00 -0.11418636662E+02  0.12818805048E+02  0.51100000000E-03 0.  1.
        -12    1    3    3    0    0  0.37770750560E+02  0.43289013774E+01  0.71180364529E+01  0.38678617193E+02  0.00000000000E+00 0.  1.
</event>
<event>
 7    1  0.3509180E-013  0.7246177E+02  0.7816164E-02  0.1226707E+00
        -11   -1    0    0    0    0  0.00000000000E+00  0.00000000000E+00  0.45593999997E+02  0.45594000000E+02  0.51100000000E-03 0.  1.
         11   -1    0    0    0    0 -0.00000000000E+00 -0.00000000000E+00 -0.45593999997E+02  0.45594000000E+02  0.51100000000E-03 0. -1.
    9900012    2    1    2    0    0  0.20337618049E+01 -0.18525513014E+02 -0.18277541476E+01  0.72461774947E+02  0.70000266597E+02 0.  0.
        -12    1    1    2    0    0 -0.20337618049E+01  0.18525513014E+02  0.18277541476E+01  0.18726225053E+02  0.00000000000E+00 0.  1.
         11    1    3    3    0    0 -0.23470291196E+02 -0.16123479970E+02 -0.10400723380E+02  0.30314950474E+02  0.51100000000E-03 0. -1.
        -11    1    3    3    0    0  0.45459739842E+01 -0.13903786931E+02 -0.39592825433E+01  0.15154441231E+02  0.51100000000E-03 0.  1.
         12    1    3    3    0    0  0.20958079017E+02  0.11501753887E+02  0.12532251775E+02  0.26992383242E+02  0.00000000000E+00 0. -1.
</event>
<event>
 7    1  0.3509180E-013  0.7246154E+02  0.7816164E-02  0.1226708E+00
        -11   -1    0    0    0    0  0.00000000000E+00  0.00000000000E+00  0.45593999997E+02  0.45594000000E+02  0.51100000000E-03 0.  1.
         11   -1    0    0    0    0 -0.00000000000E+00 -0.00000000000E+00 -0.45593999997E+02  0.45594000000E+02  0.51100000000E-03 0. -1.
    9900012    2    1    2    0    0  0.37556982472E+01 -0.10944021795E+02  0.14724243695E+02  0.72461541852E+02  0.69999962949E+02 0.  0.
        -12    1    1    2    0    0 -0.37556982472E+01  0.10944021795E+02 -0.14724243695E+02  0.18726458148E+02  0.00000000000E+00 0.  1.
         11    1    3    3    0    0 -0.17516924979E+02 -0.28313257332E+01 -0.18580704646E+02  0.25692443471E+02  0.51100000000E-03 0. -1.
        -11    1    3    3    0    0  0.83411401062E+01  0.79957435296E+01  0.16481640546E+02  0.20128363277E+02  0.51100000000E-03 0.  1.
        -12    1    3    3    0    0  0.12931483120E+02 -0.16108439592E+02  0.16823307794E+02  0.26640735104E+02  0.00000000000E+00 0.  1.
</event>
<event>
 7    1  0.3509180E-013  0.7246159E+02  0.7816164E-02  0.1226708E+00
        -11   -1    0    0    0    0  0.00000000000E+00  0.00000000000E+00  0.45593999997E+02  0.45594000000E+02  0.51100000000E-03 0.  1.
         11   -1    0    0    0    0 -0.00000000000E+00 -0.00000000000E+00 -0.45593999997E+02  0.45594000000E+02  0.51100000000E-03 0. -1.
    9900012    2    1    2    0    0  0.15437755418E+02 -0.10333611839E+02 -0.23602053788E+01  0.72461590963E+02  0.70000026925E+02 0.  0.
        -12    1    1    2    0    0 -0.15437755418E+02  0.10333611839E+02  0.23602053788E+01  0.18726409037E+02  0.00000000000E+00 0.  1.
         11    1    3    3    0    0  0.19493015685E+02  0.74922264399E+01 -0.23810818628E+01  0.21018579130E+02  0.51100000000E-03 0. -1.
        -11    1    3    3    0    0  0.19967252613E+02 -0.11232589939E+01  0.73054256570E+01  0.21291362849E+02  0.51100000000E-03 0.  1.
        -12    1    3    3    0    0 -0.24022512880E+02 -0.16702579285E+02 -0.72845491730E+01  0.30151648985E+02  0.00000000000E+00 0.  1.
</event>
<event>
 7    1  0.3509180E-013  0.7246158E+02  0.7816164E-02  0.1226708E+00
        -11   -1    0    0    0    0  0.00000000000E+00  0.00000000000E+00  0.45593999997E+02  0.45594000000E+02  0.51100000000E-03 0. -1.
         11   -1    0    0    0    0 -0.00000000000E+00 -0.00000000000E+00 -0.45593999997E+02  0.45594000000E+02  0.51100000000E-03 0.  1.
    9900012    2    1    2    0    0 -0.60546915138E+01  0.14869135106E+02 -0.96399257303E+01  0.72461584534E+02  0.70000018550E+02 0.  0.
        -12    1    1    2    0    0  0.60546915138E+01 -0.14869135106E+02  0.96399257303E+01  0.18726415466E+02  0.00000000000E+00 0.  1.
         11    1    3    3    0    0 -0.10459145156E+02  0.12605129609E+02 -0.74131500504E-01  0.16379514816E+02  0.51100000000E-03 0. -1.
        -11    1    3    3    0    0  0.70723996551E+01  0.27911179097E+02 -0.94234566867E+01  0.30296110174E+02  0.51100000000E-03 0.  1.
         12    1    3    3    0    0 -0.26679460124E+01 -0.25647173601E+02 -0.14233754303E+00  0.25785959544E+02  0.00000000000E+00 0. -1.
</event>
<event>
 7    1  0.3509180E-013  0.7246157E+02  0.7816164E-02  0.1226708E+00
        -11   -1    0    0    0    0  0.00000000000E+00  0.00000000000E+00  0.45593999997E+02  0.45594000000E+02  0.51100000000E-03 0.  1.
         11   -1    0    0    0    0 -0.00000000000E+00 -0.00000000000E+00 -0.45593999997E+02  0.45594000000E+02  0.51100000000E-03 0. -1.
    9900012    2    1    2    0    0  0.95466855714E+01  0.57150881082E+01 -0.15062465030E+02  0.72461567070E+02  0.69999995800E+02 0.  0.
        -12    1    1    2    0    0 -0.95466855714E+01 -0.57150881082E+01  0.15062465030E+02  0.18726432930E+02  0.00000000000E+00 0.  1.
         11    1    3    3    0    0  0.13999339822E+02  0.13231940079E+02 -0.28960956532E+02  0.34782218981E+02  0.51100000000E-03 0. -1.
        -11    1    3    3    0    0  0.10219156093E+01  0.99426995279E+01  0.16405709222E+02  0.19210644985E+02  0.51100000000E-03 0.  1.
        -12    1    3    3    0    0 -0.54745698598E+01 -0.17459551498E+02 -0.25072177197E+01  0.18468703105E+02  0.00000000000E+00 0.  1.
</event>
<event>
 7    1  0.3509180E-013  0.7246154E+02  0.7816164E-02  0.1226708E+00
        -11   -1    0    0    0    0  0.00000000000E+00  0.00000000000E+00  0.45593999997E+02  0.45594000000E+02  0.51100000000E-03 0. -1.
         11   -1    0    0    0    0 -0.00000000000E+00 -0.00000000000E+00 -0.45593999997E+02  0.45594000000E+02  0.51100000000E-03 0.  1.
    9900012    2    1    2    0    0  0.13554934957E+01 -0.18675884196E+02 -0.23268345874E+00  0.72461543989E+02  0.69999965733E+02 0.  0.
        -12    1    1    2    0    0 -0.13554934957E+01  0.18675884196E+02  0.23268345874E+00  0.18726456011E+02  0.00000000000E+00 0.  1.
         11    1    3    3    0    0  0.33969066707E+01  0.43424426340E+01  0.26947588581E+02  0.27505786910E+02  0.51100000000E-03 0. -1.
        -11    1    3    3    0    0  0.13172503680E+01 -0.14293382611E+02  0.18356569572E+01  0.14470852488E+02  0.51100000000E-03 0.  1.
        -12    1    3    3    0    0 -0.33586635430E+01 -0.87249442193E+01 -0.29015928997E+02  0.30484904592E+02  0.00000000000E+00 0.  1.
</event>
<event>
 7    1  0.3509180E-013  0.7246161E+02  0.7816164E-02  0.1226708E+00
        -11   -1    0    0    0    0  0.00000000000E+00  0.00000000000E+00  0.45593999997E+02  0.45594000000E+02  0.51100000000E-03 0. -1.
         11   -1    0    0    0    0 -0.00000000000E+00 -0.00000000000E+00 -0.45593999997E+02  0.45594000000E+02  0.51100000000E-03 0.  1.
    9900012    2    1    2    0    0  0.28036177265E+01  0.17361759762E+02  0.64332552723E+01  0.72461608255E+02  0.70000049451E+02 0.  0.
        -12    1    1    2    0    0 -0.28036177265E+01 -0.17361759762E+02 -0.64332552723E+01  0.18726391745E+02  0.00000000000E+00 0.  1.
         11    1    3    3    0    0  0.10154313549E+02 -0.19349008134E+02 -0.13399149479E+01  0.21892683064E+02  0.51100000000E-03 0. -1.
        -11    1    3    3    0    0 -0.26545104826E+01  0.40172961686E+01 -0.11402156265E+02  0.12377166968E+02  0.51100000000E-03 0.  1.
        -12    1    3    3    0    0 -0.46961853398E+01  0.32693471727E+02  0.19175326485E+02  0.38191758223E+02  0.00000000000E+00 0.  1.
</event>
<event>
 7    1  0.3509180E-013  0.7246161E+02  0.7816164E-02  0.1226708E+00
        -11   -1    0    0    0    0  0.00000000000E+00  0.00000000000E+00  0.45593999997E+02  0.45594000000E+02  0.51100000000E-03 0. -1.
         11   -1    0    0    0    0 -0.00000000000E+00 -0.00000000000E+00 -0.45593999997E+02  0.45594000000E+02  0.51100000000E-03 0.  1.
    9900012    2    1    2    0    0 -0.10900323989E+02  0.15029792104E+02  0.24425069297E+01  0.72461613433E+02  0.70000056196E+02 0.  0.
        -12    1    1    2    0    0  0.10900323989E+02 -0.15029792104E+02 -0.24425069297E+01  0.18726386567E+02  0.00000000000E+00 0.  1.
         11    1    3    3    0    0 -0.22116812241E+00  0.15172515382E+01  0.47457841563E+01  0.49873274495E+01  0.51100000000E-03 0. -1.
        -11    1    3    3    0    0  0.14441074152E+02  0.36357283682E+01 -0.27034973999E+02  0.30865076751E+02  0.51100000000E-03 0.  1.
         12    1    3    3    0    0 -0.25120230019E+02  0.98768121971E+01  0.24731696773E+02  0.36609209233E+02  0.00000000000E+00 0. -1.
</event>
<event>
 7    1  0.3509180E-013  0.7246160E+02  0.7816164E-02  0.1226708E+00
        -11   -1    0    0    0    0  0.00000000000E+00  0.00000000000E+00  0.45593999997E+02  0.45594000000E+02  0.51100000000E-03 0.  1.
         11   -1    0    0    0    0 -0.00000000000E+00 -0.00000000000E+00 -0.45593999997E+02  0.45594000000E+02  0.51100000000E-03 0. -1.
    9900012    2    1    2    0    0  0.17896544331E+02 -0.38020763894E+01 -0.39919860451E+01  0.72461600547E+02  0.70000039410E+02 0.  0.
        -12    1    1    2    0    0 -0.17896544331E+02  0.38020763894E+01  0.39919860451E+01  0.18726399453E+02  0.00000000000E+00 0.  1.
         11    1    3    3    0    0  0.17493198616E+01  0.26292827199E+02  0.37889999691E+01  0.26621972187E+02  0.51100000000E-03 0. -1.
        -11    1    3    3    0    0  0.19984182079E+02 -0.64281392156E+01 -0.58165999888E+01  0.21783510802E+02  0.51100000000E-03 0.  1.
        -12    1    3    3    0    0 -0.38369576095E+01 -0.23666764372E+02 -0.19643860254E+01  0.24056117559E+02  0.00000000000E+00 0.  1.
</event>
<event>
 7    1  0.3509180E-013  0.7246159E+02  0.7816164E-02  0.1226708E+00
        -11   -1    0    0    0    0  0.00000000000E+00  0.00000000000E+00  0.45593999997E+02  0.45594000000E+02  0.51100000000E-03 0.  1.
         11   -1    0    0    0    0 -0.00000000000E+00 -0.00000000000E+00 -0.45593999997E+02  0.45594000000E+02  0.51100000000E-03 0. -1.
    9900012    2    1    2    0    0  0.66244248694E+01  0.14264894210E+02 -0.10164065884E+02  0.72461589587E+02  0.70000025132E+02 0.  0.
        -12    1    1    2    0    0 -0.66244248694E+01 -0.14264894210E+02  0.10164065884E+02  0.18726410413E+02  0.00000000000E+00 0.  1.
         11    1    3    3    0    0 -0.46850208790E+01  0.42923579687E+01 -0.36287913219E+02  0.36840010907E+02  0.51100000000E-03 0. -1.
        -11    1    3    3    0    0 -0.49658042388E+01 -0.27902549922E+00  0.50000913166E+01  0.70525158917E+01  0.51100000000E-03 0.  1.
        -12    1    3    3    0    0  0.16275249987E+02  0.10251561741E+02  0.21123756019E+02  0.28569062788E+02  0.00000000000E+00 0.  1.
</event>
<event>
 7    1  0.3509180E-013  0.7246148E+02  0.7816164E-02  0.1226708E+00
        -11   -1    0    0    0    0  0.00000000000E+00  0.00000000000E+00  0.45593999997E+02  0.45594000000E+02  0.51100000000E-03 0.  1.
         11   -1    0    0    0    0 -0.00000000000E+00 -0.00000000000E+00 -0.45593999997E+02  0.45594000000E+02  0.51100000000E-03 0. -1.
    9900012    2    1    2    0    0 -0.91854040815E+01  0.16070917639E+02  0.28348593545E+01  0.72461482186E+02  0.69999885222E+02 0.  0.
        -12    1    1    2    0    0  0.91854040815E+01 -0.16070917639E+02 -0.28348593545E+01  0.18726517814E+02  0.00000000000E+00 0.  1.
         11    1    3    3    0    0 -0.13396500925E+02 -0.86215495492E+01  0.76848085226E+01  0.17687669037E+02  0.51100000000E-03 0. -1.
        -11    1    3    3    0    0  0.18495727150E+00 -0.14809507580E+02 -0.22682832333E+01  0.14983351863E+02  0.51100000000E-03 0.  1.
         12    1    3    3    0    0  0.40261395718E+01  0.39501974768E+02 -0.25816659349E+01  0.39790461287E+02  0.00000000000E+00 0. -1.
</event>
<event>
 7    1  0.3509180E-013  0.7246159E+02  0.7816164E-02  0.1226708E+00
        -11   -1    0    0    0    0  0.00000000000E+00  0.00000000000E+00  0.45593999997E+02  0.45594000000E+02  0.51100000000E-03 0.  1.
         11   -1    0    0    0    0 -0.00000000000E+00 -0.00000000000E+00 -0.45593999997E+02  0.45594000000E+02  0.51100000000E-03 0. -1.
    9900012    2    1    2    0    0  0.52184758100E+01 -0.28761072931E+01 -0.17753134450E+02  0.72461594426E+02  0.70000031436E+02 0.  0.
        -12    1    1    2    0    0 -0.52184758100E+01  0.28761072931E+01  0.17753134450E+02  0.18726405574E+02  0.00000000000E+00 0.  1.
         11    1    3    3    0    0  0.21885198423E+01 -0.48551697913E+01  0.11176998932E+02  0.12380936887E+02  0.51100000000E-03 0. -1.
        -11    1    3    3    0    0 -0.11770355508E+02 -0.57554701367E+01  0.10802574392E+02  0.16981234320E+02  0.51100000000E-03 0.  1.
         12    1    3    3    0    0  0.14800311476E+02  0.77345326349E+01 -0.39732707773E+02  0.43099423219E+02  0.00000000000E+00 0. -1.
</event>
<event>
 7    1  0.3509180E-013  0.7246161E+02  0.7816164E-02  0.1226708E+00
        -11   -1    0    0    0    0  0.00000000000E+00  0.00000000000E+00  0.45593999997E+02  0.45594000000E+02  0.51100000000E-03 0.  1.
         11   -1    0    0    0    0 -0.00000000000E+00 -0.00000000000E+00 -0.45593999997E+02  0.45594000000E+02  0.51100000000E-03 0. -1.
    9900012    2    1    2    0    0 -0.21560408569E+01  0.18521429928E+02 -0.17279075001E+01  0.72461613720E+02  0.70000056571E+02 0.  0.
        -12    1    1    2    0    0  0.21560408569E+01 -0.18521429928E+02  0.17279075001E+01  0.18726386280E+02  0.00000000000E+00 0.  1.
         11    1    3    3    0    0  0.11775375880E+02  0.96579032847E+01 -0.69650475000E+01  0.16746535759E+02  0.51100000000E-03 0. -1.
        -11    1    3    3    0    0 -0.94322692115E+00  0.30273280384E+02  0.48280068913E+01  0.30670357563E+02  0.51100000000E-03 0.  1.
        -12    1    3    3    0    0 -0.12988189816E+02 -0.21409753741E+02  0.40913310849E+00  0.25044720399E+02  0.00000000000E+00 0.  1.
</event>
<event>
 7    1  0.3509180E-013  0.7246161E+02  0.7816164E-02  0.1226708E+00
        -11   -1    0    0    0    0  0.00000000000E+00  0.00000000000E+00  0.45593999997E+02  0.45594000000E+02  0.51100000000E-03 0.  1.
         11   -1    0    0    0    0 -0.00000000000E+00 -0.00000000000E+00 -0.45593999997E+02  0.45594000000E+02  0.51100000000E-03 0. -1.
    9900012    2    1    2    0    0  0.51856860683E+01  0.94948651399E+01 -0.15285081141E+02  0.72461614617E+02  0.70000057739E+02 0.  0.
        -12    1    1    2    0    0 -0.51856860683E+01 -0.94948651399E+01  0.15285081141E+02  0.18726385383E+02  0.00000000000E+00 0.  1.
         11    1    3    3    0    0 -0.68268987316E+01 -0.53044228294E+01  0.58493715177E+01  0.10438323393E+02  0.51100000000E-03 0. -1.
        -11    1    3    3    0    0 -0.20270011662E+02  0.80513690431E+01  0.17507181381E+01  0.21880651967E+02  0.51100000000E-03 0.  1.
         12    1    3    3    0    0  0.32282596462E+02  0.67479189262E+01 -0.22885170797E+02  0.40142639257E+02  0.00000000000E+00 0. -1.
</event>
<event>
 7    1  0.3509180E-013  0.7246086E+02  0.7816164E-02  0.1226710E+00
        -11   -1    0    0    0    0  0.00000000000E+00  0.00000000000E+00  0.45593999997E+02  0.45594000000E+02  0.51100000000E-03 0.  1.
         11   -1    0    0    0    0 -0.00000000000E+00 -0.00000000000E+00 -0.45593999997E+02  0.45594000000E+02  0.51100000000E-03 0. -1.
    9900012    2    1    2    0    0 -0.21636891460E+01  0.16717852171E+02 -0.81570540187E+01  0.72460862947E+02  0.69999078543E+02 0.  0.
        -12    1    1    2    0    0  0.21636891460E+01 -0.16717852171E+02  0.81570540187E+01  0.18727137053E+02  0.00000000000E+00 0.  1.
         11    1    3    3    0    0 -0.31933690090E+02  0.68693267558E+01 -0.81745143974E+01  0.33671514648E+02  0.51100000000E-03 0. -1.
        -11    1    3    3    0    0  0.23260248241E+01 -0.63517803608E+01  0.13287836959E+01  0.68935601547E+01  0.51100000000E-03 0.  1.
        -12    1    3    3    0    0  0.27443976120E+02  0.16200305776E+02 -0.13113233172E+01  0.31895788144E+02  0.00000000000E+00 0.  1.
</event>
<event>
 7    1  0.3509180E-013  0.7246158E+02  0.7816164E-02  0.1226708E+00
        -11   -1    0    0    0    0  0.00000000000E+00  0.00000000000E+00  0.45593999997E+02  0.45594000000E+02  0.51100000000E-03 0.  1.
         11   -1    0    0    0    0 -0.00000000000E+00 -0.00000000000E+00 -0.45593999997E+02  0.45594000000E+02  0.51100000000E-03 0. -1.
    9900012    2    1    2    0    0  0.10755823555E+02 -0.28583004420E+01 -0.15060580987E+02  0.72461582259E+02  0.70000015586E+02 0.  0.
        -12    1    1    2    0    0 -0.10755823555E+02  0.28583004420E+01  0.15060580987E+02  0.18726417741E+02  0.00000000000E+00 0.  1.
         11    1    3    3    0    0  0.84704413199E+01  0.25326180711E+01  0.63856687108E+01  0.10905929378E+02  0.51100000000E-03 0. -1.
        -11    1    3    3    0    0  0.20945299084E+01  0.15217913718E+01  0.19681256206E+02  0.19850812342E+02  0.51100000000E-03 0.  1.
         12    1    3    3    0    0  0.19085232636E+00 -0.69127098848E+01 -0.41127505904E+02  0.41704840539E+02  0.00000000000E+00 0. -1.
</event>
<event>
 7    1  0.3509180E-013  0.7246145E+02  0.7816164E-02  0.1226708E+00
        -11   -1    0    0    0    0  0.00000000000E+00  0.00000000000E+00  0.45593999997E+02  0.45594000000E+02  0.51100000000E-03 0.  1.
         11   -1    0    0    0    0 -0.00000000000E+00 -0.00000000000E+00 -0.45593999997E+02  0.45594000000E+02  0.51100000000E-03 0. -1.
    9900012    2    1    2    0    0 -0.10212984842E+01  0.18616422401E+02  0.17520204201E+01  0.72461446415E+02  0.69999838624E+02 0.  0.
        -12    1    1    2    0    0  0.10212984842E+01 -0.18616422401E+02 -0.17520204201E+01  0.18726553585E+02  0.00000000000E+00 0.  1.
         11    1    3    3    0    0  0.58113981714E+01  0.11158999381E+02 -0.69048953786E+01  0.14351766314E+02  0.51100000000E-03 0. -1.
        -11    1    3    3    0    0  0.46733306999E+01  0.17140215151E+00 -0.23093210163E+02  0.23561955658E+02  0.51100000000E-03 0.  1.
        -12    1    3    3    0    0 -0.11506027356E+02  0.72860208693E+01  0.31750125962E+02  0.34547724443E+02  0.00000000000E+00 0.  1.
</event>
<event>
 7    1  0.3509180E-013  0.7246157E+02  0.7816164E-02  0.1226708E+00
        -11   -1    0    0    0    0  0.00000000000E+00  0.00000000000E+00  0.45593999997E+02  0.45594000000E+02  0.51100000000E-03 0. -1.
         11   -1    0    0    0    0 -0.00000000000E+00 -0.00000000000E+00 -0.45593999997E+02  0.45594000000E+02  0.51100000000E-03 0.  1.
    9900012    2    1    2    0    0  0.69830647711E+01 -0.16469119568E+02  0.55393316777E+01  0.72461567121E+02  0.69999995866E+02 0.  0.
        -12    1    1    2    0    0 -0.69830647711E+01  0.16469119568E+02 -0.55393316777E+01  0.18726432879E+02  0.00000000000E+00 0.  1.
         11    1    3    3    0    0  0.80817197884E+01 -0.18974168331E+02  0.30568736770E+02  0.36875207478E+02  0.51100000000E-03 0. -1.
        -11    1    3    3    0    0  0.10506515310E+01  0.17253740165E+01  0.50402020631E+01  0.54299559145E+01  0.51100000000E-03 0.  1.
        -12    1    3    3    0    0 -0.21493065483E+01  0.77967474675E+00 -0.30069607155E+02  0.30156403728E+02  0.00000000000E+00 0.  1.
</event>
<event>
 7    1  0.3509180E-013  0.7246151E+02  0.7816164E-02  0.1226708E+00
        -11   -1    0    0    0    0  0.00000000000E+00  0.00000000000E+00  0.45593999997E+02  0.45594000000E+02  0.51100000000E-03 0. -1.
         11   -1    0    0    0    0 -0.00000000000E+00 -0.00000000000E+00 -0.45593999997E+02  0.45594000000E+02  0.51100000000E-03 0.  1.
    9900012    2    1    2    0    0  0.16612884508E+01 -0.17557605968E+02 -0.62969943718E+01  0.72461506875E+02  0.69999917384E+02 0.  0.
        -12    1    1    2    0    0 -0.16612884508E+01  0.17557605968E+02  0.62969943718E+01  0.18726493125E+02  0.00000000000E+00 0.  1.
         11    1    3    3    0    0 -0.85604189501E+01  0.11987726221E+02 -0.85357294422E+01  0.17024835680E+02  0.51100000000E-03 0. -1.
        -11    1    3    3    0    0 -0.17090240865E+02 -0.16523666399E+02  0.70586739352E+01  0.24797837851E+02  0.51100000000E-03 0.  1.
        -12    1    3    3    0    0  0.27311948266E+02 -0.13021665791E+02 -0.48199388648E+01  0.30638833344E+02  0.00000000000E+00 0.  1.
</event>
<event>
 7    1  0.3509180E-013  0.7246157E+02  0.7816164E-02  0.1226708E+00
        -11   -1    0    0    0    0  0.00000000000E+00  0.00000000000E+00  0.45593999997E+02  0.45594000000E+02  0.51100000000E-03 0. -1.
         11   -1    0    0    0    0 -0.00000000000E+00 -0.00000000000E+00 -0.45593999997E+02  0.45594000000E+02  0.51100000000E-03 0.  1.
    9900012    2    1    2    0    0 -0.17496021350E+02  0.66435258737E+01 -0.65713190292E+00  0.72461574248E+02  0.70000005151E+02 0.  0.
        -12    1    1    2    0    0  0.17496021350E+02 -0.66435258737E+01  0.65713190292E+00  0.18726425752E+02  0.00000000000E+00 0.  1.
         11    1    3    3    0    0  0.38137852037E+01 -0.68146215150E+01  0.59183157575E+00  0.78316210869E+01  0.51100000000E-03 0. -1.
        -11    1    3    3    0    0 -0.77005278340E+01 -0.16581698713E+02 -0.19670560371E+02  0.26854828368E+02  0.51100000000E-03 0.  1.
         12    1    3    3    0    0 -0.13609278719E+02  0.30039846101E+02  0.18421596893E+02  0.37775124793E+02  0.00000000000E+00 0. -1.
</event>
<event>
 7    1  0.3509180E-013  0.7246158E+02  0.7816164E-02  0.1226708E+00
        -11   -1    0    0    0    0  0.00000000000E+00  0.00000000000E+00  0.45593999997E+02  0.45594000000E+02  0.51100000000E-03 0. -1.
         11   -1    0    0    0    0 -0.00000000000E+00 -0.00000000000E+00 -0.45593999997E+02  0.45594000000E+02  0.51100000000E-03 0.  1.
    9900012    2    1    2    0    0 -0.12433406954E+02  0.69762311844E+01  0.12141713923E+02  0.72461584779E+02  0.70000018869E+02 0.  0.
        -12    1    1    2    0    0  0.12433406954E+02 -0.69762311844E+01 -0.12141713923E+02  0.18726415221E+02  0.00000000000E+00 0.  1.
         11    1    3    3    0    0 -0.96557944603E-01  0.52379352429E+01 -0.11409696274E+02  0.12554937610E+02  0.51100000000E-03 0. -1.
        -11    1    3    3    0    0 -0.14921004933E+02 -0.51858960774E+01 -0.14319788446E+02  0.21321028299E+02  0.51100000000E-03 0.  1.
         12    1    3    3    0    0  0.25841559235E+01  0.69241920190E+01  0.37871198643E+02  0.38585618871E+02  0.00000000000E+00 0. -1.
</event>
<event>
 7    1  0.3509180E-013  0.7246161E+02  0.7816164E-02  0.1226708E+00
        -11   -1    0    0    0    0  0.00000000000E+00  0.00000000000E+00  0.45593999997E+02  0.45594000000E+02  0.51100000000E-03 0. -1.
         11   -1    0    0    0    0 -0.00000000000E+00 -0.00000000000E+00 -0.45593999997E+02  0.45594000000E+02  0.51100000000E-03 0.  1.
    9900012    2    1    2    0    0 -0.88449781809E+01  0.83978551277E+01  0.14209859127E+02  0.72461609366E+02  0.70000050898E+02 0.  0.
        -12    1    1    2    0    0  0.88449781809E+01 -0.83978551277E+01 -0.14209859127E+02  0.18726390634E+02  0.00000000000E+00 0.  1.
         11    1    3    3    0    0 -0.21565040277E+02 -0.23850118556E+01  0.19253757903E+02  0.29007696174E+02  0.51100000000E-03 0. -1.
        -11    1    3    3    0    0 -0.79412483870E+01 -0.78984754771E+01  0.68905276058E+01  0.13150236186E+02  0.51100000000E-03 0.  1.
         12    1    3    3    0    0  0.20661310483E+02  0.18681342460E+02 -0.11934426382E+02  0.30303677006E+02  0.00000000000E+00 0. -1.
</event>
<event>
 7    1  0.3509180E-013  0.7246152E+02  0.7816164E-02  0.1226708E+00
        -11   -1    0    0    0    0  0.00000000000E+00  0.00000000000E+00  0.45593999997E+02  0.45594000000E+02  0.51100000000E-03 0.  1.
         11   -1    0    0    0    0 -0.00000000000E+00 -0.00000000000E+00 -0.45593999997E+02  0.45594000000E+02  0.51100000000E-03 0. -1.
    9900012    2    1    2    0    0 -0.45342877586E+01  0.17441255748E+02 -0.50915566454E+01  0.72461518307E+02  0.69999932276E+02 0.  0.
        -12    1    1    2    0    0  0.45342877586E+01 -0.17441255748E+02  0.50915566454E+01  0.18726481693E+02  0.00000000000E+00 0.  1.
         11    1    3    3    0    0 -0.69975914800E+01  0.38356088591E+02 -0.13753635176E+02  0.41343902807E+02  0.51100000000E-03 0. -1.
        -11    1    3    3    0    0 -0.90604289242E+01 -0.58568116452E+01  0.17179390910E+01  0.10924510512E+02  0.51100000000E-03 0.  1.
        -12    1    3    3    0    0  0.11523732646E+02 -0.15058021198E+02  0.69441394401E+01  0.20193104988E+02  0.00000000000E+00 0.  1.
</event>
<event>
 7    1  0.3509180E-013  0.7246167E+02  0.7816164E-02  0.1226708E+00
        -11   -1    0    0    0    0  0.00000000000E+00  0.00000000000E+00  0.45593999997E+02  0.45594000000E+02  0.51100000000E-03 0.  1.
         11   -1    0    0    0    0 -0.00000000000E+00 -0.00000000000E+00 -0.45593999997E+02  0.45594000000E+02  0.51100000000E-03 0. -1.
    9900012    2    1    2    0    0  0.81991039677E+01 -0.66765379727E+01 -0.15455550152E+02  0.72461668387E+02  0.70000127784E+02 0.  0.
        -12    1    1    2    0    0 -0.81991039677E+01  0.66765379727E+01  0.15455550152E+02  0.18726331613E+02  0.00000000000E+00 0.  1.
         11    1    3    3    0    0 -0.31004471443E+01  0.27958096545E+00 -0.27563537427E+02  0.27738773112E+02  0.51100000000E-03 0. -1.
        -11    1    3    3    0    0  0.15799392015E+01 -0.23165465907E+02  0.20406972380E+01  0.23308785126E+02  0.51100000000E-03 0.  1.
        -12    1    3    3    0    0  0.97196119105E+01  0.16209346969E+02  0.10067290037E+02  0.21414110150E+02  0.00000000000E+00 0.  1.
</event>
<event>
 7    1  0.3509180E-013  0.7246160E+02  0.7816164E-02  0.1226708E+00
        -11   -1    0    0    0    0  0.00000000000E+00  0.00000000000E+00  0.45593999997E+02  0.45594000000E+02  0.51100000000E-03 0.  1.
         11   -1    0    0    0    0 -0.00000000000E+00 -0.00000000000E+00 -0.45593999997E+02  0.45594000000E+02  0.51100000000E-03 0. -1.
    9900012    2    1    2    0    0  0.91498329384E+01 -0.68924255871E+01 -0.14813952938E+02  0.72461596851E+02  0.70000034594E+02 0.  0.
        -12    1    1    2    0    0 -0.91498329384E+01  0.68924255871E+01  0.14813952938E+02  0.18726403149E+02  0.00000000000E+00 0.  1.
         11    1    3    3    0    0  0.41522526349E+01 -0.11432249134E+02  0.13004585512E+02  0.17806087915E+02  0.51100000000E-03 0. -1.
        -11    1    3    3    0    0 -0.33208269215E+01  0.20899394380E+02  0.19840894073E+00  0.21162512688E+02  0.51100000000E-03 0.  1.
         12    1    3    3    0    0  0.83184072250E+01 -0.16359570833E+02 -0.28016947391E+02  0.33492996248E+02  0.00000000000E+00 0. -1.
</event>
<event>
 7    1  0.3509180E-013  0.7246161E+02  0.7816164E-02  0.1226708E+00
        -11   -1    0    0    0    0  0.00000000000E+00  0.00000000000E+00  0.45593999997E+02  0.45594000000E+02  0.51100000000E-03 0.  1.
         11   -1    0    0    0    0 -0.00000000000E+00 -0.00000000000E+00 -0.45593999997E+02  0.45594000000E+02  0.51100000000E-03 0. -1.
    9900012    2    1    2    0    0 -0.13430876417E+02 -0.48499786088E+01 -0.12114744123E+02  0.72461607956E+02  0.70000049061E+02 0.  0.
        -12    1    1    2    0    0  0.13430876417E+02  0.48499786088E+01  0.12114744123E+02  0.18726392044E+02  0.00000000000E+00 0.  1.
         11    1    3    3    0    0 -0.13132158533E+02 -0.35071931116E+01 -0.15914232231E+02  0.20928850399E+02  0.51100000000E-03 0. -1.
        -11    1    3    3    0    0 -0.66405838681E-01  0.20139575508E+02 -0.13248697840E+02  0.24106739848E+02  0.51100000000E-03 0.  1.
        -12    1    3    3    0    0 -0.23231204485E+00 -0.21482361005E+02  0.17048185948E+02  0.27426017709E+02  0.00000000000E+00 0.  1.
</event>
<event>
 7    1  0.3509180E-013  0.7246159E+02  0.7816164E-02  0.1226708E+00
        -11   -1    0    0    0    0  0.00000000000E+00  0.00000000000E+00  0.45593999997E+02  0.45594000000E+02  0.51100000000E-03 0. -1.
         11   -1    0    0    0    0 -0.00000000000E+00 -0.00000000000E+00 -0.45593999997E+02  0.45594000000E+02  0.51100000000E-03 0.  1.
    9900012    2    1    2    0    0  0.11865708612E+02  0.11050239527E+02 -0.93688672551E+01  0.72461587954E+02  0.70000023005E+02 0.  0.
        -12    1    1    2    0    0 -0.11865708612E+02 -0.11050239527E+02  0.93688672551E+01  0.18726412046E+02  0.00000000000E+00 0.  1.
         11    1    3    3    0    0  0.21076519430E+02 -0.68283280712E+01  0.75319991461E+01  0.23400357837E+02  0.51100000000E-03 0. -1.
        -11    1    3    3    0    0 -0.44493978380E+00 -0.97406715456E+01 -0.17550158720E+02  0.20077019822E+02  0.51100000000E-03 0.  1.
         12    1    3    3    0    0 -0.87658710339E+01  0.27619239144E+02  0.64929231900E+00  0.28984210295E+02  0.00000000000E+00 0. -1.
</event>
<event>
 7    1  0.3509180E-013  0.7246158E+02  0.7816164E-02  0.1226708E+00
        -11   -1    0    0    0    0  0.00000000000E+00  0.00000000000E+00  0.45593999997E+02  0.45594000000E+02  0.51100000000E-03 0.  1.
         11   -1    0    0    0    0 -0.00000000000E+00 -0.00000000000E+00 -0.45593999997E+02  0.45594000000E+02  0.51100000000E-03 0. -1.
    9900012    2    1    2    0    0 -0.13416453543E+02 -0.10619893122E+02 -0.76089045459E+01  0.72461580588E+02  0.70000013409E+02 0.  0.
        -12    1    1    2    0    0  0.13416453543E+02  0.10619893122E+02  0.76089045459E+01  0.18726419412E+02  0.00000000000E+00 0.  1.
         11    1    3    3    0    0 -0.46429675315E+01 -0.13769688867E+02 -0.12990505651E+02  0.19491401087E+02  0.51100000000E-03 0. -1.
        -11    1    3    3    0    0 -0.20773773043E+02 -0.18559930255E+02  0.37866386080E+01  0.28113329396E+02  0.51100000000E-03 0.  1.
        -12    1    3    3    0    0  0.12000287031E+02  0.21709726000E+02  0.15949624968E+01  0.24856850106E+02  0.00000000000E+00 0.  1.
</event>
<event>
 7    1  0.3509180E-013  0.7246158E+02  0.7816164E-02  0.1226708E+00
        -11   -1    0    0    0    0  0.00000000000E+00  0.00000000000E+00  0.45593999997E+02  0.45594000000E+02  0.51100000000E-03 0. -1.
         11   -1    0    0    0    0 -0.00000000000E+00 -0.00000000000E+00 -0.45593999997E+02  0.45594000000E+02  0.51100000000E-03 0.  1.
    9900012    2    1    2    0    0 -0.16851883108E+02 -0.79348780748E+01  0.19314953108E+01  0.72461576730E+02  0.70000008384E+02 0.  0.
        -12    1    1    2    0    0  0.16851883108E+02  0.79348780748E+01 -0.19314953108E+01  0.18726423270E+02  0.00000000000E+00 0.  1.
         11    1    3    3    0    0 -0.15045236999E+02 -0.20252698655E+02  0.12452834265E+02  0.28135458778E+02  0.51100000000E-03 0. -1.
        -11    1    3    3    0    0 -0.28411252348E+01 -0.94754026176E+01 -0.18594943877E+02  0.21062459150E+02  0.51100000000E-03 0.  1.
         12    1    3    3    0    0  0.10344791261E+01  0.21793223198E+02  0.80736049235E+01  0.23263658802E+02  0.00000000000E+00 0. -1.
</event>
<event>
 7    1  0.3509180E-013  0.7246160E+02  0.7816164E-02  0.1226708E+00
        -11   -1    0    0    0    0  0.00000000000E+00  0.00000000000E+00  0.45593999997E+02  0.45594000000E+02  0.51100000000E-03 0. -1.
         11   -1    0    0    0    0 -0.00000000000E+00 -0.00000000000E+00 -0.45593999997E+02  0.45594000000E+02  0.51100000000E-03 0.  1.
    9900012    2    1    2    0    0 -0.59252716205E+01 -0.14767858850E+02 -0.98731815271E+01  0.72461595854E+02  0.70000033296E+02 0.  0.
        -12    1    1    2    0    0  0.59252716205E+01  0.14767858850E+02  0.98731815271E+01  0.18726404146E+02  0.00000000000E+00 0.  1.
         11    1    3    3    0    0 -0.93508010101E+01 -0.19042811104E+02 -0.69188684296E+01  0.22314499207E+02  0.51100000000E-03 0. -1.
        -11    1    3    3    0    0  0.46618088274E+01  0.90358217017E+01 -0.25299911067E+02  0.27266536921E+02  0.51100000000E-03 0.  1.
         12    1    3    3    0    0 -0.12362794378E+01 -0.47608694476E+01  0.22345597970E+02  0.22880559726E+02  0.00000000000E+00 0. -1.
</event>
<event>
 7    1  0.3509180E-013  0.7246160E+02  0.7816164E-02  0.1226708E+00
        -11   -1    0    0    0    0  0.00000000000E+00  0.00000000000E+00  0.45593999997E+02  0.45594000000E+02  0.51100000000E-03 0.  1.
         11   -1    0    0    0    0 -0.00000000000E+00 -0.00000000000E+00 -0.45593999997E+02  0.45594000000E+02  0.51100000000E-03 0. -1.
    9900012    2    1    2    0    0  0.17232399280E+02  0.63361227882E+01  0.36845538583E+01  0.72461602213E+02  0.70000041580E+02 0.  0.
        -12    1    1    2    0    0 -0.17232399280E+02 -0.63361227882E+01 -0.36845538583E+01  0.18726397787E+02  0.00000000000E+00 0.  1.
         11    1    3    3    0    0 -0.64895317040E+01  0.17023929382E+02  0.12233751529E+02  0.21945224312E+02  0.51100000000E-03 0. -1.
        -11    1    3    3    0    0  0.42017025937E+01  0.93718251000E+01  0.11998603958E+02  0.15794046587E+02  0.51100000000E-03 0.  1.
         12    1    3    3    0    0  0.19520228390E+02 -0.20059631694E+02 -0.20547801629E+02  0.34722331314E+02  0.00000000000E+00 0. -1.
</event>
<event>
 7    1  0.3509180E-013  0.7246159E+02  0.7816164E-02  0.1226708E+00
        -11   -1    0    0    0    0  0.00000000000E+00  0.00000000000E+00  0.45593999997E+02  0.45594000000E+02  0.51100000000E-03 0. -1.
         11   -1    0    0    0    0 -0.00000000000E+00 -0.00000000000E+00 -0.45593999997E+02  0.45594000000E+02  0.51100000000E-03 0.  1.
    9900012    2    1    2    0    0 -0.11128696021E+02 -0.14454175596E+02  0.42317092292E+01  0.72461590032E+02  0.70000025712E+02 0.  0.
        -12    1    1    2    0    0  0.11128696021E+02  0.14454175596E+02 -0.42317092292E+01  0.18726409968E+02  0.00000000000E+00 0.  1.
         11    1    3    3    0    0 -0.48486744441E+01  0.15083054530E+02  0.15144678651E+02  0.21917332628E+02  0.51100000000E-03 0. -1.
        -11    1    3    3    0    0  0.81977948916E+01 -0.23515973120E+02 -0.20421681701E+02  0.32206364536E+02  0.51100000000E-03 0.  1.
         12    1    3    3    0    0 -0.14477816468E+02 -0.60212570066E+01  0.95087122798E+01  0.18337892868E+02  0.00000000000E+00 0. -1.
</event>
<event>
 7    1  0.3509180E-013  0.7246161E+02  0.7816164E-02  0.1226708E+00
        -11   -1    0    0    0    0  0.00000000000E+00  0.00000000000E+00  0.45593999997E+02  0.45594000000E+02  0.51100000000E-03 0. -1.
         11   -1    0    0    0    0 -0.00000000000E+00 -0.00000000000E+00 -0.45593999997E+02  0.45594000000E+02  0.51100000000E-03 0.  1.
    9900012    2    1    2    0    0  0.13551927145E+02 -0.53920449031E+01  0.11745164587E+02  0.72461607695E+02  0.70000048721E+02 0.  0.
        -12    1    1    2    0    0 -0.13551927145E+02  0.53920449031E+01 -0.11745164587E+02  0.18726392305E+02  0.00000000000E+00 0.  1.
         11    1    3    3    0    0 -0.11559242210E+02 -0.76379367674E+01  0.31261866452E+02  0.34194421370E+02  0.51100000000E-03 0. -1.
        -11    1    3    3    0    0 -0.64096336981E-02  0.16158468225E+01 -0.11904828389E+02  0.12013989399E+02  0.51100000000E-03 0.  1.
        -12    1    3    3    0    0  0.25117578989E+02  0.63004504173E+00 -0.76118734749E+01  0.26253196926E+02  0.00000000000E+00 0.  1.
</event>
<event>
 7    1  0.3509180E-013  0.7246162E+02  0.7816164E-02  0.1226708E+00
        -11   -1    0    0    0    0  0.00000000000E+00  0.00000000000E+00  0.45593999997E+02  0.45594000000E+02  0.51100000000E-03 0.  1.
         11   -1    0    0    0    0 -0.00000000000E+00 -0.00000000000E+00 -0.45593999997E+02  0.45594000000E+02  0.51100000000E-03 0. -1.
    9900012    2    1    2    0    0  0.75136577995E+01  0.84380494166E+01 -0.14933906117E+02  0.72461620655E+02  0.70000065604E+02 0.  0.
        -12    1    1    2    0    0 -0.75136577995E+01 -0.84380494166E+01  0.14933906117E+02  0.18726379345E+02  0.00000000000E+00 0.  1.
         11    1    3    3    0    0 -0.10351015402E+01  0.28715966207E+02  0.63210087049E+01  0.29421646822E+02  0.51100000000E-03 0. -1.
        -11    1    3    3    0    0 -0.17956720775E+01 -0.52308703803E+01  0.72924079665E+01  0.91523580217E+01  0.51100000000E-03 0.  1.
         12    1    3    3    0    0  0.10344431417E+02 -0.15047046410E+02 -0.28547322788E+02  0.33887615811E+02  0.00000000000E+00 0. -1.
</event>
<event>
 7    1  0.3509180E-013  0.7246154E+02  0.7816164E-02  0.1226708E+00
        -11   -1    0    0    0    0  0.00000000000E+00  0.00000000000E+00  0.45593999997E+02  0.45594000000E+02  0.51100000000E-03 0. -1.
         11   -1    0    0    0    0 -0.00000000000E+00 -0.00000000000E+00 -0.45593999997E+02  0.45594000000E+02  0.51100000000E-03 0.  1.
    9900012    2    1    2    0    0  0.12730116648E+02 -0.85889087046E+01 -0.10717039910E+02  0.72461543660E+02  0.69999965304E+02 0.  0.
        -12    1    1    2    0    0 -0.12730116648E+02  0.85889087046E+01  0.10717039910E+02  0.18726456340E+02  0.00000000000E+00 0.  1.
         11    1    3    3    0    0  0.74644345236E+01 -0.26006154899E+02 -0.97937897397E+01  0.28774227933E+02  0.51100000000E-03 0. -1.
        -11    1    3    3    0    0  0.10939024610E+02 -0.85627463152E+01 -0.81818766019E+01  0.16122220345E+02  0.51100000000E-03 0.  1.
        -12    1    3    3    0    0 -0.56733424848E+01  0.25979992510E+02  0.72586264317E+01  0.27565095382E+02  0.00000000000E+00 0.  1.
</event>
<event>
 7    1  0.3509180E-013  0.7246158E+02  0.7816164E-02  0.1226708E+00
        -11   -1    0    0    0    0  0.00000000000E+00  0.00000000000E+00  0.45593999997E+02  0.45594000000E+02  0.51100000000E-03 0.  1.
         11   -1    0    0    0    0 -0.00000000000E+00 -0.00000000000E+00 -0.45593999997E+02  0.45594000000E+02  0.51100000000E-03 0. -1.
    9900012    2    1    2    0    0 -0.15749293086E+02 -0.82088606923E+00 -0.10097765262E+02  0.72461576157E+02  0.70000007637E+02 0.  0.
        -12    1    1    2    0    0  0.15749293086E+02  0.82088606923E+00  0.10097765262E+02  0.18726423843E+02  0.00000000000E+00 0.  1.
         11    1    3    3    0    0 -0.16287894912E+02  0.98835751517E+01  0.61679536026E+01  0.20025589388E+02  0.51100000000E-03 0. -1.
        -11    1    3    3    0    0 -0.23442148036E+02 -0.10480439086E+02 -0.10689901598E+02  0.27814526860E+02  0.51100000000E-03 0.  1.
        -12    1    3    3    0    0  0.23980749862E+02 -0.22402213492E+00 -0.55758172667E+01  0.24621459909E+02  0.00000000000E+00 0.  1.
</event>
<event>
 7    1  0.3509180E-013  0.7246158E+02  0.7816164E-02  0.1226708E+00
        -11   -1    0    0    0    0  0.00000000000E+00  0.00000000000E+00  0.45593999997E+02  0.45594000000E+02  0.51100000000E-03 0.  1.
         11   -1    0    0    0    0 -0.00000000000E+00 -0.00000000000E+00 -0.45593999997E+02  0.45594000000E+02  0.51100000000E-03 0. -1.
    9900012    2    1    2    0    0  0.69019418855E+01  0.49604447112E+01 -0.16686397437E+02  0.72461583553E+02  0.70000017272E+02 0.  0.
        -12    1    1    2    0    0 -0.69019418855E+01 -0.49604447112E+01  0.16686397437E+02  0.18726416447E+02  0.00000000000E+00 0.  1.
         11    1    3    3    0    0 -0.13898333093E+02 -0.39175420525E+00 -0.30235865114E+02  0.33279493289E+02  0.51100000000E-03 0. -1.
        -11    1    3    3    0    0  0.45647768056E+01  0.74572878923E+01 -0.81815357884E+01  0.11974383413E+02  0.51100000000E-03 0.  1.
        -12    1    3    3    0    0  0.16235498173E+02 -0.21050889759E+01  0.21731003466E+02  0.27207706852E+02  0.00000000000E+00 0.  1.
</event>
<event>
 7    1  0.3509180E-013  0.7246161E+02  0.7816164E-02  0.1226708E+00
        -11   -1    0    0    0    0  0.00000000000E+00  0.00000000000E+00  0.45593999997E+02  0.45594000000E+02  0.51100000000E-03 0.  1.
         11   -1    0    0    0    0 -0.00000000000E+00 -0.00000000000E+00 -0.45593999997E+02  0.45594000000E+02  0.51100000000E-03 0. -1.
    9900012    2    1    2    0    0  0.18623223170E+02  0.16139326235E+01 -0.11173670849E+01  0.72461608758E+02  0.70000050106E+02 0.  0.
        -12    1    1    2    0    0 -0.18623223170E+02 -0.16139326235E+01  0.11173670849E+01  0.18726391242E+02  0.00000000000E+00 0.  1.
         11    1    3    3    0    0  0.53060614785E+01 -0.57009815697E+00 -0.10108581105E+02  0.11430779174E+02  0.51100000000E-03 0. -1.
        -11    1    3    3    0    0 -0.13268709222E+02 -0.48357409976E+01 -0.17744710552E+02  0.22678575534E+02  0.51100000000E-03 0.  1.
        -12    1    3    3    0    0  0.26585870913E+02  0.70197717780E+01  0.26735924572E+02  0.38352254050E+02  0.00000000000E+00 0.  1.
</event>
<event>
 7    1  0.3509180E-013  0.7246157E+02  0.7816164E-02  0.1226708E+00
        -11   -1    0    0    0    0  0.00000000000E+00  0.00000000000E+00  0.45593999997E+02  0.45594000000E+02  0.51100000000E-03 0.  1.
         11   -1    0    0    0    0 -0.00000000000E+00 -0.00000000000E+00 -0.45593999997E+02  0.45594000000E+02  0.51100000000E-03 0. -1.
    9900012    2    1    2    0    0  0.33904331364E+01  0.10756237752E+02 -0.14949493459E+02  0.72461573696E+02  0.70000004432E+02 0.  0.
        -12    1    1    2    0    0 -0.33904331364E+01 -0.10756237752E+02  0.14949493459E+02  0.18726426304E+02  0.00000000000E+00 0.  1.
         11    1    3    3    0    0 -0.19724398334E+02  0.18309689450E+02 -0.26713318801E+02  0.37919625777E+02  0.51100000000E-03 0. -1.
        -11    1    3    3    0    0 -0.30802990280E+01 -0.39108315332E+01  0.53906420309E+01  0.73377017621E+01  0.51100000000E-03 0.  1.
        -12    1    3    3    0    0  0.26195130498E+02 -0.36426201650E+01  0.63731833113E+01  0.27204246158E+02  0.00000000000E+00 0.  1.
</event>
<event>
 7    1  0.3509180E-013  0.7246157E+02  0.7816164E-02  0.1226708E+00
        -11   -1    0    0    0    0  0.00000000000E+00  0.00000000000E+00  0.45593999997E+02  0.45594000000E+02  0.51100000000E-03 0.  1.
         11   -1    0    0    0    0 -0.00000000000E+00 -0.00000000000E+00 -0.45593999997E+02  0.45594000000E+02  0.51100000000E-03 0. -1.
    9900012    2    1    2    0    0  0.11091915371E+02  0.51549522556E+00 -0.15079223233E+02  0.72461566938E+02  0.69999995628E+02 0.  0.
        -12    1    1    2    0    0 -0.11091915371E+02 -0.51549522556E+00  0.15079223233E+02  0.18726433062E+02  0.00000000000E+00 0.  1.
         11    1    3    3    0    0 -0.70769174871E+01  0.15833051657E+01 -0.29182142274E+02  0.30069703097E+02  0.51100000000E-03 0. -1.
        -11    1    3    3    0    0  0.11935663390E+02 -0.17895503731E+01 -0.11113491997E+02  0.16406469935E+02  0.51100000000E-03 0.  1.
        -12    1    3    3    0    0  0.62331694679E+01  0.72174043302E+00  0.25216411038E+02  0.25985393907E+02  0.00000000000E+00 0.  1.
</event>
<event>
 7    1  0.3509180E-013  0.7246155E+02  0.7816164E-02  0.1226708E+00
        -11   -1    0    0    0    0  0.00000000000E+00  0.00000000000E+00  0.45593999997E+02  0.45594000000E+02  0.51100000000E-03 0. -1.
         11   -1    0    0    0    0 -0.00000000000E+00 -0.00000000000E+00 -0.45593999997E+02  0.45594000000E+02  0.51100000000E-03 0.  1.
    9900012    2    1    2    0    0 -0.14643597955E+02 -0.11641123399E+02  0.85386646425E+00  0.72461553381E+02  0.69999977967E+02 0.  0.
        -12    1    1    2    0    0  0.14643597955E+02  0.11641123399E+02 -0.85386646425E+00  0.18726446619E+02  0.00000000000E+00 0.  1.
         11    1    3    3    0    0  0.10181033608E+02 -0.79083096572E+00  0.18648452229E+02  0.21261317686E+02  0.51100000000E-03 0. -1.
        -11    1    3    3    0    0  0.72439382325E+01  0.68527527862E+01  0.10140102730E+01  0.10023127205E+02  0.51100000000E-03 0.  1.
        -12    1    3    3    0    0 -0.32068569795E+02 -0.17703045219E+02 -0.18808596038E+02  0.41177108490E+02  0.00000000000E+00 0.  1.
</event>
<event>
 7    1  0.3509180E-013  0.7246144E+02  0.7816164E-02  0.1226708E+00
        -11   -1    0    0    0    0  0.00000000000E+00  0.00000000000E+00  0.45593999997E+02  0.45594000000E+02  0.51100000000E-03 0.  1.
         11   -1    0    0    0    0 -0.00000000000E+00 -0.00000000000E+00 -0.45593999997E+02  0.45594000000E+02  0.51100000000E-03 0. -1.
    9900012    2    1    2    0    0  0.17850459014E+01  0.96733897271E+01  0.15934971840E+02  0.72461436374E+02  0.69999825544E+02 0.  0.
        -12    1    1    2    0    0 -0.17850459014E+01 -0.96733897271E+01 -0.15934971840E+02  0.18726563626E+02  0.00000000000E+00 0.  1.
         11    1    3    3    0    0  0.56198595474E+00  0.22424263437E+02  0.30396780109E+02  0.37777343212E+02  0.51100000000E-03 0. -1.
        -11    1    3    3    0    0 -0.11606236308E+02 -0.88186352908E+01  0.50202389853E+00  0.14585097802E+02  0.51100000000E-03 0.  1.
         12    1    3    3    0    0  0.12829296255E+02 -0.39322384189E+01 -0.14963832168E+02  0.20098995361E+02  0.00000000000E+00 0. -1.
</event>
<event>
 7    1  0.3509180E-013  0.7246158E+02  0.7816164E-02  0.1226708E+00
        -11   -1    0    0    0    0  0.00000000000E+00  0.00000000000E+00  0.45593999997E+02  0.45594000000E+02  0.51100000000E-03 0.  1.
         11   -1    0    0    0    0 -0.00000000000E+00 -0.00000000000E+00 -0.45593999997E+02  0.45594000000E+02  0.51100000000E-03 0. -1.
    9900012    2    1    2    0    0  0.26718324905E+01  0.11871790423E+01 -0.18496778649E+02  0.72461577402E+02  0.70000009259E+02 0.  0.
        -12    1    1    2    0    0 -0.26718324905E+01 -0.11871790423E+01  0.18496778649E+02  0.18726422598E+02  0.00000000000E+00 0.  1.
         11    1    3    3    0    0 -0.11625729661E+02 -0.19546508586E+00  0.50708354327E+00  0.11638424753E+02  0.51100000000E-03 0. -1.
        -11    1    3    3    0    0  0.19222485809E+01 -0.91097716731E+01  0.18084958278E+02  0.20340813546E+02  0.51100000000E-03 0.  1.
         12    1    3    3    0    0  0.12375313570E+02  0.10492415801E+02 -0.37088820471E+02  0.40482339103E+02  0.00000000000E+00 0. -1.
</event>
<event>
 7    1  0.3509180E-013  0.7246146E+02  0.7816164E-02  0.1226708E+00
        -11   -1    0    0    0    0  0.00000000000E+00  0.00000000000E+00  0.45593999997E+02  0.45594000000E+02  0.51100000000E-03 0.  1.
         11   -1    0    0    0    0 -0.00000000000E+00 -0.00000000000E+00 -0.45593999997E+02  0.45594000000E+02  0.51100000000E-03 0. -1.
    9900012    2    1    2    0    0 -0.61173431712E+00 -0.26157711720E+01 -0.18532856296E+02  0.72461461607E+02  0.69999858414E+02 0.  0.
        -12    1    1    2    0    0  0.61173431712E+00  0.26157711720E+01  0.18532856296E+02  0.18726538393E+02  0.00000000000E+00 0.  1.
         11    1    3    3    0    0 -0.18340331537E+02  0.68167906960E+01  0.96226216040E+01  0.21804385868E+02  0.51100000000E-03 0. -1.
        -11    1    3    3    0    0  0.89746030482E+00 -0.81238339723E+01  0.75721034387E+01  0.11141762166E+02  0.51100000000E-03 0.  1.
         12    1    3    3    0    0  0.16831136915E+02 -0.13087278958E+01 -0.35727581339E+02  0.39515313574E+02  0.00000000000E+00 0. -1.
</event>
<event>
 7    1  0.3509180E-013  0.7246160E+02  0.7816164E-02  0.1226708E+00
        -11   -1    0    0    0    0  0.00000000000E+00  0.00000000000E+00  0.45593999997E+02  0.45594000000E+02  0.51100000000E-03 0.  1.
         11   -1    0    0    0    0 -0.00000000000E+00 -0.00000000000E+00 -0.45593999997E+02  0.45594000000E+02  0.51100000000E-03 0. -1.
    9900012    2    1    2    0    0 -0.55017725394E+01 -0.64127796528E+01 -0.16711814639E+02  0.72461601722E+02  0.70000040940E+02 0.  0.
        -12    1    1    2    0    0  0.55017725394E+01  0.64127796528E+01  0.16711814639E+02  0.18726398278E+02  0.00000000000E+00 0.  1.
         11    1    3    3    0    0 -0.17496371152E+02 -0.97516112199E+01 -0.69864373806E+01  0.21213845300E+02  0.51100000000E-03 0. -1.
        -11    1    3    3    0    0  0.53545550249E+01 -0.18907917345E+02  0.88136461627E+01  0.21537431527E+02  0.51100000000E-03 0.  1.
         12    1    3    3    0    0  0.66400435876E+01  0.22246748912E+02 -0.18539023421E+02  0.29710324895E+02  0.00000000000E+00 0. -1.
</event>
<event>
 7    1  0.3509180E-013  0.7246159E+02  0.7816164E-02  0.1226708E+00
        -11   -1    0    0    0    0  0.00000000000E+00  0.00000000000E+00  0.45593999997E+02  0.45594000000E+02  0.51100000000E-03 0.  1.
         11   -1    0    0    0    0 -0.00000000000E+00 -0.00000000000E+00 -0.45593999997E+02  0.45594000000E+02  0.51100000000E-03 0. -1.
    9900012    2    1    2    0    0 -0.10525354961E+02  0.10131176461E+02 -0.11715565510E+02  0.72461593277E+02  0.70000029939E+02 0.  0.
        -12    1    1    2    0    0  0.10525354961E+02 -0.10131176461E+02  0.11715565510E+02  0.18726406723E+02  0.00000000000E+00 0.  1.
         11    1    3    3    0    0  0.29620636008E+01 -0.89806333502E+01  0.54157316056E+00  0.94720060122E+01  0.51100000000E-03 0. -1.
        -11    1    3    3    0    0  0.16331633387E+02 -0.97828690603E+01 -0.97574363685E+01  0.21392389789E+02  0.51100000000E-03 0.  1.
         12    1    3    3    0    0 -0.29819051949E+02  0.28894678872E+02 -0.24997023020E+01  0.41597197476E+02  0.00000000000E+00 0. -1.
</event>
<event>
 7    1  0.3509180E-013  0.7246155E+02  0.7816164E-02  0.1226708E+00
        -11   -1    0    0    0    0  0.00000000000E+00  0.00000000000E+00  0.45593999997E+02  0.45594000000E+02  0.51100000000E-03 0.  1.
         11   -1    0    0    0    0 -0.00000000000E+00 -0.00000000000E+00 -0.45593999997E+02  0.45594000000E+02  0.51100000000E-03 0. -1.
    9900012    2    1    2    0    0 -0.11212716516E+02 -0.14580730119E+02 -0.35152892961E+01  0.72461549154E+02  0.69999972460E+02 0.  0.
        -12    1    1    2    0    0  0.11212716516E+02  0.14580730119E+02  0.35152892961E+01  0.18726450846E+02  0.00000000000E+00 0.  1.
         11    1    3    3    0    0 -0.37993452763E+01  0.57351273666E+01  0.83573223723E+01  0.10824580728E+02  0.51100000000E-03 0. -1.
        -11    1    3    3    0    0  0.17445510188E+02  0.10763111711E+02 -0.17570401322E+01  0.20573711131E+02  0.51100000000E-03 0.  1.
         12    1    3    3    0    0 -0.24858881428E+02 -0.31078969196E+02 -0.10115571536E+02  0.41063257295E+02  0.00000000000E+00 0. -1.
</event>
<event>
 7    1  0.3509180E-013  0.7246161E+02  0.7816164E-02  0.1226708E+00
        -11   -1    0    0    0    0  0.00000000000E+00  0.00000000000E+00  0.45593999997E+02  0.45594000000E+02  0.51100000000E-03 0. -1.
         11   -1    0    0    0    0 -0.00000000000E+00 -0.00000000000E+00 -0.45593999997E+02  0.45594000000E+02  0.51100000000E-03 0.  1.
    9900012    2    1    2    0    0  0.85865029430E+01  0.87108601605E+01  0.14179940801E+02  0.72461605829E+02  0.70000046291E+02 0.  0.
        -12    1    1    2    0    0 -0.85865029430E+01 -0.87108601605E+01 -0.14179940801E+02  0.18726394171E+02  0.00000000000E+00 0.  1.
         11    1    3    3    0    0  0.41419606466E+01  0.15541364064E+02 -0.34144432014E+01  0.16442270451E+02  0.51100000000E-03 0. -1.
        -11    1    3    3    0    0 -0.75510868429E+01 -0.23228770675E+01 -0.17206807250E+02  0.18933802745E+02  0.51100000000E-03 0.  1.
         12    1    3    3    0    0  0.11995629139E+02 -0.45076268359E+01  0.34801191252E+02  0.37085532633E+02  0.00000000000E+00 0. -1.
</event>
<event>
 7    1  0.3509180E-013  0.7246157E+02  0.7816164E-02  0.1226708E+00
        -11   -1    0    0    0    0  0.00000000000E+00  0.00000000000E+00  0.45593999997E+02  0.45594000000E+02  0.51100000000E-03 0.  1.
         11   -1    0    0    0    0 -0.00000000000E+00 -0.00000000000E+00 -0.45593999997E+02  0.45594000000E+02  0.51100000000E-03 0. -1.
    9900012    2    1    2    0    0  0.10878968351E+02 -0.56665264431E+01 -0.14149830574E+02  0.72461570026E+02  0.69999999650E+02 0.  0.
        -12    1    1    2    0    0 -0.10878968351E+02  0.56665264431E+01  0.14149830574E+02  0.18726429974E+02  0.00000000000E+00 0.  1.
         11    1    3    3    0    0 -0.26350017200E+01  0.56875808361E+01 -0.38630947908E+01  0.73631047429E+01  0.51100000000E-03 0. -1.
        -11    1    3    3    0    0  0.36949798524E+02 -0.20769410093E+01 -0.14106401161E+02  0.39605452262E+02  0.51100000000E-03 0.  1.
         12    1    3    3    0    0 -0.23435828453E+02 -0.92771662699E+01  0.38196653776E+01  0.25493013021E+02  0.00000000000E+00 0. -1.
</event>
<event>
 7    1  0.3509180E-013  0.7246155E+02  0.7816164E-02  0.1226708E+00
        -11   -1    0    0    0    0  0.00000000000E+00  0.00000000000E+00  0.45593999997E+02  0.45594000000E+02  0.51100000000E-03 0.  1.
         11   -1    0    0    0    0 -0.00000000000E+00 -0.00000000000E+00 -0.45593999997E+02  0.45594000000E+02  0.51100000000E-03 0. -1.
    9900012    2    1    2    0    0  0.45548030412E+01 -0.16086744668E+02 -0.84350638775E+01  0.72461551128E+02  0.69999975032E+02 0.  0.
        -12    1    1    2    0    0 -0.45548030412E+01  0.16086744668E+02  0.84350638775E+01  0.18726448872E+02  0.00000000000E+00 0.  1.
         11    1    3    3    0    0 -0.96817100224E+01  0.45302060047E+01 -0.20113811076E+02  0.22777701194E+02  0.51100000000E-03 0.  1.
        -11    1    3    3    0    0  0.57918759671E+01  0.81452987288E+01 -0.88518248481E+01  0.13350899670E+02  0.51100000000E-03 0. -1.
        -12    1    3    3    0    0  0.84446370965E+01 -0.28762249401E+02  0.20530572047E+02  0.36332950264E+02  0.00000000000E+00 0.  1.
</event>
<event>
 7    1  0.3509180E-013  0.7246156E+02  0.7816164E-02  0.1226708E+00
        -11   -1    0    0    0    0  0.00000000000E+00  0.00000000000E+00  0.45593999997E+02  0.45594000000E+02  0.51100000000E-03 0.  1.
         11   -1    0    0    0    0 -0.00000000000E+00 -0.00000000000E+00 -0.45593999997E+02  0.45594000000E+02  0.51100000000E-03 0. -1.
    9900012    2    1    2    0    0 -0.10300805058E+02 -0.15239230124E+00 -0.15638081043E+02  0.72461564489E+02  0.69999992437E+02 0.  0.
        -12    1    1    2    0    0  0.10300805058E+02  0.15239230124E+00  0.15638081043E+02  0.18726435511E+02  0.00000000000E+00 0.  1.
         11    1    3    3    0    0 -0.22043737722E+02  0.34246843735E+01  0.38323457578E+01  0.22634966536E+02  0.51100000000E-03 0. -1.
        -11    1    3    3    0    0 -0.79170936480E+01 -0.12305448227E+02  0.65794644959E+01  0.16043496540E+02  0.51100000000E-03 0.  1.
         12    1    3    3    0    0  0.19660026312E+02  0.87283715527E+01 -0.26049891297E+02  0.33783101413E+02  0.00000000000E+00 0. -1.
</event>
<event>
 7    1  0.3509180E-013  0.7246157E+02  0.7816164E-02  0.1226708E+00
        -11   -1    0    0    0    0  0.00000000000E+00  0.00000000000E+00  0.45593999997E+02  0.45594000000E+02  0.51100000000E-03 0. -1.
         11   -1    0    0    0    0 -0.00000000000E+00 -0.00000000000E+00 -0.45593999997E+02  0.45594000000E+02  0.51100000000E-03 0.  1.
    9900012    2    1    2    0    0 -0.11695901479E+02 -0.63026909218E+01  0.13197019895E+02  0.72461565252E+02  0.69999993431E+02 0.  0.
        -12    1    1    2    0    0  0.11695901479E+02  0.63026909218E+01 -0.13197019895E+02  0.18726434748E+02  0.00000000000E+00 0.  1.
         11    1    3    3    0    0  0.72751019989E+01  0.17863891851E+02  0.11817920097E+02  0.22620985320E+02  0.51100000000E-03 0. -1.
        -11    1    3    3    0    0  0.30631132574E+01  0.66522043566E+01  0.85762046240E+01  0.11277666942E+02  0.51100000000E-03 0.  1.
        -12    1    3    3    0    0 -0.22034116736E+02 -0.30818787130E+02 -0.71971048259E+01  0.38562912991E+02  0.00000000000E+00 0.  1.
</event>
<event>
 7    1  0.3509180E-013  0.7246163E+02  0.7816164E-02  0.1226708E+00
        -11   -1    0    0    0    0  0.00000000000E+00  0.00000000000E+00  0.45593999997E+02  0.45594000000E+02  0.51100000000E-03 0.  1.
         11   -1    0    0    0    0 -0.00000000000E+00 -0.00000000000E+00 -0.45593999997E+02  0.45594000000E+02  0.51100000000E-03 0. -1.
    9900012    2    1    2    0    0  0.11399074414E+02 -0.94492352001E+01 -0.11465159748E+02  0.72461632723E+02  0.70000081324E+02 0.  0.
        -12    1    1    2    0    0 -0.11399074414E+02  0.94492352001E+01  0.11465159748E+02  0.18726367277E+02  0.00000000000E+00 0.  1.
         11    1    3    3    0    0  0.19878418716E+01  0.84313180640E+01  0.17918544802E+02  0.19902584950E+02  0.51100000000E-03 0. -1.
        -11    1    3    3    0    0 -0.10937159952E+02 -0.13556155646E+02 -0.11053332433E+01  0.17453154029E+02  0.51100000000E-03 0.  1.
         12    1    3    3    0    0  0.20348392495E+02 -0.43243976183E+01 -0.28278371306E+02  0.35105893744E+02  0.00000000000E+00 0. -1.
</event>
<event>
 7    1  0.3509180E-013  0.7246158E+02  0.7816164E-02  0.1226708E+00
        -11   -1    0    0    0    0  0.00000000000E+00  0.00000000000E+00  0.45593999997E+02  0.45594000000E+02  0.51100000000E-03 0.  1.
         11   -1    0    0    0    0 -0.00000000000E+00 -0.00000000000E+00 -0.45593999997E+02  0.45594000000E+02  0.51100000000E-03 0. -1.
    9900012    2    1    2    0    0 -0.93884312582E+01 -0.12580685681E+02 -0.10210909248E+02  0.72461575852E+02  0.70000007240E+02 0.  0.
        -12    1    1    2    0    0  0.93884312582E+01  0.12580685681E+02  0.10210909248E+02  0.18726424148E+02  0.00000000000E+00 0.  1.
         11    1    3    3    0    0 -0.16162782863E+02 -0.65429217581E+01 -0.20136825061E+02  0.26637137587E+02  0.51100000000E-03 0. -1.
        -11    1    3    3    0    0 -0.57776296565E+00 -0.49459786487E+01 -0.17092087277E+02  0.17802695374E+02  0.51100000000E-03 0.  1.
        -12    1    3    3    0    0  0.73521145710E+01 -0.10917852742E+01  0.27018003089E+02  0.28021742892E+02  0.00000000000E+00 0.  1.
</event>
<event>
 7    1  0.3509180E-013  0.7246146E+02  0.7816164E-02  0.1226708E+00
        -11   -1    0    0    0    0  0.00000000000E+00  0.00000000000E+00  0.45593999997E+02  0.45594000000E+02  0.51100000000E-03 0.  1.
         11   -1    0    0    0    0 -0.00000000000E+00 -0.00000000000E+00 -0.45593999997E+02  0.45594000000E+02  0.51100000000E-03 0. -1.
    9900012    2    1    2    0    0 -0.32572628589E+01 -0.12123783602E+02 -0.13895582866E+02  0.72461464994E+02  0.69999862826E+02 0.  0.
        -12    1    1    2    0    0  0.32572628589E+01  0.12123783602E+02  0.13895582866E+02  0.18726535006E+02  0.00000000000E+00 0.  1.
         11    1    3    3    0    0 -0.14682875685E+02 -0.21343784344E+01 -0.31181894729E+01  0.15161316419E+02  0.51100000000E-03 0. -1.
        -11    1    3    3    0    0 -0.39503384201E+01  0.15722762104E+02  0.11576581445E+02  0.19920533628E+02  0.51100000000E-03 0.  1.
         12    1    3    3    0    0  0.15375951247E+02 -0.25712167272E+02 -0.22353974838E+02  0.37379614947E+02  0.00000000000E+00 0. -1.
</event>
<event>
 7    1  0.3509180E-013  0.7246157E+02  0.7816164E-02  0.1226708E+00
        -11   -1    0    0    0    0  0.00000000000E+00  0.00000000000E+00  0.45593999997E+02  0.45594000000E+02  0.51100000000E-03 0. -1.
         11   -1    0    0    0    0 -0.00000000000E+00 -0.00000000000E+00 -0.45593999997E+02  0.45594000000E+02  0.51100000000E-03 0.  1.
    9900012    2    1    2    0    0  0.16430495080E+01 -0.72308691857E+00  0.18640186738E+02  0.72461574072E+02  0.70000004922E+02 0.  0.
        -12    1    1    2    0    0 -0.16430495080E+01  0.72308691857E+00 -0.18640186738E+02  0.18726425928E+02  0.00000000000E+00 0.  1.
         11    1    3    3    0    0 -0.11196642572E+02  0.65116185965E+00 -0.79222025984E+00  0.11243506120E+02  0.51100000000E-03 0. -1.
        -11    1    3    3    0    0 -0.15532024010E+02 -0.11049211233E+02 -0.79173966430E+01  0.20640106796E+02  0.51100000000E-03 0.  1.
         12    1    3    3    0    0  0.28371716090E+02  0.96749624544E+01  0.27349803641E+02  0.40577961156E+02  0.00000000000E+00 0. -1.
</event>
<event>
 7    1  0.3509180E-013  0.7246141E+02  0.7816164E-02  0.1226708E+00
        -11   -1    0    0    0    0  0.00000000000E+00  0.00000000000E+00  0.45593999997E+02  0.45594000000E+02  0.51100000000E-03 0.  1.
         11   -1    0    0    0    0 -0.00000000000E+00 -0.00000000000E+00 -0.45593999997E+02  0.45594000000E+02  0.51100000000E-03 0. -1.
    9900012    2    1    2    0    0  0.45762076863E+01  0.67132692850E+01 -0.16872332085E+02  0.72461407911E+02  0.69999788465E+02 0.  0.
        -12    1    1    2    0    0 -0.45762076863E+01 -0.67132692850E+01  0.16872332085E+02  0.18726592089E+02  0.00000000000E+00 0.  1.
         11    1    3    3    0    0  0.90021199645E+01  0.20503757348E+02 -0.15571267121E+02  0.27274651038E+02  0.51100000000E-03 0. -1.
        -11    1    3    3    0    0 -0.10510059159E+02  0.55362787541E+01 -0.16162968679E+02  0.20058745791E+02  0.51100000000E-03 0.  1.
        -12    1    3    3    0    0  0.60841468804E+01 -0.19326766818E+02  0.14861903715E+02  0.25128011081E+02  0.00000000000E+00 0.  1.
</event>
<event>
 7    1  0.3509180E-013  0.7246172E+02  0.7816164E-02  0.1226708E+00
        -11   -1    0    0    0    0  0.00000000000E+00  0.00000000000E+00  0.45593999997E+02  0.45594000000E+02  0.51100000000E-03 0.  1.
         11   -1    0    0    0    0 -0.00000000000E+00 -0.00000000000E+00 -0.45593999997E+02  0.45594000000E+02  0.51100000000E-03 0. -1.
    9900012    2    1    2    0    0 -0.11011858463E+01  0.15663757923E+02 -0.10203308576E+02  0.72461723584E+02  0.70000199687E+02 0.  0.
        -12    1    1    2    0    0  0.11011858463E+01 -0.15663757923E+02  0.10203308576E+02  0.18726276416E+02  0.00000000000E+00 0.  1.
         11    1    3    3    0    0  0.46933942637E+01  0.23373986658E+01  0.28019328945E+00  0.52507038364E+01  0.51100000000E-03 0. -1.
        -11    1    3    3    0    0 -0.84309300394E+01  0.14202584132E+02  0.25901884712E+02  0.30719726712E+02  0.51100000000E-03 0.  1.
         12    1    3    3    0    0  0.26363499295E+01 -0.87622487487E+00 -0.36385386578E+02  0.36491293035E+02  0.00000000000E+00 0. -1.
</event>
<event>
 7    1  0.3509180E-013  0.7246167E+02  0.7816164E-02  0.1226708E+00
        -11   -1    0    0    0    0  0.00000000000E+00  0.00000000000E+00  0.45593999997E+02  0.45594000000E+02  0.51100000000E-03 0.  1.
         11   -1    0    0    0    0 -0.00000000000E+00 -0.00000000000E+00 -0.45593999997E+02  0.45594000000E+02  0.51100000000E-03 0. -1.
    9900012    2    1    2    0    0 -0.17189868926E+02  0.12962402573E+00 -0.74274447646E+01  0.72461672762E+02  0.70000133483E+02 0.  0.
        -12    1    1    2    0    0  0.17189868926E+02 -0.12962402573E+00  0.74274447646E+01  0.18726327238E+02  0.00000000000E+00 0.  1.
         11    1    3    3    0    0  0.18626674471E+02 -0.10025971166E+02  0.77753911108E+01  0.22537298127E+02  0.51100000000E-03 0. -1.
        -11    1    3    3    0    0 -0.55614167490E+01 -0.97532384764E+01 -0.50463300701E+01  0.12309364909E+02  0.51100000000E-03 0.  1.
         12    1    3    3    0    0 -0.30255126648E+02  0.19908833668E+02 -0.10156505805E+02  0.37615009726E+02  0.00000000000E+00 0. -1.
</event>
<event>
 7    1  0.3509180E-013  0.7246176E+02  0.7816164E-02  0.1226708E+00
        -11   -1    0    0    0    0  0.00000000000E+00  0.00000000000E+00  0.45593999997E+02  0.45594000000E+02  0.51100000000E-03 0. -1.
         11   -1    0    0    0    0 -0.00000000000E+00 -0.00000000000E+00 -0.45593999997E+02  0.45594000000E+02  0.51100000000E-03 0.  1.
    9900012    2    1    2    0    0  0.10882552441E+02  0.14341070807E+02  0.51551693495E+01  0.72461760908E+02  0.70000248309E+02 0.  0.
        -12    1    1    2    0    0 -0.10882552441E+02 -0.14341070807E+02 -0.51551693495E+01  0.18726239092E+02  0.00000000000E+00 0.  1.
         11    1    3    3    0    0  0.38825439913E+01 -0.13461535392E+02 -0.41639105698E+01  0.14615924002E+02  0.51100000000E-03 0. -1.
        -11    1    3    3    0    0 -0.11598004694E+01 -0.88848899538E+01 -0.11736396527E+02  0.14765818986E+02  0.51100000000E-03 0.  1.
         12    1    3    3    0    0  0.81598089190E+01  0.36687496153E+02  0.21055476447E+02  0.43080017919E+02  0.00000000000E+00 0. -1.
</event>
<event>
 7    1  0.3509180E-013  0.7246155E+02  0.7816164E-02  0.1226708E+00
        -11   -1    0    0    0    0  0.00000000000E+00  0.00000000000E+00  0.45593999997E+02  0.45594000000E+02  0.51100000000E-03 0. -1.
         11   -1    0    0    0    0 -0.00000000000E+00 -0.00000000000E+00 -0.45593999997E+02  0.45594000000E+02  0.51100000000E-03 0.  1.
    9900012    2    1    2    0    0 -0.34107756902E+01  0.18299599533E+02  0.20423270766E+01  0.72461552559E+02  0.69999976896E+02 0.  0.
        -12    1    1    2    0    0  0.34107756902E+01 -0.18299599533E+02 -0.20423270766E+01  0.18726447441E+02  0.00000000000E+00 0.  1.
         11    1    3    3    0    0 -0.50225963688E+01  0.15101996021E+01  0.33119419539E+01  0.62029135807E+01  0.51100000000E-03 0. -1.
        -11    1    3    3    0    0 -0.29394867919E+02  0.56433467169E+01  0.98071547743E+01  0.31497395244E+02  0.51100000000E-03 0.  1.
         12    1    3    3    0    0  0.31006688598E+02  0.11146053214E+02 -0.11076769652E+02  0.34761243734E+02  0.00000000000E+00 0. -1.
</event>
<event>
 7    1  0.3509180E-013  0.7246156E+02  0.7816164E-02  0.1226708E+00
        -11   -1    0    0    0    0  0.00000000000E+00  0.00000000000E+00  0.45593999997E+02  0.45594000000E+02  0.51100000000E-03 0.  1.
         11   -1    0    0    0    0 -0.00000000000E+00 -0.00000000000E+00 -0.45593999997E+02  0.45594000000E+02  0.51100000000E-03 0. -1.
    9900012    2    1    2    0    0 -0.45551176434E+01 -0.15774810996E+02 -0.90047629801E+01  0.72461561069E+02  0.69999987982E+02 0.  0.
        -12    1    1    2    0    0  0.45551176434E+01  0.15774810996E+02  0.90047629801E+01  0.18726438931E+02  0.00000000000E+00 0.  1.
         11    1    3    3    0    0 -0.27348753996E+02 -0.70186667576E+01 -0.42626196686E+00  0.28238231667E+02  0.51100000000E-03 0. -1.
        -11    1    3    3    0    0 -0.46674608785E+01 -0.12936036876E+02 -0.90128260256E+01  0.16442544643E+02  0.51100000000E-03 0.  1.
        -12    1    3    3    0    0  0.27461097231E+02  0.41798926378E+01  0.43432501233E+00  0.27780784758E+02  0.00000000000E+00 0.  1.
</event>
<event>
 7    1  0.3509180E-013  0.7246158E+02  0.7816164E-02  0.1226708E+00
        -11   -1    0    0    0    0  0.00000000000E+00  0.00000000000E+00  0.45593999997E+02  0.45594000000E+02  0.51100000000E-03 0. -1.
         11   -1    0    0    0    0 -0.00000000000E+00 -0.00000000000E+00 -0.45593999997E+02  0.45594000000E+02  0.51100000000E-03 0.  1.
    9900012    2    1    2    0    0 -0.99161163795E+01 -0.70938432402E+00  0.15869665166E+02  0.72461578488E+02  0.70000010674E+02 0.  0.
        -12    1    1    2    0    0  0.99161163795E+01  0.70938432402E+00 -0.15869665166E+02  0.18726421512E+02  0.00000000000E+00 0.  1.
         11    1    3    3    0    0 -0.60176664433E+01  0.16018722769E+02  0.17243142090E+02  0.24292750729E+02  0.51100000000E-03 0. -1.
        -11    1    3    3    0    0 -0.90237517615E+01  0.13929777502E+02  0.27148573353E+01  0.16817765836E+02  0.51100000000E-03 0.  1.
         12    1    3    3    0    0  0.51253018253E+01 -0.30657884595E+02 -0.40883342599E+01  0.31351061923E+02  0.00000000000E+00 0. -1.
</event>
<event>
 7    1  0.3509180E-013  0.7246153E+02  0.7816164E-02  0.1226708E+00
        -11   -1    0    0    0    0  0.00000000000E+00  0.00000000000E+00  0.45593999997E+02  0.45594000000E+02  0.51100000000E-03 0. -1.
         11   -1    0    0    0    0 -0.00000000000E+00 -0.00000000000E+00 -0.45593999997E+02  0.45594000000E+02  0.51100000000E-03 0.  1.
    9900012    2    1    2    0    0 -0.10170823743E+02 -0.74014723473E+01  0.13872749415E+02  0.72461531437E+02  0.69999949381E+02 0.  0.
        -12    1    1    2    0    0  0.10170823743E+02  0.74014723473E+01 -0.13872749415E+02  0.18726468563E+02  0.00000000000E+00 0.  1.
         11    1    3    3    0    0 -0.77594133949E+01  0.40485916745E+01 -0.18455443810E+01  0.89445863573E+01  0.51100000000E-03 0. -1.
        -11    1    3    3    0    0  0.88710179022E-01 -0.66457338839E+01 -0.23246297835E+02  0.24177758615E+02  0.51100000000E-03 0.  1.
         12    1    3    3    0    0 -0.25001205276E+01 -0.48043301379E+01  0.38964591631E+02  0.39339186464E+02  0.00000000000E+00 0. -1.
</event>
<event>
 7    1  0.3509180E-013  0.7246154E+02  0.7816164E-02  0.1226708E+00
        -11   -1    0    0    0    0  0.00000000000E+00  0.00000000000E+00  0.45593999997E+02  0.45594000000E+02  0.51100000000E-03 0. -1.
         11   -1    0    0    0    0 -0.00000000000E+00 -0.00000000000E+00 -0.45593999997E+02  0.45594000000E+02  0.51100000000E-03 0.  1.
    9900012    2    1    2    0    0  0.17376762148E+02  0.11749335268E+01  0.68809813749E+01  0.72461541813E+02  0.69999962898E+02 0.  0.
        -12    1    1    2    0    0 -0.17376762148E+02 -0.11749335268E+01 -0.68809813749E+01  0.18726458187E+02  0.00000000000E+00 0.  1.
         11    1    3    3    0    0 -0.18409900842E+02 -0.68407909322E+01  0.15007514157E+02  0.24717328962E+02  0.51100000000E-03 0. -1.
        -11    1    3    3    0    0 -0.17076395144E+01 -0.65891837551E+01 -0.10102227339E+01  0.68814188583E+01  0.51100000000E-03 0.  1.
        -12    1    3    3    0    0  0.37494302504E+02  0.14604908214E+02 -0.71163100487E+01  0.40862793993E+02  0.00000000000E+00 0.  1.
</event>
<event>
 7    1  0.3509180E-013  0.7246158E+02  0.7816164E-02  0.1226708E+00
        -11   -1    0    0    0    0  0.00000000000E+00  0.00000000000E+00  0.45593999997E+02  0.45594000000E+02  0.51100000000E-03 0. -1.
         11   -1    0    0    0    0 -0.00000000000E+00 -0.00000000000E+00 -0.45593999997E+02  0.45594000000E+02  0.51100000000E-03 0.  1.
    9900012    2    1    2    0    0 -0.15766683270E+02 -0.39250427774E+01  0.93104442753E+01  0.72461584573E+02  0.70000018601E+02 0.  0.
        -12    1    1    2    0    0  0.15766683270E+02  0.39250427774E+01 -0.93104442753E+01  0.18726415427E+02  0.00000000000E+00 0.  1.
         11    1    3    3    0    0 -0.67842814097E+01 -0.23648499971E+02 -0.12906293736E+02  0.27782196519E+02  0.51100000000E-03 0. -1.
        -11    1    3    3    0    0 -0.43368899580E+00  0.81990128543E+01 -0.78530526355E+01  0.11361440661E+02  0.51100000000E-03 0.  1.
         12    1    3    3    0    0 -0.85487128646E+01  0.11524444340E+02  0.30069790647E+02  0.33317947394E+02  0.00000000000E+00 0. -1.
</event>
<event>
 7    1  0.3509180E-013  0.7246154E+02  0.7816164E-02  0.1226708E+00
        -11   -1    0    0    0    0  0.00000000000E+00  0.00000000000E+00  0.45593999997E+02  0.45594000000E+02  0.51100000000E-03 0.  1.
         11   -1    0    0    0    0 -0.00000000000E+00 -0.00000000000E+00 -0.45593999997E+02  0.45594000000E+02  0.51100000000E-03 0. -1.
    9900012    2    1    2    0    0 -0.11674728085E+02  0.11610675630E+02 -0.89203824994E+01  0.72461540420E+02  0.69999961084E+02 0.  0.
        -12    1    1    2    0    0  0.11674728085E+02 -0.11610675630E+02  0.89203824994E+01  0.18726459580E+02  0.00000000000E+00 0.  1.
         11    1    3    3    0    0 -0.82622997413E+01 -0.61421011131E+00 -0.18550904878E+02  0.20316961464E+02  0.51100000000E-03 0. -1.
        -11    1    3    3    0    0  0.18367122768E+02 -0.76827024034E+01  0.10731163061E+02  0.22617094772E+02  0.51100000000E-03 0.  1.
         12    1    3    3    0    0 -0.21779551112E+02  0.19907588145E+02 -0.11006406829E+01  0.29527484185E+02  0.00000000000E+00 0. -1.
</event>
<event>
 7    1  0.3509180E-013  0.7246155E+02  0.7816164E-02  0.1226708E+00
        -11   -1    0    0    0    0  0.00000000000E+00  0.00000000000E+00  0.45593999997E+02  0.45594000000E+02  0.51100000000E-03 0.  1.
         11   -1    0    0    0    0 -0.00000000000E+00 -0.00000000000E+00 -0.45593999997E+02  0.45594000000E+02  0.51100000000E-03 0. -1.
    9900012    2    1    2    0    0  0.13947130670E+02 -0.33977498781E+01 -0.12025505671E+02  0.72461549594E+02  0.69999973034E+02 0.  0.
        -12    1    1    2    0    0 -0.13947130670E+02  0.33977498781E+01  0.12025505671E+02  0.18726450406E+02  0.00000000000E+00 0.  1.
         11    1    3    3    0    0  0.14232415426E+02  0.24807729142E+02 -0.36288743785E+01  0.28829738181E+02  0.51100000000E-03 0. -1.
        -11    1    3    3    0    0  0.15074766685E+02 -0.69714943129E+01 -0.31666366485E+01  0.16907924517E+02  0.51100000000E-03 0.  1.
        -12    1    3    3    0    0 -0.15360051441E+02 -0.21233984708E+02 -0.52299946443E+01  0.26723886895E+02  0.00000000000E+00 0.  1.
</event>
<event>
 7    1  0.3509180E-013  0.7246166E+02  0.7816164E-02  0.1226708E+00
        -11   -1    0    0    0    0  0.00000000000E+00  0.00000000000E+00  0.45593999997E+02  0.45594000000E+02  0.51100000000E-03 0.  1.
         11   -1    0    0    0    0 -0.00000000000E+00 -0.00000000000E+00 -0.45593999997E+02  0.45594000000E+02  0.51100000000E-03 0. -1.
    9900012    2    1    2    0    0 -0.15450740356E+02 -0.61073369437E+01 -0.86400700445E+01  0.72461661531E+02  0.70000118853E+02 0.  0.
        -12    1    1    2    0    0  0.15450740356E+02  0.61073369437E+01  0.86400700445E+01  0.18726338469E+02  0.00000000000E+00 0.  1.
         11    1    3    3    0    0 -0.39388417541E+02 -0.12348512120E+02 -0.15391871155E+01  0.41307411989E+02  0.51100000000E-03 0. -1.
        -11    1    3    3    0    0 -0.23600074236E+01 -0.11072426202E+01 -0.22036949817E+01  0.34134869405E+01  0.51100000000E-03 0.  1.
        -12    1    3    3    0    0  0.26297684609E+02  0.73484177963E+01 -0.48971879474E+01  0.27740762601E+02  0.00000000000E+00 0.  1.
</event>
<event>
 7    1  0.3509180E-013  0.7246159E+02  0.7816164E-02  0.1226708E+00
        -11   -1    0    0    0    0  0.00000000000E+00  0.00000000000E+00  0.45593999997E+02  0.45594000000E+02  0.51100000000E-03 0.  1.
         11   -1    0    0    0    0 -0.00000000000E+00 -0.00000000000E+00 -0.45593999997E+02  0.45594000000E+02  0.51100000000E-03 0. -1.
    9900012    2    1    2    0    0  0.91373272996E+01  0.12091323041E+02 -0.10999432408E+02  0.72461592006E+02  0.70000028284E+02 0.  0.
        -12    1    1    2    0    0 -0.91373272996E+01 -0.12091323041E+02  0.10999432408E+02  0.18726407994E+02  0.00000000000E+00 0.  1.
         11    1    3    3    0    0  0.34635491868E+02  0.18006114343E+02 -0.20089291483E+02  0.43902358516E+02  0.51100000000E-03 0. -1.
        -11    1    3    3    0    0 -0.55614526271E+01  0.77080114719E+00 -0.89110785689E-01  0.56153210705E+01  0.51100000000E-03 0.  1.
        -12    1    3    3    0    0 -0.19936711941E+02 -0.66855924493E+01  0.91789698612E+01  0.22943912420E+02  0.00000000000E+00 0.  1.
</event>
<event>
 7    1  0.3509180E-013  0.7246155E+02  0.7816164E-02  0.1226708E+00
        -11   -1    0    0    0    0  0.00000000000E+00  0.00000000000E+00  0.45593999997E+02  0.45594000000E+02  0.51100000000E-03 0. -1.
         11   -1    0    0    0    0 -0.00000000000E+00 -0.00000000000E+00 -0.45593999997E+02  0.45594000000E+02  0.51100000000E-03 0.  1.
    9900012    2    1    2    0    0  0.14474828970E+02 -0.95175822112E+01  0.71115942332E+01  0.72461552996E+02  0.69999977466E+02 0.  0.
        -12    1    1    2    0    0 -0.14474828970E+02  0.95175822112E+01 -0.71115942332E+01  0.18726447004E+02  0.00000000000E+00 0.  1.
         11    1    3    3    0    0  0.78275772826E+01  0.17489970956E+02  0.15630037085E+02  0.24727881221E+02  0.51100000000E-03 0. -1.
        -11    1    3    3    0    0  0.12735242728E+02  0.21256120380E+01  0.64346725330E+01  0.14426005848E+02  0.51100000000E-03 0.  1.
        -12    1    3    3    0    0 -0.60879910405E+01 -0.29133165205E+02 -0.14953115385E+02  0.33307665927E+02  0.00000000000E+00 0.  1.
</event>
<event>
 7    1  0.3509180E-013  0.7246127E+02  0.7816164E-02  0.1226709E+00
        -11   -1    0    0    0    0  0.00000000000E+00  0.00000000000E+00  0.45593999997E+02  0.45594000000E+02  0.51100000000E-03 0.  1.
         11   -1    0    0    0    0 -0.00000000000E+00 -0.00000000000E+00 -0.45593999997E+02  0.45594000000E+02  0.51100000000E-03 0. -1.
    9900012    2    1    2    0    0  0.10914977573E+02 -0.28123883715E+01 -0.14954741606E+02  0.72461266161E+02  0.69999603809E+02 0.  0.
        -12    1    1    2    0    0 -0.10914977573E+02  0.28123883715E+01  0.14954741606E+02  0.18726733839E+02  0.00000000000E+00 0.  1.
         11    1    3    3    0    0 -0.31926722178E+01 -0.12785813497E-01 -0.42849654666E+01  0.53436175647E+01  0.51100000000E-03 0. -1.
        -11    1    3    3    0    0  0.61448768450E+01  0.27816319245E+02 -0.19199988732E+02  0.34353263241E+02  0.51100000000E-03 0.  1.
         12    1    3    3    0    0  0.79627729462E+01 -0.30615921803E+02  0.85302125923E+01  0.32764385355E+02  0.00000000000E+00 0. -1.
</event>
<event>
 7    1  0.3509180E-013  0.7246162E+02  0.7816164E-02  0.1226708E+00
        -11   -1    0    0    0    0  0.00000000000E+00  0.00000000000E+00  0.45593999997E+02  0.45594000000E+02  0.51100000000E-03 0. -1.
         11   -1    0    0    0    0 -0.00000000000E+00 -0.00000000000E+00 -0.45593999997E+02  0.45594000000E+02  0.51100000000E-03 0.  1.
    9900012    2    1    2    0    0 -0.15024126750E+02  0.34093410453E+01 -0.10645619374E+02  0.72461622806E+02  0.70000068406E+02 0.  0.
        -12    1    1    2    0    0  0.15024126750E+02 -0.34093410453E+01  0.10645619374E+02  0.18726377194E+02  0.00000000000E+00 0.  1.
         11    1    3    3    0    0 -0.25326565494E+02  0.90947907540E+01  0.33204095711E+01  0.27114115486E+02  0.51100000000E-03 0. -1.
        -11    1    3    3    0    0  0.95858173019E+01 -0.17627912302E+02  0.69636564444E+01  0.21239672710E+02  0.51100000000E-03 0.  1.
        -12    1    3    3    0    0  0.71662144209E+00  0.11942462594E+02 -0.20929685389E+02  0.24107834610E+02  0.00000000000E+00 0.  1.
</event>
<event>
 7    1  0.3509180E-013  0.7246155E+02  0.7816164E-02  0.1226708E+00
        -11   -1    0    0    0    0  0.00000000000E+00  0.00000000000E+00  0.45593999997E+02  0.45594000000E+02  0.51100000000E-03 0.  1.
         11   -1    0    0    0    0 -0.00000000000E+00 -0.00000000000E+00 -0.45593999997E+02  0.45594000000E+02  0.51100000000E-03 0. -1.
    9900012    2    1    2    0    0 -0.46461352245E+01 -0.89971696080E+01 -0.15752592369E+02  0.72461553465E+02  0.69999978077E+02 0.  0.
        -12    1    1    2    0    0  0.46461352245E+01  0.89971696080E+01  0.15752592369E+02  0.18726446535E+02  0.00000000000E+00 0.  1.
         11    1    3    3    0    0  0.45517115373E+01  0.14774408197E+02 -0.13757445073E+02  0.20694649325E+02  0.51100000000E-03 0. -1.
        -11    1    3    3    0    0 -0.19352284815E+02 -0.71792066416E+01 -0.17365602009E+02  0.26974359473E+02  0.51100000000E-03 0.  1.
        -12    1    3    3    0    0  0.10154438053E+02 -0.16592371163E+02  0.15370454714E+02  0.24792544668E+02  0.00000000000E+00 0.  1.
</event>
<event>
 7    1  0.3509180E-013  0.7246161E+02  0.7816164E-02  0.1226708E+00
        -11   -1    0    0    0    0  0.00000000000E+00  0.00000000000E+00  0.45593999997E+02  0.45594000000E+02  0.51100000000E-03 0. -1.
         11   -1    0    0    0    0 -0.00000000000E+00 -0.00000000000E+00 -0.45593999997E+02  0.45594000000E+02  0.51100000000E-03 0.  1.
    9900012    2    1    2    0    0  0.11458125735E+02 -0.42222023559E+01  0.14197250664E+02  0.72461613148E+02  0.70000055825E+02 0.  0.
        -12    1    1    2    0    0 -0.11458125735E+02  0.42222023559E+01 -0.14197250664E+02  0.18726386852E+02  0.00000000000E+00 0.  1.
         11    1    3    3    0    0  0.20199479537E+01  0.25539363664E+02  0.88798631617E+01  0.27114410489E+02  0.51100000000E-03 0. -1.
        -11    1    3    3    0    0  0.64024017947E+01 -0.24220401842E+00 -0.10058142087E+02  0.11925419659E+02  0.51100000000E-03 0.  1.
        -12    1    3    3    0    0  0.30357759870E+01 -0.29519362002E+02  0.15375529589E+02  0.33421783001E+02  0.00000000000E+00 0.  1.
</event>
<event>
 7    1  0.3509180E-013  0.7246157E+02  0.7816164E-02  0.1226708E+00
        -11   -1    0    0    0    0  0.00000000000E+00  0.00000000000E+00  0.45593999997E+02  0.45594000000E+02  0.51100000000E-03 0.  1.
         11   -1    0    0    0    0 -0.00000000000E+00 -0.00000000000E+00 -0.45593999997E+02  0.45594000000E+02  0.51100000000E-03 0. -1.
    9900012    2    1    2    0    0 -0.33330165673E+01 -0.55206717137E+01 -0.17581026557E+02  0.72461566533E+02  0.69999995100E+02 0.  0.
        -12    1    1    2    0    0  0.33330165673E+01  0.55206717137E+01  0.17581026557E+02  0.18726433467E+02  0.00000000000E+00 0.  1.
         11    1    3    3    0    0 -0.30408542343E+02  0.36514843683E+01  0.54826192400E+01  0.31113853820E+02  0.51100000000E-03 0. -1.
        -11    1    3    3    0    0  0.22678650046E+01 -0.26497348112E+01 -0.13546514693E+02  0.13988293922E+02  0.51100000000E-03 0.  1.
        -12    1    3    3    0    0  0.24807660771E+02 -0.65224212709E+01 -0.95171311032E+01  0.27359418791E+02  0.00000000000E+00 0.  1.
</event>
<event>
 7    1  0.3509180E-013  0.7246153E+02  0.7816164E-02  0.1226708E+00
        -11   -1    0    0    0    0  0.00000000000E+00  0.00000000000E+00  0.45593999997E+02  0.45594000000E+02  0.51100000000E-03 0.  1.
         11   -1    0    0    0    0 -0.00000000000E+00 -0.00000000000E+00 -0.45593999997E+02  0.45594000000E+02  0.51100000000E-03 0. -1.
    9900012    2    1    2    0    0 -0.22602284648E+01  0.95218015141E+01 -0.15965822998E+02  0.72461525671E+02  0.69999941870E+02 0.  0.
        -12    1    1    2    0    0  0.22602284648E+01 -0.95218015141E+01  0.15965822998E+02  0.18726474329E+02  0.00000000000E+00 0.  1.
         11    1    3    3    0    0 -0.96739101142E+01 -0.45021228054E+01 -0.19472975504E+02  0.22204738726E+02  0.51100000000E-03 0. -1.
        -11    1    3    3    0    0  0.17387194377E+02 -0.51351215668E+01 -0.13632399069E+02  0.22683172319E+02  0.51100000000E-03 0.  1.
        -12    1    3    3    0    0 -0.99735127279E+01  0.19159045886E+02  0.17139551574E+02  0.27573614627E+02  0.00000000000E+00 0.  1.
</event>
<event>
 7    1  0.3509180E-013  0.7246157E+02  0.7816164E-02  0.1226708E+00
        -11   -1    0    0    0    0  0.00000000000E+00  0.00000000000E+00  0.45593999997E+02  0.45594000000E+02  0.51100000000E-03 0.  1.
         11   -1    0    0    0    0 -0.00000000000E+00 -0.00000000000E+00 -0.45593999997E+02  0.45594000000E+02  0.51100000000E-03 0. -1.
    9900012    2    1    2    0    0  0.17491552342E+02  0.15768926973E+01  0.64991017789E+01  0.72461566335E+02  0.69999994842E+02 0.  0.
        -12    1    1    2    0    0 -0.17491552342E+02 -0.15768926973E+01 -0.64991017789E+01  0.18726433665E+02  0.00000000000E+00 0.  1.
         11    1    3    3    0    0  0.11021894833E+02  0.14895816032E+02 -0.96671237257E+01  0.20900257949E+02  0.51100000000E-03 0. -1.
        -11    1    3    3    0    0  0.12279007513E+00  0.17337191918E+02  0.86016880391E+01  0.19354129750E+02  0.51100000000E-03 0.  1.
         12    1    3    3    0    0  0.63468674339E+01 -0.30656115252E+02  0.75645374655E+01  0.32207178635E+02  0.00000000000E+00 0. -1.
</event>
<event>
 7    1  0.3509180E-013  0.7246185E+02  0.7816164E-02  0.1226707E+00
        -11   -1    0    0    0    0  0.00000000000E+00  0.00000000000E+00  0.45593999997E+02  0.45594000000E+02  0.51100000000E-03 0.  1.
         11   -1    0    0    0    0 -0.00000000000E+00 -0.00000000000E+00 -0.45593999997E+02  0.45594000000E+02  0.51100000000E-03 0. -1.
    9900012    2    1    2    0    0 -0.12077912353E+02  0.13099960610E+02  0.57605337281E+01  0.72461850273E+02  0.70000364723E+02 0.  0.
        -12    1    1    2    0    0  0.12077912353E+02 -0.13099960610E+02 -0.57605337281E+01  0.18726149727E+02  0.00000000000E+00 0.  1.
         11    1    3    3    0    0 -0.66507784543E+01  0.62114942057E+01  0.37727393078E-01  0.91003811971E+01  0.51100000000E-03 0. -1.
        -11    1    3    3    0    0 -0.21476154357E+02 -0.18730410666E+02  0.14374934752E+02  0.31916958487E+02  0.51100000000E-03 0.  1.
         12    1    3    3    0    0  0.16049020459E+02  0.25618877070E+02 -0.86521284170E+01  0.31444510589E+02  0.00000000000E+00 0. -1.
</event>
<event>
 7    1  0.3509180E-013  0.7246158E+02  0.7816164E-02  0.1226708E+00
        -11   -1    0    0    0    0  0.00000000000E+00  0.00000000000E+00  0.45593999997E+02  0.45594000000E+02  0.51100000000E-03 0. -1.
         11   -1    0    0    0    0 -0.00000000000E+00 -0.00000000000E+00 -0.45593999997E+02  0.45594000000E+02  0.51100000000E-03 0.  1.
    9900012    2    1    2    0    0 -0.10167331048E+02  0.15276366150E+02  0.37332068031E+01  0.72461579722E+02  0.70000012281E+02 0.  0.
        -12    1    1    2    0    0  0.10167331048E+02 -0.15276366150E+02 -0.37332068031E+01  0.18726420278E+02  0.00000000000E+00 0.  1.
         11    1    3    3    0    0 -0.21398061133E+02  0.32425302723E+01  0.59119787036E+01  0.22435296193E+02  0.51100000000E-03 0. -1.
        -11    1    3    3    0    0  0.14383416805E+02  0.14488811072E+02 -0.21879010877E+02  0.29924896699E+02  0.51100000000E-03 0.  1.
         12    1    3    3    0    0 -0.31526867191E+01 -0.24549751936E+01  0.19700238976E+02  0.20101386829E+02  0.00000000000E+00 0. -1.
</event>
<event>
 7    1  0.3509180E-013  0.7246167E+02  0.7816164E-02  0.1226708E+00
        -11   -1    0    0    0    0  0.00000000000E+00  0.00000000000E+00  0.45593999997E+02  0.45594000000E+02  0.51100000000E-03 0. -1.
         11   -1    0    0    0    0 -0.00000000000E+00 -0.00000000000E+00 -0.45593999997E+02  0.45594000000E+02  0.51100000000E-03 0.  1.
    9900012    2    1    2    0    0  0.15944693748E+02 -0.79057156390E+01 -0.58259558461E+01  0.72461672010E+02  0.70000132503E+02 0.  0.
        -12    1    1    2    0    0 -0.15944693748E+02  0.79057156390E+01  0.58259558461E+01  0.18726327990E+02  0.00000000000E+00 0.  1.
         11    1    3    3    0    0  0.74727851062E+01  0.66214854213E+01 -0.11237033507E+02  0.15031883073E+02  0.51100000000E-03 0. -1.
        -11    1    3    3    0    0  0.70592915373E+01  0.48523158768E+01 -0.22126608388E+02  0.23726891187E+02  0.51100000000E-03 0.  1.
         12    1    3    3    0    0  0.14126171045E+01 -0.19379516937E+02  0.27537686049E+02  0.33702897750E+02  0.00000000000E+00 0. -1.
</event>
<event>
 7    1  0.3509180E-013  0.7246157E+02  0.7816164E-02  0.1226708E+00
        -11   -1    0    0    0    0  0.00000000000E+00  0.00000000000E+00  0.45593999997E+02  0.45594000000E+02  0.51100000000E-03 0. -1.
         11   -1    0    0    0    0 -0.00000000000E+00 -0.00000000000E+00 -0.45593999997E+02  0.45594000000E+02  0.51100000000E-03 0.  1.
    9900012    2    1    2    0    0 -0.74497909388E+01  0.16895433270E+02 -0.31183747993E+01  0.72461566496E+02  0.69999995051E+02 0.  0.
        -12    1    1    2    0    0  0.74497909388E+01 -0.16895433270E+02  0.31183747993E+01  0.18726433504E+02  0.00000000000E+00 0.  1.
         11    1    3    3    0    0 -0.17159768674E+02  0.21202443294E+01  0.93650949048E+01  0.19663623771E+02  0.51100000000E-03 0. -1.
        -11    1    3    3    0    0 -0.42833605407E+01 -0.16441524492E+02 -0.57105881095E+01  0.17924333236E+02  0.51100000000E-03 0.  1.
         12    1    3    3    0    0  0.13993338276E+02  0.31216713433E+02 -0.67728815945E+01  0.34873609488E+02  0.00000000000E+00 0. -1.
</event>
<event>
 7    1  0.3509180E-013  0.7246157E+02  0.7816164E-02  0.1226708E+00
        -11   -1    0    0    0    0  0.00000000000E+00  0.00000000000E+00  0.45593999997E+02  0.45594000000E+02  0.51100000000E-03 0.  1.
         11   -1    0    0    0    0 -0.00000000000E+00 -0.00000000000E+00 -0.45593999997E+02  0.45594000000E+02  0.51100000000E-03 0. -1.
    9900012    2    1    2    0    0  0.10596888558E+02 -0.13067763221E+02  0.82230701561E+01  0.72461565061E+02  0.69999993183E+02 0.  0.
        -12    1    1    2    0    0 -0.10596888558E+02  0.13067763221E+02 -0.82230701561E+01  0.18726434939E+02  0.00000000000E+00 0.  1.
         11    1    3    3    0    0  0.12966267725E+02 -0.50558318695E+01  0.45248129276E+01  0.14634188290E+02  0.51100000000E-03 0. -1.
        -11    1    3    3    0    0  0.11248155259E+02 -0.25950887515E+02  0.15656056385E+02  0.32327722799E+02  0.51100000000E-03 0.  1.
         12    1    3    3    0    0 -0.13617534426E+02  0.17938956163E+02 -0.11957799156E+02  0.25499653973E+02  0.00000000000E+00 0. -1.
</event>
<event>
 7    1  0.3509180E-013  0.7246149E+02  0.7816164E-02  0.1226708E+00
        -11   -1    0    0    0    0  0.00000000000E+00  0.00000000000E+00  0.45593999997E+02  0.45594000000E+02  0.51100000000E-03 0. -1.
         11   -1    0    0    0    0 -0.00000000000E+00 -0.00000000000E+00 -0.45593999997E+02  0.45594000000E+02  0.51100000000E-03 0.  1.
    9900012    2    1    2    0    0 -0.24391840491E+01  0.10853357454E+02  0.15064437527E+02  0.72461487648E+02  0.69999892338E+02 0.  0.
        -12    1    1    2    0    0  0.24391840491E+01 -0.10853357454E+02 -0.15064437527E+02  0.18726512352E+02  0.00000000000E+00 0.  1.
         11    1    3    3    0    0  0.87067849669E+01  0.33159590208E+01  0.15297663386E+02  0.17911510098E+02  0.51100000000E-03 0. -1.
        -11    1    3    3    0    0  0.35229184861E+01  0.18051497043E+02  0.20179130338E+02  0.27303201307E+02  0.51100000000E-03 0.  1.
        -12    1    3    3    0    0 -0.14668887502E+02 -0.10514098610E+02 -0.20412356196E+02  0.27246776243E+02  0.00000000000E+00 0.  1.
</event>
<event>
 7    1  0.3509180E-013  0.7246150E+02  0.7816164E-02  0.1226708E+00
        -11   -1    0    0    0    0  0.00000000000E+00  0.00000000000E+00  0.45593999997E+02  0.45594000000E+02  0.51100000000E-03 0. -1.
         11   -1    0    0    0    0 -0.00000000000E+00 -0.00000000000E+00 -0.45593999997E+02  0.45594000000E+02  0.51100000000E-03 0.  1.
    9900012    2    1    2    0    0  0.10019597671E+02 -0.15547590970E+02  0.29260803043E+01  0.72461498234E+02  0.69999906127E+02 0.  0.
        -12    1    1    2    0    0 -0.10019597671E+02  0.15547590970E+02 -0.29260803043E+01  0.18726501766E+02  0.00000000000E+00 0.  1.
         11    1    3    3    0    0  0.11961361228E+02 -0.63249430807E+01 -0.50426725788E+01  0.14439792741E+02  0.51100000000E-03 0. -1.
        -11    1    3    3    0    0  0.24875156128E+02  0.72708434526E+01  0.21456184498E+01  0.26004657962E+02  0.51100000000E-03 0.  1.
        -12    1    3    3    0    0 -0.26816919684E+02 -0.16493491342E+02  0.58231344333E+01  0.32017047531E+02  0.00000000000E+00 0.  1.
</event>
<event>
 7    1  0.3509180E-013  0.7246157E+02  0.7816164E-02  0.1226708E+00
        -11   -1    0    0    0    0  0.00000000000E+00  0.00000000000E+00  0.45593999997E+02  0.45594000000E+02  0.51100000000E-03 0. -1.
         11   -1    0    0    0    0 -0.00000000000E+00 -0.00000000000E+00 -0.45593999997E+02  0.45594000000E+02  0.51100000000E-03 0.  1.
    9900012    2    1    2    0    0 -0.10055786207E+02  0.51489937553E+01  0.14934801960E+02  0.72461567277E+02  0.69999996070E+02 0.  0.
        -12    1    1    2    0    0  0.10055786207E+02 -0.51489937553E+01 -0.14934801960E+02  0.18726432723E+02  0.00000000000E+00 0.  1.
         11    1    3    3    0    0  0.13393994803E+02  0.14918661058E+02  0.51735293723E+01  0.20705819254E+02  0.51100000000E-03 0. -1.
        -11    1    3    3    0    0 -0.83060555346E+01  0.19006334468E+00 -0.17296313128E+02  0.19188255019E+02  0.51100000000E-03 0.  1.
        -12    1    3    3    0    0 -0.15143725475E+02 -0.99597306473E+01  0.27057585715E+02  0.32567493004E+02  0.00000000000E+00 0.  1.
</event>
<event>
 7    1  0.3509180E-013  0.7246168E+02  0.7816164E-02  0.1226708E+00
        -11   -1    0    0    0    0  0.00000000000E+00  0.00000000000E+00  0.45593999997E+02  0.45594000000E+02  0.51100000000E-03 0.  1.
         11   -1    0    0    0    0 -0.00000000000E+00 -0.00000000000E+00 -0.45593999997E+02  0.45594000000E+02  0.51100000000E-03 0. -1.
    9900012    2    1    2    0    0  0.63801456860E+00  0.15445982596E+02 -0.10568334638E+02  0.72461677938E+02  0.70000140226E+02 0.  0.
        -12    1    1    2    0    0 -0.63801456860E+00 -0.15445982596E+02  0.10568334638E+02  0.18726322062E+02  0.00000000000E+00 0.  1.
         11    1    3    3    0    0 -0.10273912014E+02 -0.80342494491E+01 -0.17097262835E+01  0.13153919435E+02  0.51100000000E-03 0. -1.
        -11    1    3    3    0    0  0.16832899049E+00  0.14707813703E+01  0.20795032397E+02  0.20847659464E+02  0.51100000000E-03 0.  1.
         12    1    3    3    0    0  0.10743597592E+02  0.22009450675E+02 -0.29653640751E+02  0.38460099038E+02  0.00000000000E+00 0. -1.
</event>
<event>
 7    1  0.3509180E-013  0.7246156E+02  0.7816164E-02  0.1226708E+00
        -11   -1    0    0    0    0  0.00000000000E+00  0.00000000000E+00  0.45593999997E+02  0.45594000000E+02  0.51100000000E-03 0. -1.
         11   -1    0    0    0    0 -0.00000000000E+00 -0.00000000000E+00 -0.45593999997E+02  0.45594000000E+02  0.51100000000E-03 0.  1.
    9900012    2    1    2    0    0  0.13231523086E+02 -0.12063133616E+01  0.13196632754E+02  0.72461561173E+02  0.69999988118E+02 0.  0.
        -12    1    1    2    0    0 -0.13231523086E+02  0.12063133616E+01 -0.13196632754E+02  0.18726438827E+02  0.00000000000E+00 0.  1.
         11    1    3    3    0    0 -0.53840449790E+01  0.37428193066E+00 -0.21660350852E+01  0.58154738028E+01  0.51100000000E-03 0. -1.
        -11    1    3    3    0    0  0.13730214502E+02  0.29937702903E+02  0.69659793533E+01  0.33664665660E+02  0.51100000000E-03 0.  1.
         12    1    3    3    0    0  0.48853535626E+01 -0.31518298195E+02  0.83966884855E+01  0.32981421711E+02  0.00000000000E+00 0. -1.
</event>
<event>
 7    1  0.3509180E-013  0.7246131E+02  0.7816164E-02  0.1226709E+00
        -11   -1    0    0    0    0  0.00000000000E+00  0.00000000000E+00  0.45593999997E+02  0.45594000000E+02  0.51100000000E-03 0.  1.
         11   -1    0    0    0    0 -0.00000000000E+00 -0.00000000000E+00 -0.45593999997E+02  0.45594000000E+02  0.51100000000E-03 0. -1.
    9900012    2    1    2    0    0 -0.41831065231E+01  0.37112212380E+01 -0.17872253705E+02  0.72461307933E+02  0.69999658225E+02 0.  0.
        -12    1    1    2    0    0  0.41831065231E+01 -0.37112212380E+01  0.17872253705E+02  0.18726692067E+02  0.00000000000E+00 0.  1.
         11    1    3    3    0    0 -0.19334819294E+02 -0.20015989328E+02 -0.73042742932E+01  0.28771991400E+02  0.51100000000E-03 0. -1.
        -11    1    3    3    0    0 -0.33018739188E+01 -0.60483329033E+01  0.61259411711E+00  0.69180903505E+01  0.51100000000E-03 0.  1.
        -12    1    3    3    0    0  0.18453586690E+02  0.29775543469E+02 -0.11180573529E+02  0.36771226183E+02  0.00000000000E+00 0.  1.
</event>
<event>
 7    1  0.3509180E-013  0.7246157E+02  0.7816164E-02  0.1226708E+00
        -11   -1    0    0    0    0  0.00000000000E+00  0.00000000000E+00  0.45593999997E+02  0.45594000000E+02  0.51100000000E-03 0.  1.
         11   -1    0    0    0    0 -0.00000000000E+00 -0.00000000000E+00 -0.45593999997E+02  0.45594000000E+02  0.51100000000E-03 0. -1.
    9900012    2    1    2    0    0  0.10421251429E+02  0.13014607418E+02 -0.85262318430E+01  0.72461571696E+02  0.70000001826E+02 0.  0.
        -12    1    1    2    0    0 -0.10421251429E+02 -0.13014607418E+02  0.85262318430E+01  0.18726428304E+02  0.00000000000E+00 0.  1.
         11    1    3    3    0    0 -0.40882373036E+01 -0.65823415918E+01 -0.56391387779E+01  0.95833601362E+01  0.51100000000E-03 0. -1.
        -11    1    3    3    0    0 -0.18134695962E+02  0.13725971631E+02 -0.15357914339E+02  0.27443305704E+02  0.51100000000E-03 0.  1.
        -12    1    3    3    0    0  0.32644184695E+02  0.58709773793E+01  0.12470821274E+02  0.35434905856E+02  0.00000000000E+00 0.  1.
</event>
<event>
 7    1  0.3509180E-013  0.7246157E+02  0.7816164E-02  0.1226708E+00
        -11   -1    0    0    0    0  0.00000000000E+00  0.00000000000E+00  0.45593999997E+02  0.45594000000E+02  0.51100000000E-03 0. -1.
         11   -1    0    0    0    0 -0.00000000000E+00 -0.00000000000E+00 -0.45593999997E+02  0.45594000000E+02  0.51100000000E-03 0.  1.
    9900012    2    1    2    0    0  0.10915482670E+02 -0.13782769612E+02 -0.64472179605E+01  0.72461571629E+02  0.70000001738E+02 0.  0.
        -12    1    1    2    0    0 -0.10915482670E+02  0.13782769612E+02  0.64472179605E+01  0.18726428371E+02  0.00000000000E+00 0.  1.
         11    1    3    3    0    0 -0.43868159277E+01 -0.76313176225E+01 -0.37307775844E+01  0.95603276243E+01  0.51100000000E-03 0. -1.
        -11    1    3    3    0    0 -0.12159603920E+02  0.19217971166E+02 -0.99467317133E+01  0.24821842302E+02  0.51100000000E-03 0.  1.
         12    1    3    3    0    0  0.27461902518E+02 -0.25369423156E+02  0.72302913372E+01  0.38079401702E+02  0.00000000000E+00 0. -1.
</event>
<event>
 7    1  0.3509180E-013  0.7246158E+02  0.7816164E-02  0.1226708E+00
        -11   -1    0    0    0    0  0.00000000000E+00  0.00000000000E+00  0.45593999997E+02  0.45594000000E+02  0.51100000000E-03 0.  1.
         11   -1    0    0    0    0 -0.00000000000E+00 -0.00000000000E+00 -0.45593999997E+02  0.45594000000E+02  0.51100000000E-03 0. -1.
    9900012    2    1    2    0    0  0.16221259918E+02 -0.65124911183E+01 -0.67184123645E+01  0.72461578062E+02  0.70000010119E+02 0.  0.
        -12    1    1    2    0    0 -0.16221259918E+02  0.65124911183E+01  0.67184123645E+01  0.18726421938E+02  0.00000000000E+00 0.  1.
         11    1    3    3    0    0  0.30620116586E+02  0.30987704611E+01 -0.48964959358E+00  0.30780410574E+02  0.51100000000E-03 0. -1.
        -11    1    3    3    0    0 -0.79238881503E+00 -0.17626889293E+02  0.89434325099E+01  0.19781812139E+02  0.51100000000E-03 0.  1.
        -12    1    3    3    0    0 -0.13606467853E+02  0.80156277135E+01 -0.15172195281E+02  0.21899355349E+02  0.00000000000E+00 0.  1.
</event>
<event>
 7    1  0.3509180E-013  0.7246143E+02  0.7816164E-02  0.1226708E+00
        -11   -1    0    0    0    0  0.00000000000E+00  0.00000000000E+00  0.45593999997E+02  0.45594000000E+02  0.51100000000E-03 0. -1.
         11   -1    0    0    0    0 -0.00000000000E+00 -0.00000000000E+00 -0.45593999997E+02  0.45594000000E+02  0.51100000000E-03 0.  1.
    9900012    2    1    2    0    0  0.17185747288E+02  0.39367944934E+00  0.74282800009E+01  0.72461434989E+02  0.69999823739E+02 0.  0.
        -12    1    1    2    0    0 -0.17185747288E+02 -0.39367944934E+00 -0.74282800009E+01  0.18726565011E+02  0.00000000000E+00 0.  1.
         11    1    3    3    0    0  0.24366746943E+02 -0.18843166149E+02  0.82780283194E+00  0.30813771676E+02  0.51100000000E-03 0. -1.
        -11    1    3    3    0    0 -0.13586185999E+02 -0.30721245240E+01 -0.60812236105E+01  0.15198805215E+02  0.51100000000E-03 0.  1.
        -12    1    3    3    0    0  0.64051863440E+01  0.22308970122E+02  0.12681700779E+02  0.26448858098E+02  0.00000000000E+00 0.  1.
</event>
<event>
 7    1  0.3509180E-013  0.7246164E+02  0.7816164E-02  0.1226708E+00
        -11   -1    0    0    0    0  0.00000000000E+00  0.00000000000E+00  0.45593999997E+02  0.45594000000E+02  0.51100000000E-03 0.  1.
         11   -1    0    0    0    0 -0.00000000000E+00 -0.00000000000E+00 -0.45593999997E+02  0.45594000000E+02  0.51100000000E-03 0. -1.
    9900012    2    1    2    0    0 -0.18635593788E+02 -0.15667843925E+01  0.96776359739E+00  0.72461635282E+02  0.70000084658E+02 0.  0.
        -12    1    1    2    0    0  0.18635593788E+02  0.15667843925E+01 -0.96776359739E+00  0.18726364718E+02  0.00000000000E+00 0.  1.
         11    1    3    3    0    0  0.28528293611E+01 -0.91059581719E+00 -0.21545234338E+01  0.36891451034E+01  0.51100000000E-03 0. -1.
        -11    1    3    3    0    0 -0.63319785167E+01  0.45435843990E+01 -0.30525223044E+02  0.31504402125E+02  0.51100000000E-03 0.  1.
        -12    1    3    3    0    0 -0.15156444633E+02 -0.51997729744E+01  0.33647510075E+02  0.37268088053E+02  0.00000000000E+00 0.  1.
</event>
<event>
 7    1  0.3509180E-013  0.7246156E+02  0.7816164E-02  0.1226708E+00
        -11   -1    0    0    0    0  0.00000000000E+00  0.00000000000E+00  0.45593999997E+02  0.45594000000E+02  0.51100000000E-03 0.  1.
         11   -1    0    0    0    0 -0.00000000000E+00 -0.00000000000E+00 -0.45593999997E+02  0.45594000000E+02  0.51100000000E-03 0. -1.
    9900012    2    1    2    0    0 -0.31357765525E+01 -0.18336329899E+02  0.21507106725E+01  0.72461557595E+02  0.69999983457E+02 0.  0.
        -12    1    1    2    0    0  0.31357765525E+01  0.18336329899E+02 -0.21507106725E+01  0.18726442405E+02  0.00000000000E+00 0.  1.
         11    1    3    3    0    0  0.94213068109E+01  0.52543239735E+01  0.64478693359E+00  0.10806696669E+02  0.51100000000E-03 0. -1.
        -11    1    3    3    0    0  0.11958797870E+02 -0.29020881774E+02  0.13081429537E+02  0.34005120562E+02  0.51100000000E-03 0.  1.
         12    1    3    3    0    0 -0.24515881234E+02  0.54302279017E+01 -0.11575505798E+02  0.27649740364E+02  0.00000000000E+00 0. -1.
</event>
<event>
 7    1  0.3509180E-013  0.7246162E+02  0.7816164E-02  0.1226708E+00
        -11   -1    0    0    0    0  0.00000000000E+00  0.00000000000E+00  0.45593999997E+02  0.45594000000E+02  0.51100000000E-03 0.  1.
         11   -1    0    0    0    0 -0.00000000000E+00 -0.00000000000E+00 -0.45593999997E+02  0.45594000000E+02  0.51100000000E-03 0. -1.
    9900012    2    1    2    0    0  0.11309096995E+02  0.12361280509E+02 -0.83654172932E+01  0.72461624559E+02  0.70000070690E+02 0.  0.
        -12    1    1    2    0    0 -0.11309096995E+02 -0.12361280509E+02  0.83654172932E+01  0.18726375441E+02  0.00000000000E+00 0.  1.
         11    1    3    3    0    0 -0.63721251695E+01  0.12897258838E+02 -0.57236422127E+01  0.15482355930E+02  0.51100000000E-03 0. -1.
        -11    1    3    3    0    0 -0.36534189386E+01 -0.20554850555E+02 -0.14492354111E+02  0.25414123618E+02  0.51100000000E-03 0.  1.
         12    1    3    3    0    0  0.21334641103E+02  0.20018872226E+02  0.11850579031E+02  0.31565145011E+02  0.00000000000E+00 0. -1.
</event>
<event>
 7    1  0.3509180E-013  0.7246150E+02  0.7816164E-02  0.1226708E+00
        -11   -1    0    0    0    0  0.00000000000E+00  0.00000000000E+00  0.45593999997E+02  0.45594000000E+02  0.51100000000E-03 0. -1.
         11   -1    0    0    0    0 -0.00000000000E+00 -0.00000000000E+00 -0.45593999997E+02  0.45594000000E+02  0.51100000000E-03 0.  1.
    9900012    2    1    2    0    0  0.12762847583E+02 -0.56461101157E+01  0.12486514979E+02  0.72461497545E+02  0.69999905230E+02 0.  0.
        -12    1    1    2    0    0 -0.12762847583E+02  0.56461101157E+01 -0.12486514979E+02  0.18726502455E+02  0.00000000000E+00 0.  1.
         11    1    3    3    0    0  0.22504246036E+02  0.11772065346E+02 -0.16798331404E+02  0.30450066509E+02  0.51100000000E-03 0.  1.
        -11    1    3    3    0    0 -0.10141390755E+02 -0.19649894198E+02  0.13169073292E+02  0.25736950869E+02  0.51100000000E-03 0. -1.
        -12    1    3    3    0    0  0.39999230193E+00  0.22317187359E+01  0.16115773091E+02  0.16274480167E+02  0.00000000000E+00 0.  1.
</event>
<event>
 7    1  0.3509180E-013  0.7246157E+02  0.7816164E-02  0.1226708E+00
        -11   -1    0    0    0    0  0.00000000000E+00  0.00000000000E+00  0.45593999997E+02  0.45594000000E+02  0.51100000000E-03 0.  1.
         11   -1    0    0    0    0 -0.00000000000E+00 -0.00000000000E+00 -0.45593999997E+02  0.45594000000E+02  0.51100000000E-03 0. -1.
    9900012    2    1    2    0    0 -0.14392841077E+02 -0.23288896344E+01 -0.11751658306E+02  0.72461572841E+02  0.70000003317E+02 0.  0.
        -12    1    1    2    0    0  0.14392841077E+02  0.23288896344E+01  0.11751658306E+02  0.18726427159E+02  0.00000000000E+00 0.  1.
         11    1    3    3    0    0 -0.81493206566E-02  0.22516773593E+02 -0.28974942092E+02  0.36695400651E+02  0.51100000000E-03 0. -1.
        -11    1    3    3    0    0  0.53945489707E+00 -0.26496918981E+01 -0.15235593273E+01  0.31037255074E+01  0.51100000000E-03 0.  1.
        -12    1    3    3    0    0 -0.14924146654E+02 -0.22195971329E+02  0.18746843113E+02  0.32662446683E+02  0.00000000000E+00 0.  1.
</event>
<event>
 7    1  0.3509180E-013  0.7246152E+02  0.7816164E-02  0.1226708E+00
        -11   -1    0    0    0    0  0.00000000000E+00  0.00000000000E+00  0.45593999997E+02  0.45594000000E+02  0.51100000000E-03 0.  1.
         11   -1    0    0    0    0 -0.00000000000E+00 -0.00000000000E+00 -0.45593999997E+02  0.45594000000E+02  0.51100000000E-03 0. -1.
    9900012    2    1    2    0    0 -0.35118454715E+01 -0.10048982753E+01 -0.18366763394E+02  0.72461524711E+02  0.69999940619E+02 0.  0.
        -12    1    1    2    0    0  0.35118454715E+01  0.10048982753E+01  0.18366763394E+02  0.18726475289E+02  0.00000000000E+00 0.  1.
         11    1    3    3    0    0  0.11402929070E+02 -0.79255793899E+01  0.55849777252E+01  0.14967751217E+02  0.51100000000E-03 0. -1.
        -11    1    3    3    0    0  0.74054602829E+01  0.29469159817E+01  0.12347441286E+02  0.14696409846E+02  0.51100000000E-03 0.  1.
        -12    1    3    3    0    0 -0.22320234824E+02  0.39737651329E+01 -0.36299182405E+02  0.42797363648E+02  0.00000000000E+00 0.  1.
</event>
<event>
 7    1  0.3509180E-013  0.7246156E+02  0.7816164E-02  0.1226708E+00
        -11   -1    0    0    0    0  0.00000000000E+00  0.00000000000E+00  0.45593999997E+02  0.45594000000E+02  0.51100000000E-03 0.  1.
         11   -1    0    0    0    0 -0.00000000000E+00 -0.00000000000E+00 -0.45593999997E+02  0.45594000000E+02  0.51100000000E-03 0. -1.
    9900012    2    1    2    0    0 -0.86488833474E+01 -0.91276947848E+01 -0.13876657064E+02  0.72461558626E+02  0.69999984800E+02 0.  0.
        -12    1    1    2    0    0  0.86488833474E+01  0.91276947848E+01  0.13876657064E+02  0.18726441374E+02  0.00000000000E+00 0.  1.
         11    1    3    3    0    0 -0.15299823355E+02  0.91042891644E+01  0.25883045516E+01  0.17990886487E+02  0.51100000000E-03 0. -1.
        -11    1    3    3    0    0  0.21752879652E+02 -0.59253063476E+01  0.73401319239E+01  0.23710220695E+02  0.51100000000E-03 0.  1.
         12    1    3    3    0    0 -0.15101939645E+02 -0.12306677602E+02 -0.23805093540E+02  0.30760451444E+02  0.00000000000E+00 0. -1.
</event>
<event>
 7    1  0.3509180E-013  0.7246154E+02  0.7816164E-02  0.1226708E+00
        -11   -1    0    0    0    0  0.00000000000E+00  0.00000000000E+00  0.45593999997E+02  0.45594000000E+02  0.51100000000E-03 0.  1.
         11   -1    0    0    0    0 -0.00000000000E+00 -0.00000000000E+00 -0.45593999997E+02  0.45594000000E+02  0.51100000000E-03 0. -1.
    9900012    2    1    2    0    0 -0.24541421048E+01 -0.14580260403E+02 -0.11492317646E+02  0.72461543534E+02  0.69999965140E+02 0.  0.
        -12    1    1    2    0    0  0.24541421048E+01  0.14580260403E+02  0.11492317646E+02  0.18726456466E+02  0.00000000000E+00 0.  1.
         11    1    3    3    0    0  0.93640464777E+01 -0.14952414869E+02 -0.42981503110E+01  0.18158584009E+02  0.51100000000E-03 0. -1.
        -11    1    3    3    0    0  0.18088097901E+02 -0.88057405446E+01 -0.10765237451E+02  0.22816894833E+02  0.51100000000E-03 0.  1.
        -12    1    3    3    0    0 -0.29906286483E+02  0.91778950109E+01  0.35710701158E+01  0.31486064692E+02  0.00000000000E+00 0.  1.
</event>
<event>
 7    1  0.3509180E-013  0.7246159E+02  0.7816164E-02  0.1226708E+00
        -11   -1    0    0    0    0  0.00000000000E+00  0.00000000000E+00  0.45593999997E+02  0.45594000000E+02  0.51100000000E-03 0.  1.
         11   -1    0    0    0    0 -0.00000000000E+00 -0.00000000000E+00 -0.45593999997E+02  0.45594000000E+02  0.51100000000E-03 0. -1.
    9900012    2    1    2    0    0  0.17484249267E+02 -0.19639848179E+01 -0.64126728731E+01  0.72461585977E+02  0.70000020430E+02 0.  0.
        -12    1    1    2    0    0 -0.17484249267E+02  0.19639848179E+01  0.64126728731E+01  0.18726414023E+02  0.00000000000E+00 0.  1.
         11    1    3    3    0    0 -0.16288859759E+01  0.15547045781E+02  0.58658532970E+01  0.16696470801E+02  0.51100000000E-03 0. -1.
        -11    1    3    3    0    0  0.33380649274E+01 -0.14191037124E+02  0.16967660058E+02  0.22370286100E+02  0.51100000000E-03 0.  1.
         12    1    3    3    0    0  0.15775070315E+02 -0.33199934747E+01 -0.29246186228E+02  0.33394829076E+02  0.00000000000E+00 0. -1.
</event>
<event>
 7    1  0.3509180E-013  0.7246157E+02  0.7816164E-02  0.1226708E+00
        -11   -1    0    0    0    0  0.00000000000E+00  0.00000000000E+00  0.45593999997E+02  0.45594000000E+02  0.51100000000E-03 0.  1.
         11   -1    0    0    0    0 -0.00000000000E+00 -0.00000000000E+00 -0.45593999997E+02  0.45594000000E+02  0.51100000000E-03 0. -1.
    9900012    2    1    2    0    0  0.89197030033E+01  0.15768931211E+02 -0.47390795627E+01  0.72461570326E+02  0.70000000042E+02 0.  0.
        -12    1    1    2    0    0 -0.89197030033E+01 -0.15768931211E+02  0.47390795627E+01  0.18726429674E+02  0.00000000000E+00 0.  1.
         11    1    3    3    0    0  0.86370042725E+01 -0.16101013407E+02 -0.12075737200E+02  0.21901230667E+02  0.51100000000E-03 0. -1.
        -11    1    3    3    0    0 -0.49940650268E+01 -0.37026177702E+01 -0.90995188193E+01  0.11020494855E+02  0.51100000000E-03 0.  1.
        -12    1    3    3    0    0  0.52767637576E+01  0.35572562389E+02  0.16436176456E+02  0.39539844805E+02  0.00000000000E+00 0.  1.
</event>
<event>
 7    1  0.3509180E-013  0.7246158E+02  0.7816164E-02  0.1226708E+00
        -11   -1    0    0    0    0  0.00000000000E+00  0.00000000000E+00  0.45593999997E+02  0.45594000000E+02  0.51100000000E-03 0. -1.
         11   -1    0    0    0    0 -0.00000000000E+00 -0.00000000000E+00 -0.45593999997E+02  0.45594000000E+02  0.51100000000E-03 0.  1.
    9900012    2    1    2    0    0 -0.86945613946E+01  0.47186875955E+01  0.15900234034E+02  0.72461578751E+02  0.70000011016E+02 0.  0.
        -12    1    1    2    0    0  0.86945613946E+01 -0.47186875955E+01 -0.15900234034E+02  0.18726421249E+02  0.00000000000E+00 0.  1.
         11    1    3    3    0    0  0.27395829871E+01  0.63538857375E+01 -0.35856492999E+01  0.77932060201E+01  0.51100000000E-03 0. -1.
        -11    1    3    3    0    0  0.22654632263E+02 -0.12486326690E+02  0.73483196532E+01  0.26891234988E+02  0.51100000000E-03 0.  1.
         12    1    3    3    0    0 -0.34088776645E+02  0.10851128548E+02  0.12137563681E+02  0.37777137743E+02  0.00000000000E+00 0. -1.
</event>
<event>
 7    1  0.3509180E-013  0.7246159E+02  0.7816164E-02  0.1226708E+00
        -11   -1    0    0    0    0  0.00000000000E+00  0.00000000000E+00  0.45593999997E+02  0.45594000000E+02  0.51100000000E-03 0. -1.
         11   -1    0    0    0    0 -0.00000000000E+00 -0.00000000000E+00 -0.45593999997E+02  0.45594000000E+02  0.51100000000E-03 0.  1.
    9900012    2    1    2    0    0 -0.45545039134E+01 -0.10191426991E+02  0.15035618721E+02  0.72461587628E+02  0.70000022580E+02 0.  0.
        -12    1    1    2    0    0  0.45545039134E+01  0.10191426991E+02 -0.15035618721E+02  0.18726412372E+02  0.00000000000E+00 0.  1.
         11    1    3    3    0    0 -0.22427233066E+01 -0.28427255200E+02  0.16778316397E+02  0.33085503584E+02  0.51100000000E-03 0. -1.
        -11    1    3    3    0    0 -0.10017054193E+02 -0.71184459940E+01 -0.36187519191E+01  0.12810504041E+02  0.51100000000E-03 0.  1.
         12    1    3    3    0    0  0.77052735862E+01  0.25354274203E+02  0.18760542433E+01  0.26565580003E+02  0.00000000000E+00 0. -1.
</event>
<event>
 7    1  0.3509180E-013  0.7246159E+02  0.7816164E-02  0.1226708E+00
        -11   -1    0    0    0    0  0.00000000000E+00  0.00000000000E+00  0.45593999997E+02  0.45594000000E+02  0.51100000000E-03 0.  1.
         11   -1    0    0    0    0 -0.00000000000E+00 -0.00000000000E+00 -0.45593999997E+02  0.45594000000E+02  0.51100000000E-03 0. -1.
    9900012    2    1    2    0    0 -0.44294122310E+01  0.18153141010E+02 -0.12338006923E+01  0.72461588561E+02  0.70000023796E+02 0.  0.
        -12    1    1    2    0    0  0.44294122310E+01 -0.18153141010E+02  0.12338006923E+01  0.18726411439E+02  0.00000000000E+00 0.  1.
         11    1    3    3    0    0 -0.19343710369E+01  0.97950483158E+01 -0.21902098770E+02  0.24070452708E+02  0.51100000000E-03 0. -1.
        -11    1    3    3    0    0 -0.11294096565E+02  0.54293819247E+01 -0.10201315798E+02  0.16158640091E+02  0.51100000000E-03 0.  1.
        -12    1    3    3    0    0  0.87990553711E+01  0.29287107691E+01  0.30869613876E+02  0.32232495762E+02  0.00000000000E+00 0.  1.
</event>
<event>
 7    1  0.3509180E-013  0.7246164E+02  0.7816164E-02  0.1226708E+00
        -11   -1    0    0    0    0  0.00000000000E+00  0.00000000000E+00  0.45593999997E+02  0.45594000000E+02  0.51100000000E-03 0.  1.
         11   -1    0    0    0    0 -0.00000000000E+00 -0.00000000000E+00 -0.45593999997E+02  0.45594000000E+02  0.51100000000E-03 0. -1.
    9900012    2    1    2    0    0 -0.12627013532E+02 -0.79260078123E+01  0.11331972269E+02  0.72461637137E+02  0.70000087075E+02 0.  0.
        -12    1    1    2    0    0  0.12627013532E+02  0.79260078123E+01 -0.11331972269E+02  0.18726362863E+02  0.00000000000E+00 0.  1.
         11    1    3    3    0    0  0.42444815742E+01  0.42335778697E+01 -0.24507921213E+02  0.25230477757E+02  0.51100000000E-03 0. -1.
        -11    1    3    3    0    0 -0.56954760292E+01  0.58521437623E+01  0.42975837275E+01  0.92279607699E+01  0.51100000000E-03 0.  1.
        -12    1    3    3    0    0 -0.11176019077E+02 -0.18011729444E+02  0.31542309754E+02  0.38003198610E+02  0.00000000000E+00 0.  1.
</event>
<event>
 7    1  0.3509180E-013  0.7246154E+02  0.7816164E-02  0.1226708E+00
        -11   -1    0    0    0    0  0.00000000000E+00  0.00000000000E+00  0.45593999997E+02  0.45594000000E+02  0.51100000000E-03 0.  1.
         11   -1    0    0    0    0 -0.00000000000E+00 -0.00000000000E+00 -0.45593999997E+02  0.45594000000E+02  0.51100000000E-03 0. -1.
    9900012    2    1    2    0    0  0.53188951982E+01  0.14969330486E+02 -0.99150768331E+01  0.72461541447E+02  0.69999962421E+02 0.  0.
        -12    1    1    2    0    0 -0.53188951982E+01 -0.14969330486E+02  0.99150768331E+01  0.18726458553E+02  0.00000000000E+00 0.  1.
         11    1    3    3    0    0  0.16056455112E+02 -0.16883726823E+02 -0.11935352300E+02  0.26178667212E+02  0.51100000000E-03 0. -1.
        -11    1    3    3    0    0 -0.51025187011E+01 -0.49279074502E+01  0.54063580591E+01  0.89190064838E+01  0.51100000000E-03 0.  1.
        -12    1    3    3    0    0 -0.56350412124E+01  0.36780964759E+02 -0.33860825919E+01  0.37363867752E+02  0.00000000000E+00 0.  1.
</event>
<event>
 7    1  0.3509180E-013  0.7246144E+02  0.7816164E-02  0.1226708E+00
        -11   -1    0    0    0    0  0.00000000000E+00  0.00000000000E+00  0.45593999997E+02  0.45594000000E+02  0.51100000000E-03 0.  1.
         11   -1    0    0    0    0 -0.00000000000E+00 -0.00000000000E+00 -0.45593999997E+02  0.45594000000E+02  0.51100000000E-03 0. -1.
    9900012    2    1    2    0    0 -0.13383006653E+02 -0.12460922927E+02  0.40378918990E+01  0.72461440298E+02  0.69999830656E+02 0.  0.
        -12    1    1    2    0    0  0.13383006653E+02  0.12460922927E+02 -0.40378918990E+01  0.18726559702E+02  0.00000000000E+00 0.  1.
         11    1    3    3    0    0 -0.23504991216E+01 -0.16801183607E+02 -0.17730911520E+02  0.24539556644E+02  0.51100000000E-03 0. -1.
        -11    1    3    3    0    0 -0.11150466426E+02 -0.17439137949E+02  0.82187644233E+01  0.22271158992E+02  0.51100000000E-03 0.  1.
        -12    1    3    3    0    0  0.11795889457E+00  0.21779398629E+02  0.13550038995E+02  0.25650724662E+02  0.00000000000E+00 0.  1.
</event>
<event>
 7    1  0.3509180E-013  0.7246163E+02  0.7816164E-02  0.1226708E+00
        -11   -1    0    0    0    0  0.00000000000E+00  0.00000000000E+00  0.45593999997E+02  0.45594000000E+02  0.51100000000E-03 0. -1.
         11   -1    0    0    0    0 -0.00000000000E+00 -0.00000000000E+00 -0.45593999997E+02  0.45594000000E+02  0.51100000000E-03 0.  1.
    9900012    2    1    2    0    0 -0.30467722519E+01  0.58653727743E+01 -0.17521178611E+02  0.72461625048E+02  0.70000071327E+02 0.  0.
        -12    1    1    2    0    0  0.30467722519E+01 -0.58653727743E+01  0.17521178611E+02  0.18726374952E+02  0.00000000000E+00 0.  1.
         11    1    3    3    0    0  0.15515632736E+02  0.17256020582E+01 -0.16356797830E+02  0.22611001685E+02  0.51100000000E-03 0. -1.
        -11    1    3    3    0    0 -0.34084810573E+02  0.22418471680E+01  0.13504797627E+00  0.34158724050E+02  0.51100000000E-03 0.  1.
         12    1    3    3    0    0  0.15522405585E+02  0.18979235482E+01 -0.12994287565E+01  0.15691899312E+02  0.00000000000E+00 0. -1.
</event>
<event>
 7    1  0.3509180E-013  0.7246157E+02  0.7816164E-02  0.1226708E+00
        -11   -1    0    0    0    0  0.00000000000E+00  0.00000000000E+00  0.45593999997E+02  0.45594000000E+02  0.51100000000E-03 0.  1.
         11   -1    0    0    0    0 -0.00000000000E+00 -0.00000000000E+00 -0.45593999997E+02  0.45594000000E+02  0.51100000000E-03 0. -1.
    9900012    2    1    2    0    0  0.11167041163E+02 -0.65216165373E+01 -0.13544180744E+02  0.72461571546E+02  0.70000001631E+02 0.  0.
        -12    1    1    2    0    0 -0.11167041163E+02  0.65216165373E+01  0.13544180744E+02  0.18726428454E+02  0.00000000000E+00 0.  1.
         11    1    3    3    0    0  0.67593667647E+01 -0.10785516342E+02 -0.12759853499E+02  0.18023048116E+02  0.51100000000E-03 0. -1.
        -11    1    3    3    0    0  0.90663527261E+01 -0.12256154025E+02  0.21471189478E+02  0.26332945925E+02  0.51100000000E-03 0.  1.
         12    1    3    3    0    0 -0.46586783278E+01  0.16520053829E+02 -0.22255516724E+02  0.28105577505E+02  0.00000000000E+00 0. -1.
</event>
<event>
 7    1  0.3509180E-013  0.7246161E+02  0.7816164E-02  0.1226708E+00
        -11   -1    0    0    0    0  0.00000000000E+00  0.00000000000E+00  0.45593999997E+02  0.45594000000E+02  0.51100000000E-03 0.  1.
         11   -1    0    0    0    0 -0.00000000000E+00 -0.00000000000E+00 -0.45593999997E+02  0.45594000000E+02  0.51100000000E-03 0. -1.
    9900012    2    1    2    0    0  0.20859525260E+00 -0.12982468328E+02 -0.13494057156E+02  0.72461612885E+02  0.70000055482E+02 0.  0.
        -12    1    1    2    0    0 -0.20859525260E+00  0.12982468328E+02  0.13494057156E+02  0.18726387115E+02  0.00000000000E+00 0.  1.
         11    1    3    3    0    0 -0.26799954732E+02 -0.12794197026E+02 -0.16130939617E+02  0.33795506570E+02  0.51100000000E-03 0. -1.
        -11    1    3    3    0    0 -0.53930067094E+01 -0.11114424088E+01  0.29564333779E+01  0.62498259315E+01  0.51100000000E-03 0.  1.
        -12    1    3    3    0    0  0.32401556694E+02  0.92317110600E+00 -0.31955091632E+00  0.32416280383E+02  0.00000000000E+00 0.  1.
</event>
<event>
 7    1  0.3509180E-013  0.7246155E+02  0.7816164E-02  0.1226708E+00
        -11   -1    0    0    0    0  0.00000000000E+00  0.00000000000E+00  0.45593999997E+02  0.45594000000E+02  0.51100000000E-03 0.  1.
         11   -1    0    0    0    0 -0.00000000000E+00 -0.00000000000E+00 -0.45593999997E+02  0.45594000000E+02  0.51100000000E-03 0. -1.
    9900012    2    1    2    0    0  0.57287938698E+01  0.13192972167E+02 -0.11991923337E+02  0.72461552950E+02  0.69999977406E+02 0.  0.
        -12    1    1    2    0    0 -0.57287938698E+01 -0.13192972167E+02  0.11991923337E+02  0.18726447050E+02  0.00000000000E+00 0.  1.
         11    1    3    3    0    0  0.84958172948E+00 -0.17405141888E+02  0.83396480795E+00  0.17445808975E+02  0.51100000000E-03 0. -1.
        -11    1    3    3    0    0  0.49863095430E+01  0.29399717992E+01  0.14819630866E+02  0.15910002398E+02  0.51100000000E-03 0.  1.
         12    1    3    3    0    0 -0.10709740271E+00  0.27658142255E+02 -0.27645519011E+02  0.39105741577E+02  0.00000000000E+00 0. -1.
</event>
<event>
 7    1  0.3509180E-013  0.7246155E+02  0.7816164E-02  0.1226708E+00
        -11   -1    0    0    0    0  0.00000000000E+00  0.00000000000E+00  0.45593999997E+02  0.45594000000E+02  0.51100000000E-03 0.  1.
         11   -1    0    0    0    0 -0.00000000000E+00 -0.00000000000E+00 -0.45593999997E+02  0.45594000000E+02  0.51100000000E-03 0. -1.
    9900012    2    1    2    0    0 -0.61727240230E+01 -0.58563375397E+01  0.16681742921E+02  0.72461554578E+02  0.69999979527E+02 0.  0.
        -12    1    1    2    0    0  0.61727240230E+01  0.58563375397E+01 -0.16681742921E+02  0.18726445422E+02  0.00000000000E+00 0.  1.
         11    1    3    3    0    0 -0.91260260283E+01 -0.53557642925E+01  0.48221792502E+01  0.11628498407E+02  0.51100000000E-03 0. -1.
        -11    1    3    3    0    0 -0.94095292238E+01 -0.12558121127E+02 -0.19501856892E+02  0.25031341733E+02  0.51100000000E-03 0.  1.
        -12    1    3    3    0    0  0.12362831229E+02  0.12057547880E+02  0.31361420564E+02  0.35801714437E+02  0.00000000000E+00 0.  1.
</event>
<event>
 7    1  0.3509180E-013  0.7246158E+02  0.7816164E-02  0.1226708E+00
        -11   -1    0    0    0    0  0.00000000000E+00  0.00000000000E+00  0.45593999997E+02  0.45594000000E+02  0.51100000000E-03 0.  1.
         11   -1    0    0    0    0 -0.00000000000E+00 -0.00000000000E+00 -0.45593999997E+02  0.45594000000E+02  0.51100000000E-03 0. -1.
    9900012    2    1    2    0    0 -0.14293664203E+02 -0.88118781379E+01 -0.82897920212E+01  0.72461583247E+02  0.70000016873E+02 0.  0.
        -12    1    1    2    0    0  0.14293664203E+02  0.88118781379E+01  0.82897920212E+01  0.18726416753E+02  0.00000000000E+00 0.  1.
         11    1    3    3    0    0 -0.59887274647E+01  0.14163683894E+02  0.55827849499E+01  0.16359776470E+02  0.51100000000E-03 0. -1.
        -11    1    3    3    0    0 -0.62924118558E+01  0.13907927135E+02  0.28927426747E+01  0.15536822217E+02  0.51100000000E-03 0.  1.
         12    1    3    3    0    0 -0.20125248824E+01 -0.36883489167E+02 -0.16765319646E+02  0.40564984560E+02  0.00000000000E+00 0. -1.
</event>
<event>
 7    1  0.3509180E-013  0.7246156E+02  0.7816164E-02  0.1226708E+00
        -11   -1    0    0    0    0  0.00000000000E+00  0.00000000000E+00  0.45593999997E+02  0.45594000000E+02  0.51100000000E-03 0.  1.
         11   -1    0    0    0    0 -0.00000000000E+00 -0.00000000000E+00 -0.45593999997E+02  0.45594000000E+02  0.51100000000E-03 0. -1.
    9900012    2    1    2    0    0 -0.82606222438E+01 -0.13675154326E+02 -0.97689174442E+01  0.72461562172E+02  0.69999989419E+02 0.  0.
        -12    1    1    2    0    0  0.82606222438E+01  0.13675154326E+02  0.97689174442E+01  0.18726437828E+02  0.00000000000E+00 0.  1.
         11    1    3    3    0    0  0.19187665637E+02 -0.94582000759E+01  0.10634096818E+02  0.23889497204E+02  0.51100000000E-03 0. -1.
        -11    1    3    3    0    0 -0.11552794444E+02 -0.15166889544E+02  0.18017406142E+01  0.19150662323E+02  0.51100000000E-03 0.  1.
         12    1    3    3    0    0 -0.15895493436E+02  0.10949935294E+02 -0.22204754876E+02  0.29421402646E+02  0.00000000000E+00 0. -1.
</event>
<event>
 7    1  0.3509180E-013  0.7246156E+02  0.7816164E-02  0.1226708E+00
        -11   -1    0    0    0    0  0.00000000000E+00  0.00000000000E+00  0.45593999997E+02  0.45594000000E+02  0.51100000000E-03 0.  1.
         11   -1    0    0    0    0 -0.00000000000E+00 -0.00000000000E+00 -0.45593999997E+02  0.45594000000E+02  0.51100000000E-03 0. -1.
    9900012    2    1    2    0    0 -0.11516157745E+01 -0.42066463074E+01 -0.18211464257E+02  0.72461560872E+02  0.69999987725E+02 0.  0.
        -12    1    1    2    0    0  0.11516157745E+01  0.42066463074E+01  0.18211464257E+02  0.18726439128E+02  0.00000000000E+00 0.  1.
         11    1    3    3    0    0 -0.67763205324E+00 -0.73545462182E+01 -0.10157429387E+02  0.12558738284E+02  0.51100000000E-03 0. -1.
        -11    1    3    3    0    0 -0.10273613902E+02  0.90507892470E+01  0.23023206643E+02  0.26786787284E+02  0.51100000000E-03 0.  1.
         12    1    3    3    0    0  0.97996301809E+01 -0.59028893363E+01 -0.31077241513E+02  0.33116035304E+02  0.00000000000E+00 0. -1.
</event>
<event>
 7    1  0.3754110E-013  0.7246142E+02  0.7816164E-02  0.1226708E+00
        -11   -1    0    0    0    0  0.00000000000E+00  0.00000000000E+00  0.45593999997E+02  0.45594000000E+02  0.51100000000E-03 0. -1.
         11   -1    0    0    0    0 -0.00000000000E+00 -0.00000000000E+00 -0.45593999997E+02  0.45594000000E+02  0.51100000000E-03 0.  1.
    9900012    2    1    2    0    0  0.47618886313E+01 -0.72437316522E+01  0.16599320502E+02  0.72461423358E+02  0.69999808588E+02 0.  0.
        -12    1    1    2    0    0 -0.47618886313E+01  0.72437316522E+01 -0.16599320502E+02  0.18726576642E+02  0.00000000000E+00 0.  1.
         11    1    3    3    0    0  0.14310270437E+02 -0.12180215049E+02  0.24752226863E+02  0.31077551602E+02  0.51100000000E-03 0. -1.
        -11    1    3    3    0    0 -0.12171852372E+02  0.10604599621E+01  0.14092475740E+02  0.18651446010E+02  0.51100000000E-03 0.  1.
        -12    1    3    3    0    0  0.26234705666E+01  0.38760234341E+01 -0.22245382102E+02  0.22732425747E+02  0.00000000000E+00 0.  1.
</event>
<event>
 7    1  0.3509180E-013  0.7246152E+02  0.7816164E-02  0.1226708E+00
        -11   -1    0    0    0    0  0.00000000000E+00  0.00000000000E+00  0.45593999997E+02  0.45594000000E+02  0.51100000000E-03 0.  1.
         11   -1    0    0    0    0 -0.00000000000E+00 -0.00000000000E+00 -0.45593999997E+02  0.45594000000E+02  0.51100000000E-03 0. -1.
    9900012    2    1    2    0    0  0.79831561751E+01 -0.11966736154E+02 -0.11989475589E+02  0.72461519242E+02  0.69999933494E+02 0.  0.
        -12    1    1    2    0    0 -0.79831561751E+01  0.11966736154E+02  0.11989475589E+02  0.18726480758E+02  0.00000000000E+00 0.  1.
         11    1    3    3    0    0  0.28965311325E+01 -0.21708614210E+02 -0.40415539124E+01  0.22270787633E+02  0.51100000000E-03 0. -1.
        -11    1    3    3    0    0 -0.18703387914E+02  0.37232876849E+01 -0.15435458185E+02  0.24534322088E+02  0.51100000000E-03 0.  1.
         12    1    3    3    0    0  0.23790012957E+02  0.60185903708E+01  0.74875365085E+01  0.25656409521E+02  0.00000000000E+00 0. -1.
</event>
<event>
 7    1  0.3509180E-013  0.7246129E+02  0.7816164E-02  0.1226709E+00
        -11   -1    0    0    0    0  0.00000000000E+00  0.00000000000E+00  0.45593999997E+02  0.45594000000E+02  0.51100000000E-03 0. -1.
         11   -1    0    0    0    0 -0.00000000000E+00 -0.00000000000E+00 -0.45593999997E+02  0.45594000000E+02  0.51100000000E-03 0.  1.
    9900012    2    1    2    0    0 -0.61048430673E+01 -0.17630316107E+02  0.16101605013E+01  0.72461287215E+02  0.69999631236E+02 0.  0.
        -12    1    1    2    0    0  0.61048430673E+01  0.17630316107E+02 -0.16101605013E+01  0.18726712785E+02  0.00000000000E+00 0.  1.
         11    1    3    3    0    0  0.82328301116E+01  0.77948663413E+01  0.16599899112E+02  0.20102141272E+02  0.51100000000E-03 0. -1.
        -11    1    3    3    0    0  0.36302286683E+00  0.91482772152E+01  0.43139655029E+01  0.10120921906E+02  0.51100000000E-03 0.  1.
        -12    1    3    3    0    0 -0.14700696046E+02 -0.34573459663E+02 -0.19303704114E+02  0.42238224037E+02  0.00000000000E+00 0.  1.
</event>
<event>
 7    1  0.3509180E-013  0.7246163E+02  0.7816164E-02  0.1226708E+00
        -11   -1    0    0    0    0  0.00000000000E+00  0.00000000000E+00  0.45593999997E+02  0.45594000000E+02  0.51100000000E-03 0. -1.
         11   -1    0    0    0    0 -0.00000000000E+00 -0.00000000000E+00 -0.45593999997E+02  0.45594000000E+02  0.51100000000E-03 0.  1.
    9900012    2    1    2    0    0  0.27709165236E+01 -0.13380196880E+02  0.12805042173E+02  0.72461634843E+02  0.70000084087E+02 0.  0.
        -12    1    1    2    0    0 -0.27709165236E+01  0.13380196880E+02 -0.12805042173E+02  0.18726365157E+02  0.00000000000E+00 0.  1.
         11    1    3    3    0    0 -0.16771864325E+02  0.29573258656E+00 -0.65754137603E+01  0.18017185049E+02  0.51100000000E-03 0. -1.
        -11    1    3    3    0    0 -0.11940903240E+02 -0.13215707565E+02  0.68287094169E+00  0.17824320733E+02  0.51100000000E-03 0.  1.
         12    1    3    3    0    0  0.31483684088E+02 -0.46022190216E+00  0.18697584991E+02  0.36620129061E+02  0.00000000000E+00 0. -1.
</event>
<event>
 7    1  0.3509180E-013  0.7246159E+02  0.7816164E-02  0.1226708E+00
        -11   -1    0    0    0    0  0.00000000000E+00  0.00000000000E+00  0.45593999997E+02  0.45594000000E+02  0.51100000000E-03 0.  1.
         11   -1    0    0    0    0 -0.00000000000E+00 -0.00000000000E+00 -0.45593999997E+02  0.45594000000E+02  0.51100000000E-03 0. -1.
    9900012    2    1    2    0    0 -0.11670715934E+02  0.16905687827E+01 -0.14546984423E+02  0.72461591134E+02  0.70000027147E+02 0.  0.
        -12    1    1    2    0    0  0.11670715934E+02 -0.16905687827E+01  0.14546984423E+02  0.18726408866E+02  0.00000000000E+00 0.  1.
         11    1    3    3    0    0  0.12307439473E+02 -0.50408012600E+01  0.70126434545E+00  0.13318202419E+02  0.51100000000E-03 0. -1.
        -11    1    3    3    0    0  0.18299764518E+01 -0.19943101638E+02 -0.51607394492E+01  0.20681135092E+02  0.51100000000E-03 0.  1.
        -12    1    3    3    0    0 -0.25808131859E+02  0.26674471681E+02 -0.10087509319E+02  0.38462253623E+02  0.00000000000E+00 0.  1.
</event>
<event>
 7    1  0.3509180E-013  0.7246152E+02  0.7816164E-02  0.1226708E+00
        -11   -1    0    0    0    0  0.00000000000E+00  0.00000000000E+00  0.45593999997E+02  0.45594000000E+02  0.51100000000E-03 0. -1.
         11   -1    0    0    0    0 -0.00000000000E+00 -0.00000000000E+00 -0.45593999997E+02  0.45594000000E+02  0.51100000000E-03 0.  1.
    9900012    2    1    2    0    0 -0.15860727760E+02 -0.43566676538E+01  0.89519655831E+01  0.72461523398E+02  0.69999938909E+02 0.  0.
        -12    1    1    2    0    0  0.15860727760E+02  0.43566676538E+01 -0.89519655831E+01  0.18726476602E+02  0.00000000000E+00 0.  1.
         11    1    3    3    0    0  0.23299850403E+02 -0.41364693797E+01  0.14704732353E+02  0.27860771015E+02  0.51100000000E-03 0. -1.
        -11    1    3    3    0    0 -0.56973751745E+00 -0.32156127711E+01  0.35169364937E+01  0.47993342137E+01  0.51100000000E-03 0.  1.
        -12    1    3    3    0    0 -0.38590840645E+02  0.29954144971E+01 -0.92697032635E+01  0.39801418170E+02  0.00000000000E+00 0.  1.
</event>
<event>
 7    1  0.3509180E-013  0.7246152E+02  0.7816164E-02  0.1226708E+00
        -11   -1    0    0    0    0  0.00000000000E+00  0.00000000000E+00  0.45593999997E+02  0.45594000000E+02  0.51100000000E-03 0. -1.
         11   -1    0    0    0    0 -0.00000000000E+00 -0.00000000000E+00 -0.45593999997E+02  0.45594000000E+02  0.51100000000E-03 0.  1.
    9900012    2    1    2    0    0 -0.18152705568E+02 -0.38545514376E+01 -0.25105636592E+01  0.72461515650E+02  0.69999928815E+02 0.  0.
        -12    1    1    2    0    0  0.18152705568E+02  0.38545514376E+01  0.25105636592E+01  0.18726484350E+02  0.00000000000E+00 0.  1.
         11    1    3    3    0    0 -0.97714827758E+01  0.29721832175E+01  0.13077675941E+02  0.16593413061E+02  0.51100000000E-03 0. -1.
        -11    1    3    3    0    0 -0.17626374896E+02  0.18585275094E+02 -0.12939306775E+02  0.28697163665E+02  0.51100000000E-03 0.  1.
         12    1    3    3    0    0  0.92451521041E+01 -0.25412009749E+02 -0.26489328252E+01  0.27170938924E+02  0.00000000000E+00 0. -1.
</event>
<event>
 7    1  0.3509180E-013  0.7246151E+02  0.7816164E-02  0.1226708E+00
        -11   -1    0    0    0    0  0.00000000000E+00  0.00000000000E+00  0.45593999997E+02  0.45594000000E+02  0.51100000000E-03 0.  1.
         11   -1    0    0    0    0 -0.00000000000E+00 -0.00000000000E+00 -0.45593999997E+02  0.45594000000E+02  0.51100000000E-03 0. -1.
    9900012    2    1    2    0    0 -0.17514722737E+02 -0.59887624769E+01 -0.28373598173E+01  0.72461510759E+02  0.69999922445E+02 0.  0.
        -12    1    1    2    0    0  0.17514722737E+02  0.59887624769E+01  0.28373598173E+01  0.18726489241E+02  0.00000000000E+00 0.  1.
         11    1    3    3    0    0 -0.14478056328E+01 -0.20629292220E+02 -0.17355890024E+02  0.26997976913E+02  0.51100000000E-03 0. -1.
        -11    1    3    3    0    0  0.98492705085E+01 -0.37443191274E+01  0.19873439642E-01  0.10537003867E+02  0.51100000000E-03 0.  1.
        -12    1    3    3    0    0 -0.25916187612E+02  0.18384848870E+02  0.14498656767E+02  0.34926529979E+02  0.00000000000E+00 0.  1.
</event>
<event>
 7    1  0.3509180E-013  0.7246160E+02  0.7816164E-02  0.1226708E+00
        -11   -1    0    0    0    0  0.00000000000E+00  0.00000000000E+00  0.45593999997E+02  0.45594000000E+02  0.51100000000E-03 0.  1.
         11   -1    0    0    0    0 -0.00000000000E+00 -0.00000000000E+00 -0.45593999997E+02  0.45594000000E+02  0.51100000000E-03 0. -1.
    9900012    2    1    2    0    0  0.24307126400E+01 -0.29856402655E+01 -0.18326365189E+02  0.72461599577E+02  0.70000038147E+02 0.  0.
        -12    1    1    2    0    0 -0.24307126400E+01  0.29856402655E+01  0.18326365189E+02  0.18726400423E+02  0.00000000000E+00 0.  1.
         11    1    3    3    0    0  0.27519061588E+02 -0.66170153161E+01  0.76570943500E+01  0.29320892492E+02  0.51100000000E-03 0. -1.
        -11    1    3    3    0    0 -0.79439993355E+00  0.93180015426E+01 -0.88353844185E+01  0.12865467037E+02  0.51100000000E-03 0.  1.
        -12    1    3    3    0    0 -0.24293949015E+02 -0.56866264920E+01 -0.17148075121E+02  0.30275240048E+02  0.00000000000E+00 0.  1.
</event>
<event>
 7    1  0.3509180E-013  0.7246167E+02  0.7816164E-02  0.1226708E+00
        -11   -1    0    0    0    0  0.00000000000E+00  0.00000000000E+00  0.45593999997E+02  0.45594000000E+02  0.51100000000E-03 0. -1.
         11   -1    0    0    0    0 -0.00000000000E+00 -0.00000000000E+00 -0.45593999997E+02  0.45594000000E+02  0.51100000000E-03 0.  1.
    9900012    2    1    2    0    0 -0.16467835891E+02  0.84661002923E+01  0.27947822861E+01  0.72461674116E+02  0.70000135247E+02 0.  0.
        -12    1    1    2    0    0  0.16467835891E+02 -0.84661002923E+01 -0.27947822861E+01  0.18726325884E+02  0.00000000000E+00 0.  1.
         11    1    3    3    0    0  0.97689477465E+01 -0.46007744392E+01  0.96763650090E+01  0.14499362247E+02  0.51100000000E-03 0. -1.
        -11    1    3    3    0    0  0.78928248872E+01 -0.10888823168E+02 -0.90469355547E+01  0.16208337295E+02  0.51100000000E-03 0.  1.
        -12    1    3    3    0    0 -0.34129608524E+02  0.23955697899E+02  0.21653528319E+01  0.41753974574E+02  0.00000000000E+00 0.  1.
</event>
<event>
 7    1  0.3509180E-013  0.7246150E+02  0.7816164E-02  0.1226708E+00
        -11   -1    0    0    0    0  0.00000000000E+00  0.00000000000E+00  0.45593999997E+02  0.45594000000E+02  0.51100000000E-03 0.  1.
         11   -1    0    0    0    0 -0.00000000000E+00 -0.00000000000E+00 -0.45593999997E+02  0.45594000000E+02  0.51100000000E-03 0. -1.
    9900012    2    1    2    0    0 -0.40576453470E+01  0.51711828889E+01 -0.17535000646E+02  0.72461498301E+02  0.69999906215E+02 0.  0.
        -12    1    1    2    0    0  0.40576453470E+01 -0.51711828889E+01  0.17535000646E+02  0.18726501699E+02  0.00000000000E+00 0.  1.
         11    1    3    3    0    0  0.30278042032E+01 -0.19531567769E+02 -0.58625983209E+01  0.20616008274E+02  0.51100000000E-03 0. -1.
        -11    1    3    3    0    0  0.17850679468E+02  0.49228528563E+01 -0.63464571186E+01  0.19574441395E+02  0.51100000000E-03 0.  1.
        -12    1    3    3    0    0 -0.24936129019E+02  0.19779897802E+02 -0.53259452062E+01  0.32271048632E+02  0.00000000000E+00 0.  1.
</event>
<event>
 7    1  0.3509180E-013  0.7246128E+02  0.7816164E-02  0.1226709E+00
        -11   -1    0    0    0    0  0.00000000000E+00  0.00000000000E+00  0.45593999997E+02  0.45594000000E+02  0.51100000000E-03 0.  1.
         11   -1    0    0    0    0 -0.00000000000E+00 -0.00000000000E+00 -0.45593999997E+02  0.45594000000E+02  0.51100000000E-03 0. -1.
    9900012    2    1    2    0    0 -0.13687054614E+02  0.32471334178E+01 -0.12361663614E+02  0.72461279338E+02  0.69999620974E+02 0.  0.
        -12    1    1    2    0    0  0.13687054614E+02 -0.32471334178E+01  0.12361663614E+02  0.18726720662E+02  0.00000000000E+00 0.  1.
         11    1    3    3    0    0 -0.19075092148E+02  0.23619851727E+02 -0.30791058697E+02  0.43241714027E+02  0.51100000000E-03 0. -1.
        -11    1    3    3    0    0 -0.47836237361E+00  0.56998260773E+00  0.14423568386E+01  0.16229923735E+01  0.51100000000E-03 0.  1.
        -12    1    3    3    0    0  0.58663999076E+01 -0.20942700917E+02  0.16987038244E+02  0.27596572937E+02  0.00000000000E+00 0.  1.
</event>
<event>
 7    1  0.3509180E-013  0.7246162E+02  0.7816164E-02  0.1226708E+00
        -11   -1    0    0    0    0  0.00000000000E+00  0.00000000000E+00  0.45593999997E+02  0.45594000000E+02  0.51100000000E-03 0. -1.
         11   -1    0    0    0    0 -0.00000000000E+00 -0.00000000000E+00 -0.45593999997E+02  0.45594000000E+02  0.51100000000E-03 0.  1.
    9900012    2    1    2    0    0 -0.44184698929E+01  0.17875449717E+02  0.34092206127E+01  0.72461618503E+02  0.70000062801E+02 0.  0.
        -12    1    1    2    0    0  0.44184698929E+01 -0.17875449717E+02 -0.34092206127E+01  0.18726381497E+02  0.00000000000E+00 0.  1.
         11    1    3    3    0    0 -0.28627146771E+01  0.62335338358E+01 -0.10837466901E+02  0.12825863265E+02  0.51100000000E-03 0. -1.
        -11    1    3    3    0    0  0.11660542874E+02 -0.22367418815E+01  0.31615484939E+02  0.33771440043E+02  0.51100000000E-03 0.  1.
         12    1    3    3    0    0 -0.13216298089E+02  0.13878657763E+02 -0.17368797426E+02  0.25864315195E+02  0.00000000000E+00 0. -1.
</event>
<event>
 7    1  0.3509180E-013  0.7246152E+02  0.7816164E-02  0.1226708E+00
        -11   -1    0    0    0    0  0.00000000000E+00  0.00000000000E+00  0.45593999997E+02  0.45594000000E+02  0.51100000000E-03 0.  1.
         11   -1    0    0    0    0 -0.00000000000E+00 -0.00000000000E+00 -0.45593999997E+02  0.45594000000E+02  0.51100000000E-03 0. -1.
    9900012    2    1    2    0    0 -0.28526210190E+01 -0.97847882023E+01 -0.15709914023E+02  0.72461523411E+02  0.69999938926E+02 0.  0.
        -12    1    1    2    0    0  0.28526210190E+01  0.97847882023E+01  0.15709914023E+02  0.18726476589E+02  0.00000000000E+00 0.  1.
         11    1    3    3    0    0  0.15485661980E+02 -0.88029584871E+00 -0.67685183420E+01  0.16923164260E+02  0.51100000000E-03 0. -1.
        -11    1    3    3    0    0  0.11133185539E+02  0.48512823985E+01 -0.18057427803E+02  0.21761283516E+02  0.51100000000E-03 0.  1.
         12    1    3    3    0    0 -0.29471468538E+02 -0.13755774752E+02  0.91160321223E+01  0.33777075635E+02  0.00000000000E+00 0. -1.
</event>
<event>
 7    1  0.3509180E-013  0.7246157E+02  0.7816164E-02  0.1226708E+00
        -11   -1    0    0    0    0  0.00000000000E+00  0.00000000000E+00  0.45593999997E+02  0.45594000000E+02  0.51100000000E-03 0.  1.
         11   -1    0    0    0    0 -0.00000000000E+00 -0.00000000000E+00 -0.45593999997E+02  0.45594000000E+02  0.51100000000E-03 0. -1.
    9900012    2    1    2    0    0  0.83487492782E+01  0.95946389694E+01  0.13744830509E+02  0.72461572760E+02  0.70000003212E+02 0.  0.
        -12    1    1    2    0    0 -0.83487492782E+01 -0.95946389694E+01 -0.13744830509E+02  0.18726427240E+02  0.00000000000E+00 0.  1.
         11    1    3    3    0    0 -0.53483712199E+01  0.12535422454E+02  0.20758386711E+02  0.24832488999E+02  0.51100000000E-03 0. -1.
        -11    1    3    3    0    0 -0.11264327500E+02  0.83522142640E+01  0.82471369411E+01  0.16268368853E+02  0.51100000000E-03 0.  1.
         12    1    3    3    0    0  0.24961447998E+02 -0.11292997748E+02 -0.15260693143E+02  0.31360714908E+02  0.00000000000E+00 0. -1.
</event>
<event>
 7    1  0.3509180E-013  0.7246156E+02  0.7816164E-02  0.1226708E+00
        -11   -1    0    0    0    0  0.00000000000E+00  0.00000000000E+00  0.45593999997E+02  0.45594000000E+02  0.51100000000E-03 0.  1.
         11   -1    0    0    0    0 -0.00000000000E+00 -0.00000000000E+00 -0.45593999997E+02  0.45594000000E+02  0.51100000000E-03 0. -1.
    9900012    2    1    2    0    0 -0.17149484148E+02  0.47896943389E+01 -0.57994570251E+01  0.72461556660E+02  0.69999982238E+02 0.  0.
        -12    1    1    2    0    0  0.17149484148E+02 -0.47896943389E+01  0.57994570251E+01  0.18726443340E+02  0.00000000000E+00 0.  1.
         11    1    3    3    0    0 -0.24961723144E+02  0.12707283514E+01 -0.96300461473E+01  0.26785073491E+02  0.51100000000E-03 0. -1.
        -11    1    3    3    0    0 -0.10392271528E+02  0.13736521587E+02  0.14240440118E+02  0.22349082036E+02  0.51100000000E-03 0.  1.
         12    1    3    3    0    0  0.18204510524E+02 -0.10217555600E+02 -0.10409850996E+02  0.23327401133E+02  0.00000000000E+00 0. -1.
</event>
<event>
 7    1  0.3509180E-013  0.7246155E+02  0.7816164E-02  0.1226708E+00
        -11   -1    0    0    0    0  0.00000000000E+00  0.00000000000E+00  0.45593999997E+02  0.45594000000E+02  0.51100000000E-03 0. -1.
         11   -1    0    0    0    0 -0.00000000000E+00 -0.00000000000E+00 -0.45593999997E+02  0.45594000000E+02  0.51100000000E-03 0.  1.
    9900012    2    1    2    0    0 -0.24265763333E+01  0.52603481961E+00  0.18561112747E+02  0.72461551011E+02  0.69999974880E+02 0.  0.
        -12    1    1    2    0    0  0.24265763333E+01 -0.52603481961E+00 -0.18561112747E+02  0.18726448989E+02  0.00000000000E+00 0.  1.
         11    1    3    3    0    0  0.11076386744E+02 -0.11220215321E+02  0.15073140448E+02  0.21812362054E+02  0.51100000000E-03 0. -1.
        -11    1    3    3    0    0  0.16492800002E+02 -0.26819118543E+01 -0.22912913787E+01  0.16865797329E+02  0.51100000000E-03 0.  1.
         12    1    3    3    0    0 -0.29995763079E+02  0.14428161995E+02  0.57792636774E+01  0.33783391628E+02  0.00000000000E+00 0. -1.
</event>
<event>
 7    1  0.3509180E-013  0.7246201E+02  0.7816164E-02  0.1226707E+00
        -11   -1    0    0    0    0  0.00000000000E+00  0.00000000000E+00  0.45593999997E+02  0.45594000000E+02  0.51100000000E-03 0.  1.
         11   -1    0    0    0    0 -0.00000000000E+00 -0.00000000000E+00 -0.45593999997E+02  0.45594000000E+02  0.51100000000E-03 0. -1.
    9900012    2    1    2    0    0 -0.12860066436E+02 -0.10846977926E+02 -0.82234206937E+01  0.72462005052E+02  0.70000566351E+02 0.  0.
        -12    1    1    2    0    0  0.12860066436E+02  0.10846977926E+02  0.82234206937E+01  0.18725994948E+02  0.00000000000E+00 0.  1.
         11    1    3    3    0    0  0.13650982789E+02  0.12544391692E+02  0.40762652286E+01  0.18982282068E+02  0.51100000000E-03 0.  1.
        -11    1    3    3    0    0 -0.11022376165E+02 -0.18170931910E+01  0.12763970390E+02  0.16962120868E+02  0.51100000000E-03 0. -1.
         12    1    3    3    0    0 -0.15488673061E+02 -0.21574276428E+02 -0.25063656312E+02  0.36517602116E+02  0.00000000000E+00 0. -1.
</event>
<event>
 7    1  0.3509180E-013  0.7246157E+02  0.7816164E-02  0.1226708E+00
        -11   -1    0    0    0    0  0.00000000000E+00  0.00000000000E+00  0.45593999997E+02  0.45594000000E+02  0.51100000000E-03 0. -1.
         11   -1    0    0    0    0 -0.00000000000E+00 -0.00000000000E+00 -0.45593999997E+02  0.45594000000E+02  0.51100000000E-03 0.  1.
    9900012    2    1    2    0    0 -0.99783692816E+01 -0.17237959340E+01  0.15752457484E+02  0.72461568340E+02  0.69999997454E+02 0.  0.
        -12    1    1    2    0    0  0.99783692816E+01  0.17237959340E+01 -0.15752457484E+02  0.18726431660E+02  0.00000000000E+00 0.  1.
         11    1    3    3    0    0 -0.44107911612E+00 -0.10984603757E+02  0.38957425795E+01  0.11663313466E+02  0.51100000000E-03 0. -1.
        -11    1    3    3    0    0  0.14653223831E+02 -0.17849557345E+02  0.21716475931E+01  0.23195683210E+02  0.51100000000E-03 0.  1.
         12    1    3    3    0    0 -0.24190513996E+02  0.27110365168E+02  0.96850673112E+01  0.37602571664E+02  0.00000000000E+00 0. -1.
</event>
<event>
 7    1  0.3509180E-013  0.7246152E+02  0.7816164E-02  0.1226708E+00
        -11   -1    0    0    0    0  0.00000000000E+00  0.00000000000E+00  0.45593999997E+02  0.45594000000E+02  0.51100000000E-03 0.  1.
         11   -1    0    0    0    0 -0.00000000000E+00 -0.00000000000E+00 -0.45593999997E+02  0.45594000000E+02  0.51100000000E-03 0. -1.
    9900012    2    1    2    0    0 -0.24573844521E+01 -0.96249058231E+01 -0.15874619025E+02  0.72461519294E+02  0.69999933562E+02 0.  0.
        -12    1    1    2    0    0  0.24573844521E+01  0.96249058231E+01  0.15874619025E+02  0.18726480706E+02  0.00000000000E+00 0.  1.
         11    1    3    3    0    0  0.10251959476E+02  0.25075698798E+02 -0.19084293826E+02  0.33137646483E+02  0.51100000000E-03 0. -1.
        -11    1    3    3    0    0  0.28408722595E+00  0.10795366355E+01 -0.55967372601E-01  0.11176929396E+01  0.51100000000E-03 0.  1.
        -12    1    3    3    0    0 -0.12993431154E+02 -0.35780141257E+02  0.32656421741E+01  0.38206179871E+02  0.00000000000E+00 0.  1.
</event>
<event>
 7    1  0.3509180E-013  0.7246195E+02  0.7816164E-02  0.1226707E+00
        -11   -1    0    0    0    0  0.00000000000E+00  0.00000000000E+00  0.45593999997E+02  0.45594000000E+02  0.51100000000E-03 0.  1.
         11   -1    0    0    0    0 -0.00000000000E+00 -0.00000000000E+00 -0.45593999997E+02  0.45594000000E+02  0.51100000000E-03 0. -1.
    9900012    2    1    2    0    0 -0.14371265769E+01  0.99791137558E+01 -0.15780271107E+02  0.72461948618E+02  0.70000492835E+02 0.  0.
        -12    1    1    2    0    0  0.14371265769E+01 -0.99791137558E+01  0.15780271107E+02  0.18726051382E+02  0.00000000000E+00 0.  1.
         11    1    3    3    0    0 -0.11105265821E+02 -0.19157497765E+02 -0.10654271501E+02  0.24573362632E+02  0.51100000000E-03 0. -1.
        -11    1    3    3    0    0  0.62455487325E+01  0.48078951327E+01  0.14460046981E+02  0.16468627555E+02  0.51100000000E-03 0.  1.
        -12    1    3    3    0    0  0.34225905118E+01  0.24328716388E+02 -0.19586046587E+02  0.31419958431E+02  0.00000000000E+00 0.  1.
</event>
<event>
 7    1  0.3509180E-013  0.7246154E+02  0.7816164E-02  0.1226708E+00
        -11   -1    0    0    0    0  0.00000000000E+00  0.00000000000E+00  0.45593999997E+02  0.45594000000E+02  0.51100000000E-03 0.  1.
         11   -1    0    0    0    0 -0.00000000000E+00 -0.00000000000E+00 -0.45593999997E+02  0.45594000000E+02  0.51100000000E-03 0. -1.
    9900012    2    1    2    0    0  0.93695140404E+01  0.15393988054E+02  0.50909526540E+01  0.72461535825E+02  0.69999955098E+02 0.  0.
        -12    1    1    2    0    0 -0.93695140404E+01 -0.15393988054E+02 -0.50909526540E+01  0.18726464175E+02  0.00000000000E+00 0.  1.
         11    1    3    3    0    0 -0.74170945296E+01  0.50540936636E+01 -0.15459250421E+02  0.17875837823E+02  0.51100000000E-03 0. -1.
        -11    1    3    3    0    0  0.85077501597E+01  0.28818055357E+02  0.94721849351E+01  0.31505307728E+02  0.51100000000E-03 0.  1.
         12    1    3    3    0    0  0.82788584103E+01 -0.18478160967E+02  0.11078018140E+02  0.23080390274E+02  0.00000000000E+00 0. -1.
</event>
<event>
 7    1  0.3509180E-013  0.7246196E+02  0.7816164E-02  0.1226707E+00
        -11   -1    0    0    0    0  0.00000000000E+00  0.00000000000E+00  0.45593999997E+02  0.45594000000E+02  0.51100000000E-03 0. -1.
         11   -1    0    0    0    0 -0.00000000000E+00 -0.00000000000E+00 -0.45593999997E+02  0.45594000000E+02  0.51100000000E-03 0.  1.
    9900012    2    1    2    0    0 -0.64380631921E+01  0.12932449367E+02 -0.11915011298E+02  0.72461964687E+02  0.70000513768E+02 0.  0.
        -12    1    1    2    0    0  0.64380631921E+01 -0.12932449367E+02  0.11915011298E+02  0.18726035313E+02  0.00000000000E+00 0.  1.
         11    1    3    3    0    0  0.19346620511E+01 -0.15737388948E+01  0.74808052133E-01  0.24950286305E+01  0.51100000000E-03 0. -1.
        -11    1    3    3    0    0  0.94745632032E+00  0.38498741895E+02  0.54239008979E+01  0.38890480869E+02  0.51100000000E-03 0.  1.
         12    1    3    3    0    0 -0.93201815635E+01 -0.23992553633E+02 -0.17413720248E+02  0.31076455189E+02  0.00000000000E+00 0. -1.
</event>
<event>
 7    1  0.3509180E-013  0.7246157E+02  0.7816164E-02  0.1226708E+00
        -11   -1    0    0    0    0  0.00000000000E+00  0.00000000000E+00  0.45593999997E+02  0.45594000000E+02  0.51100000000E-03 0. -1.
         11   -1    0    0    0    0 -0.00000000000E+00 -0.00000000000E+00 -0.45593999997E+02  0.45594000000E+02  0.51100000000E-03 0.  1.
    9900012    2    1    2    0    0  0.10793089417E+02  0.15249923236E+02 -0.12760973304E+01  0.72461565148E+02  0.69999993296E+02 0.  0.
        -12    1    1    2    0    0 -0.10793089417E+02 -0.15249923236E+02  0.12760973304E+01  0.18726434852E+02  0.00000000000E+00 0.  1.
         11    1    3    3    0    0  0.99346018641E-01 -0.40574936768E+01  0.18802873208E+02  0.19235934230E+02  0.51100000000E-03 0. -1.
        -11    1    3    3    0    0  0.18353262603E+02 -0.85882181151E+01 -0.99601726699E+01  0.22578856890E+02  0.51100000000E-03 0.  1.
        -12    1    3    3    0    0 -0.76595192049E+01  0.27895635028E+02 -0.10118797868E+02  0.30646774029E+02  0.00000000000E+00 0.  1.
</event>
<event>
 7    1  0.3509180E-013  0.7246158E+02  0.7816164E-02  0.1226708E+00
        -11   -1    0    0    0    0  0.00000000000E+00  0.00000000000E+00  0.45593999997E+02  0.45594000000E+02  0.51100000000E-03 0.  1.
         11   -1    0    0    0    0 -0.00000000000E+00 -0.00000000000E+00 -0.45593999997E+02  0.45594000000E+02  0.51100000000E-03 0. -1.
    9900012    2    1    2    0    0  0.12273354608E+00  0.84085124498E+01 -0.16732026297E+02  0.72461578849E+02  0.70000011143E+02 0.  0.
        -12    1    1    2    0    0 -0.12273354608E+00 -0.84085124498E+01  0.16732026297E+02  0.18726421151E+02  0.00000000000E+00 0.  1.
         11    1    3    3    0    0  0.86475031409E+01  0.15053154585E+02 -0.32578022642E+01  0.17663240059E+02  0.51100000000E-03 0. -1.
        -11    1    3    3    0    0  0.17160246407E+02 -0.66309981392E+01  0.91710993153E+01  0.20556100213E+02  0.51100000000E-03 0.  1.
         12    1    3    3    0    0 -0.25685016002E+02 -0.13643996366E-01 -0.22645323348E+02  0.34242238576E+02  0.00000000000E+00 0. -1.
</event>
<event>
 7    1  0.3509180E-013  0.7246159E+02  0.7816164E-02  0.1226708E+00
        -11   -1    0    0    0    0  0.00000000000E+00  0.00000000000E+00  0.45593999997E+02  0.45594000000E+02  0.51100000000E-03 0. -1.
         11   -1    0    0    0    0 -0.00000000000E+00 -0.00000000000E+00 -0.45593999997E+02  0.45594000000E+02  0.51100000000E-03 0.  1.
    9900012    2    1    2    0    0  0.21668440943E+01 -0.17800134795E+02  0.53980159195E+01  0.72461585823E+02  0.70000020229E+02 0.  0.
        -12    1    1    2    0    0 -0.21668440943E+01  0.17800134795E+02 -0.53980159195E+01  0.18726414177E+02  0.00000000000E+00 0.  1.
         11    1    3    3    0    0 -0.97447912265E+01 -0.13557746356E+02  0.28810073791E+01  0.16943247802E+02  0.51100000000E-03 0. -1.
        -11    1    3    3    0    0 -0.19918339718E+02  0.75740877587E+01 -0.13143722170E+01  0.21350284239E+02  0.51100000000E-03 0.  1.
         12    1    3    3    0    0  0.31829975039E+02 -0.11816476198E+02  0.38313807575E+01  0.34168053782E+02  0.00000000000E+00 0. -1.
</event>
<event>
 7    1  0.3509180E-013  0.7246159E+02  0.7816164E-02  0.1226708E+00
        -11   -1    0    0    0    0  0.00000000000E+00  0.00000000000E+00  0.45593999997E+02  0.45594000000E+02  0.51100000000E-03 0. -1.
         11   -1    0    0    0    0 -0.00000000000E+00 -0.00000000000E+00 -0.45593999997E+02  0.45594000000E+02  0.51100000000E-03 0.  1.
    9900012    2    1    2    0    0  0.68986115892E+01 -0.64213615879E+01  0.16181898940E+02  0.72461586040E+02  0.70000020511E+02 0.  0.
        -12    1    1    2    0    0 -0.68986115892E+01  0.64213615879E+01 -0.16181898940E+02  0.18726413960E+02  0.00000000000E+00 0.  1.
         11    1    3    3    0    0  0.20852624571E+02 -0.20501494749E+02  0.10283797507E+02  0.30998382698E+02  0.51100000000E-03 0. -1.
        -11    1    3    3    0    0  0.11550832375E+02  0.74989280251E+01 -0.21105743319E+01  0.13932342745E+02  0.51100000000E-03 0.  1.
        -12    1    3    3    0    0 -0.25504845357E+02  0.65812051363E+01  0.80086757654E+01  0.27530860597E+02  0.00000000000E+00 0.  1.
</event>
<event>
 7    1  0.3509180E-013  0.7246160E+02  0.7816164E-02  0.1226708E+00
        -11   -1    0    0    0    0  0.00000000000E+00  0.00000000000E+00  0.45593999997E+02  0.45594000000E+02  0.51100000000E-03 0. -1.
         11   -1    0    0    0    0 -0.00000000000E+00 -0.00000000000E+00 -0.45593999997E+02  0.45594000000E+02  0.51100000000E-03 0.  1.
    9900012    2    1    2    0    0  0.14551481868E+02 -0.79564912803E+01  0.86963652193E+01  0.72461597621E+02  0.70000035598E+02 0.  0.
        -12    1    1    2    0    0 -0.14551481868E+02  0.79564912803E+01 -0.86963652193E+01  0.18726402379E+02  0.00000000000E+00 0.  1.
         11    1    3    3    0    0 -0.93770371744E+01 -0.13665096282E+01 -0.14177365138E+02  0.17052678888E+02  0.51100000000E-03 0. -1.
        -11    1    3    3    0    0  0.36729519047E+01  0.10772611856E+01 -0.12973822882E+02  0.13526682808E+02  0.51100000000E-03 0.  1.
         12    1    3    3    0    0  0.20255567137E+02 -0.76672428377E+01  0.35847553240E+02  0.41882235925E+02  0.00000000000E+00 0. -1.
</event>
<event>
 7    1  0.3509180E-013  0.7246167E+02  0.7816164E-02  0.1226708E+00
        -11   -1    0    0    0    0  0.00000000000E+00  0.00000000000E+00  0.45593999997E+02  0.45594000000E+02  0.51100000000E-03 0.  1.
         11   -1    0    0    0    0 -0.00000000000E+00 -0.00000000000E+00 -0.45593999997E+02  0.45594000000E+02  0.51100000000E-03 0. -1.
    9900012    2    1    2    0    0  0.42513719734E+01  0.17978268653E+02 -0.30631713255E+01  0.72461672918E+02  0.70000133687E+02 0.  0.
        -12    1    1    2    0    0 -0.42513719734E+01 -0.17978268653E+02  0.30631713255E+01  0.18726327082E+02  0.00000000000E+00 0.  1.
         11    1    3    3    0    0  0.17388393745E+02  0.13021372741E+02  0.88110325460E+01  0.23442411989E+02  0.51100000000E-03 0. -1.
        -11    1    3    3    0    0  0.35345275185E+01  0.18806154003E+02 -0.18234029619E+02  0.26431877527E+02  0.51100000000E-03 0.  1.
        -12    1    3    3    0    0 -0.16671549290E+02 -0.13849258092E+02  0.63598257475E+01  0.22587383402E+02  0.00000000000E+00 0.  1.
</event>
<event>
 7    1  0.3509180E-013  0.7246161E+02  0.7816164E-02  0.1226708E+00
        -11   -1    0    0    0    0  0.00000000000E+00  0.00000000000E+00  0.45593999997E+02  0.45594000000E+02  0.51100000000E-03 0.  1.
         11   -1    0    0    0    0 -0.00000000000E+00 -0.00000000000E+00 -0.45593999997E+02  0.45594000000E+02  0.51100000000E-03 0. -1.
    9900012    2    1    2    0    0  0.21983307801E+01  0.18517022726E+02 -0.17218906883E+01  0.72461609627E+02  0.70000051238E+02 0.  0.
        -12    1    1    2    0    0 -0.21983307801E+01 -0.18517022726E+02  0.17218906883E+01  0.18726390373E+02  0.00000000000E+00 0.  1.
         11    1    3    3    0    0 -0.20030702998E+02  0.10325484277E+02 -0.16258318076E+02  0.27788083689E+02  0.51100000000E-03 0. -1.
        -11    1    3    3    0    0  0.26269385599E+00  0.74934171988E+01 -0.95011587243E+01  0.12103401453E+02  0.51100000000E-03 0.  1.
        -12    1    3    3    0    0  0.21966339922E+02  0.69812125026E+00  0.24037586112E+02  0.32570124485E+02  0.00000000000E+00 0.  1.
</event>
<event>
 7    1  0.3509180E-013  0.7246158E+02  0.7816164E-02  0.1226708E+00
        -11   -1    0    0    0    0  0.00000000000E+00  0.00000000000E+00  0.45593999997E+02  0.45594000000E+02  0.51100000000E-03 0.  1.
         11   -1    0    0    0    0 -0.00000000000E+00 -0.00000000000E+00 -0.45593999997E+02  0.45594000000E+02  0.51100000000E-03 0. -1.
    9900012    2    1    2    0    0 -0.17224927966E+02  0.30452154409E+00 -0.73408386132E+01  0.72461580472E+02  0.70000013258E+02 0.  0.
        -12    1    1    2    0    0  0.17224927966E+02 -0.30452154409E+00  0.73408386132E+01  0.18726419528E+02  0.00000000000E+00 0.  1.
         11    1    3    3    0    0 -0.19792514490E+01  0.43482925104E+01  0.66157755126E+01  0.81604883401E+01  0.51100000000E-03 0. -1.
        -11    1    3    3    0    0 -0.20455996093E+02  0.25223931657E+02 -0.11578176910E+02  0.34478234949E+02  0.51100000000E-03 0.  1.
         12    1    3    3    0    0  0.52103195763E+01 -0.29267702623E+02 -0.23784372154E+01  0.29822857182E+02  0.00000000000E+00 0. -1.
</event>
<event>
 7    1  0.3509180E-013  0.7246151E+02  0.7816164E-02  0.1226708E+00
        -11   -1    0    0    0    0  0.00000000000E+00  0.00000000000E+00  0.45593999997E+02  0.45594000000E+02  0.51100000000E-03 0. -1.
         11   -1    0    0    0    0 -0.00000000000E+00 -0.00000000000E+00 -0.45593999997E+02  0.45594000000E+02  0.51100000000E-03 0.  1.
    9900012    2    1    2    0    0  0.15825356816E+01 -0.45344637792E+01  0.18100152864E+02  0.72461513019E+02  0.69999925388E+02 0.  0.
        -12    1    1    2    0    0 -0.15825356816E+01  0.45344637792E+01 -0.18100152864E+02  0.18726486981E+02  0.00000000000E+00 0.  1.
         11    1    3    3    0    0 -0.80749830295E+01  0.21722387863E+02  0.22338043269E+01  0.23282125492E+02  0.51100000000E-03 0. -1.
        -11    1    3    3    0    0  0.17670230808E+01 -0.36128083543E+01  0.23633618487E+02  0.23973374352E+02  0.51100000000E-03 0.  1.
        -12    1    3    3    0    0  0.78904956302E+01 -0.22644043288E+02 -0.77672699501E+01  0.25206013175E+02  0.00000000000E+00 0.  1.
</event>
<event>
 7    1  0.3509180E-013  0.7246136E+02  0.7816164E-02  0.1226709E+00
        -11   -1    0    0    0    0  0.00000000000E+00  0.00000000000E+00  0.45593999997E+02  0.45594000000E+02  0.51100000000E-03 0.  1.
         11   -1    0    0    0    0 -0.00000000000E+00 -0.00000000000E+00 -0.45593999997E+02  0.45594000000E+02  0.51100000000E-03 0. -1.
    9900012    2    1    2    0    0 -0.10853546456E+01  0.12326562632E+02 -0.14055776569E+02  0.72461361327E+02  0.69999727781E+02 0.  0.
        -12    1    1    2    0    0  0.10853546456E+01 -0.12326562632E+02  0.14055776569E+02  0.18726638673E+02  0.00000000000E+00 0.  1.
         11    1    3    3    0    0  0.30032135121E+02  0.16962825763E+02 -0.12670353901E+01  0.34514808079E+02  0.51100000000E-03 0. -1.
        -11    1    3    3    0    0 -0.46784561151E+01  0.20714473846E+01 -0.90753492931E+01  0.10418292132E+02  0.51100000000E-03 0.  1.
        -12    1    3    3    0    0 -0.26439033652E+02 -0.67077105153E+01 -0.37133918861E+01  0.27528261116E+02  0.00000000000E+00 0.  1.
</event>
<event>
 7    1  0.3509180E-013  0.7246176E+02  0.7816164E-02  0.1226708E+00
        -11   -1    0    0    0    0  0.00000000000E+00  0.00000000000E+00  0.45593999997E+02  0.45594000000E+02  0.51100000000E-03 0.  1.
         11   -1    0    0    0    0 -0.00000000000E+00 -0.00000000000E+00 -0.45593999997E+02  0.45594000000E+02  0.51100000000E-03 0. -1.
    9900012    2    1    2    0    0 -0.14079906808E+02 -0.12306408847E+02  0.99025907428E+00  0.72461759388E+02  0.70000246329E+02 0.  0.
        -12    1    1    2    0    0  0.14079906808E+02  0.12306408847E+02 -0.99025907428E+00  0.18726240612E+02  0.00000000000E+00 0.  1.
         11    1    3    3    0    0 -0.17589663611E+02  0.69859339053E+01  0.63987004247E+01  0.19978561156E+02  0.51100000000E-03 0. -1.
        -11    1    3    3    0    0  0.85762293142E+01  0.15134489083E+02 -0.23017306894E+01  0.17547148870E+02  0.51100000000E-03 0.  1.
         12    1    3    3    0    0 -0.50664725116E+01 -0.34426831835E+02 -0.31067106610E+01  0.34936049362E+02  0.00000000000E+00 0. -1.
</event>
<event>
 7    1  0.3509180E-013  0.7246159E+02  0.7816164E-02  0.1226708E+00
        -11   -1    0    0    0    0  0.00000000000E+00  0.00000000000E+00  0.45593999997E+02  0.45594000000E+02  0.51100000000E-03 0. -1.
         11   -1    0    0    0    0 -0.00000000000E+00 -0.00000000000E+00 -0.45593999997E+02  0.45594000000E+02  0.51100000000E-03 0.  1.
    9900012    2    1    2    0    0  0.71858913022E+01 -0.14711267537E+02 -0.90895560101E+01  0.72461589377E+02  0.70000024859E+02 0.  0.
        -12    1    1    2    0    0 -0.71858913022E+01  0.14711267537E+02  0.90895560101E+01  0.18726410623E+02  0.00000000000E+00 0.  1.
         11    1    3    3    0    0 -0.86120426132E+01 -0.78378819869E+00 -0.10021886654E+02  0.13237062147E+02  0.51100000000E-03 0. -1.
        -11    1    3    3    0    0 -0.18258678576E+02  0.52666055547E+01 -0.50836546205E+01  0.19671299448E+02  0.51100000000E-03 0.  1.
         12    1    3    3    0    0  0.34056612491E+02 -0.19194084893E+02  0.60159852644E+01  0.39553227782E+02  0.00000000000E+00 0. -1.
</event>
<event>
 7    1  0.3509180E-013  0.7246156E+02  0.7816164E-02  0.1226708E+00
        -11   -1    0    0    0    0  0.00000000000E+00  0.00000000000E+00  0.45593999997E+02  0.45594000000E+02  0.51100000000E-03 0. -1.
         11   -1    0    0    0    0 -0.00000000000E+00 -0.00000000000E+00 -0.45593999997E+02  0.45594000000E+02  0.51100000000E-03 0.  1.
    9900012    2    1    2    0    0 -0.16602712250E+02  0.30961514709E+01  0.80896994292E+01  0.72461562944E+02  0.69999990424E+02 0.  0.
        -12    1    1    2    0    0  0.16602712250E+02 -0.30961514709E+01 -0.80896994292E+01  0.18726437056E+02  0.00000000000E+00 0.  1.
         11    1    3    3    0    0  0.45350765170E+01 -0.19237001998E+02 -0.14117987383E+02  0.24288819092E+02  0.51100000000E-03 0. -1.
        -11    1    3    3    0    0 -0.20801427905E+01  0.18371442323E+01  0.19897832993E+02  0.20090441783E+02  0.51100000000E-03 0.  1.
        -12    1    3    3    0    0 -0.19057645976E+02  0.20496009237E+02  0.23098538186E+01  0.28082302068E+02  0.00000000000E+00 0.  1.
</event>
<event>
 7    1  0.3509180E-013  0.7246158E+02  0.7816164E-02  0.1226708E+00
        -11   -1    0    0    0    0  0.00000000000E+00  0.00000000000E+00  0.45593999997E+02  0.45594000000E+02  0.51100000000E-03 0.  1.
         11   -1    0    0    0    0 -0.00000000000E+00 -0.00000000000E+00 -0.45593999997E+02  0.45594000000E+02  0.51100000000E-03 0. -1.
    9900012    2    1    2    0    0 -0.10973691831E+02  0.79402479417E+00 -0.15153427450E+02  0.72461581462E+02  0.70000014549E+02 0.  0.
        -12    1    1    2    0    0  0.10973691831E+02 -0.79402479417E+00  0.15153427450E+02  0.18726418538E+02  0.00000000000E+00 0.  1.
         11    1    3    3    0    0 -0.16616714060E+02  0.15762034013E+02 -0.10938779333E+02  0.25381367102E+02  0.51100000000E-03 0. -1.
        -11    1    3    3    0    0 -0.12427412405E+02  0.97279523062E+01  0.18298515589E+01  0.15887793810E+02  0.51100000000E-03 0.  1.
        -12    1    3    3    0    0  0.18070434634E+02 -0.24695961525E+02 -0.60444996752E+01  0.31192420551E+02  0.00000000000E+00 0.  1.
</event>
<event>
 7    1  0.3509180E-013  0.7246158E+02  0.7816164E-02  0.1226708E+00
        -11   -1    0    0    0    0  0.00000000000E+00  0.00000000000E+00  0.45593999997E+02  0.45594000000E+02  0.51100000000E-03 0. -1.
         11   -1    0    0    0    0 -0.00000000000E+00 -0.00000000000E+00 -0.45593999997E+02  0.45594000000E+02  0.51100000000E-03 0.  1.
    9900012    2    1    2    0    0 -0.12348583832E+02  0.93671170144E+01 -0.10509446891E+02  0.72461578084E+02  0.70000010148E+02 0.  0.
        -12    1    1    2    0    0  0.12348583832E+02 -0.93671170144E+01  0.10509446891E+02  0.18726421916E+02  0.00000000000E+00 0.  1.
         11    1    3    3    0    0 -0.22005806415E+02 -0.40468858983E+01  0.14432566221E+02  0.26625772654E+02  0.51100000000E-03 0. -1.
        -11    1    3    3    0    0 -0.44377298113E+01  0.15338571773E+02  0.12639945717E+01  0.16017581355E+02  0.51100000000E-03 0.  1.
        -12    1    3    3    0    0  0.14094952394E+02 -0.19245688604E+01 -0.26206007684E+02  0.29818224076E+02  0.00000000000E+00 0.  1.
</event>
<event>
 7    1  0.3509180E-013  0.7246150E+02  0.7816164E-02  0.1226708E+00
        -11   -1    0    0    0    0  0.00000000000E+00  0.00000000000E+00  0.45593999997E+02  0.45594000000E+02  0.51100000000E-03 0.  1.
         11   -1    0    0    0    0 -0.00000000000E+00 -0.00000000000E+00 -0.45593999997E+02  0.45594000000E+02  0.51100000000E-03 0. -1.
    9900012    2    1    2    0    0 -0.20061764071E+01 -0.16952705981E+02 -0.76982350530E+01  0.72461499879E+02  0.69999908271E+02 0.  0.
        -12    1    1    2    0    0  0.20061764071E+01  0.16952705981E+02  0.76982350530E+01  0.18726500121E+02  0.00000000000E+00 0.  1.
         11    1    3    3    0    0  0.34327825005E+01 -0.67941971978E+01 -0.13673645405E+02  0.15649718533E+02  0.51100000000E-03 0. -1.
        -11    1    3    3    0    0 -0.25335927099E+02 -0.46559317291E+01 -0.12926556672E+02  0.28821567791E+02  0.51100000000E-03 0.  1.
        -12    1    3    3    0    0  0.19896968192E+02 -0.55025770541E+01  0.18901967024E+02  0.27990213555E+02  0.00000000000E+00 0.  1.
</event>
<event>
 7    1  0.3509180E-013  0.7246160E+02  0.7816164E-02  0.1226708E+00
        -11   -1    0    0    0    0  0.00000000000E+00  0.00000000000E+00  0.45593999997E+02  0.45594000000E+02  0.51100000000E-03 0.  1.
         11   -1    0    0    0    0 -0.00000000000E+00 -0.00000000000E+00 -0.45593999997E+02  0.45594000000E+02  0.51100000000E-03 0. -1.
    9900012    2    1    2    0    0  0.98138725613E+01  0.15947893022E+02 -0.17503436809E+00  0.72461600892E+02  0.70000039860E+02 0.  0.
        -12    1    1    2    0    0 -0.98138725613E+01 -0.15947893022E+02  0.17503436809E+00  0.18726399108E+02  0.00000000000E+00 0.  1.
         11    1    3    3    0    0  0.29495094579E+01  0.12617988130E+01  0.12858634898E+02  0.13252782122E+02  0.51100000000E-03 0. -1.
        -11    1    3    3    0    0  0.28011237930E+02 -0.37436652583E+01 -0.13121366422E+02  0.31157900073E+02  0.51100000000E-03 0.  1.
         12    1    3    3    0    0 -0.21146874827E+02  0.18429759468E+02  0.87697155857E-01  0.28050918697E+02  0.00000000000E+00 0. -1.
</event>
<event>
 7    1  0.3509180E-013  0.7246151E+02  0.7816164E-02  0.1226708E+00
        -11   -1    0    0    0    0  0.00000000000E+00  0.00000000000E+00  0.45593999997E+02  0.45594000000E+02  0.51100000000E-03 0.  1.
         11   -1    0    0    0    0 -0.00000000000E+00 -0.00000000000E+00 -0.45593999997E+02  0.45594000000E+02  0.51100000000E-03 0. -1.
    9900012    2    1    2    0    0 -0.84325970126E+01 -0.12622454492E+02 -0.10965687496E+02  0.72461512021E+02  0.69999924088E+02 0.  0.
        -12    1    1    2    0    0  0.84325970126E+01  0.12622454492E+02  0.10965687496E+02  0.18726487979E+02  0.00000000000E+00 0.  1.
         11    1    3    3    0    0 -0.82858843650E+01  0.12543816061E+02 -0.21756301721E+02  0.26445034807E+02  0.51100000000E-03 0. -1.
        -11    1    3    3    0    0 -0.15444433344E+00 -0.10801468691E+02 -0.13807465465E+02  0.17531163161E+02  0.51100000000E-03 0.  1.
        -12    1    3    3    0    0  0.77316858584E-02 -0.14364801861E+02  0.24598079690E+02  0.28485314053E+02  0.00000000000E+00 0.  1.
</event>
<event>
 7    1  0.5593960E-013  0.7246165E+02  0.7816164E-02  0.1226708E+00
        -11   -1    0    0    0    0  0.00000000000E+00  0.00000000000E+00  0.45593999997E+02  0.45594000000E+02  0.51100000000E-03 0. -1.
         11   -1    0    0    0    0 -0.00000000000E+00 -0.00000000000E+00 -0.45593999997E+02  0.45594000000E+02  0.51100000000E-03 0.  1.
    9900012    2    1    2    0    0 -0.13730961867E+02  0.48073370842E+01  0.11790940003E+02  0.72461653058E+02  0.70000107815E+02 0.  0.
        -12    1    1    2    0    0  0.13730961867E+02 -0.48073370842E+01 -0.11790940003E+02  0.18726346942E+02  0.00000000000E+00 0.  1.
         11    1    3    3    0    0 -0.70155054242E+01  0.95791688213E+01  0.14366853460E+02  0.18638247511E+02  0.51100000000E-03 0. -1.
        -11    1    3    3    0    0  0.73658726475E+00  0.16233330099E+02 -0.19829741768E+02  0.25637515983E+02  0.51100000000E-03 0.  1.
         12    1    3    3    0    0 -0.74520437078E+01 -0.21005161836E+02  0.17253828311E+02  0.28185889565E+02  0.00000000000E+00 0. -1.
</event>
<event>
 7    1  0.3509180E-013  0.7246159E+02  0.7816164E-02  0.1226708E+00
        -11   -1    0    0    0    0  0.00000000000E+00  0.00000000000E+00  0.45593999997E+02  0.45594000000E+02  0.51100000000E-03 0. -1.
         11   -1    0    0    0    0 -0.00000000000E+00 -0.00000000000E+00 -0.45593999997E+02  0.45594000000E+02  0.51100000000E-03 0.  1.
    9900012    2    1    2    0    0  0.15408977375E+01  0.89185480126E+01  0.16394010314E+02  0.72461589809E+02  0.70000025421E+02 0.  0.
        -12    1    1    2    0    0 -0.15408977375E+01 -0.89185480126E+01 -0.16394010314E+02  0.18726410191E+02  0.00000000000E+00 0.  1.
         11    1    3    3    0    0 -0.17205570580E+00 -0.75848463065E+01  0.18352581540E+02  0.19858921071E+02  0.51100000000E-03 0. -1.
        -11    1    3    3    0    0 -0.20494544152E+02  0.16611392760E+02  0.89531265399E+01  0.27858987500E+02  0.51100000000E-03 0.  1.
        -12    1    3    3    0    0  0.22207497595E+02 -0.10799844065E+00 -0.10911697766E+02  0.24743681238E+02  0.00000000000E+00 0.  1.
</event>
<event>
 7    1  0.3509180E-013  0.7246159E+02  0.7816164E-02  0.1226708E+00
        -11   -1    0    0    0    0  0.00000000000E+00  0.00000000000E+00  0.45593999997E+02  0.45594000000E+02  0.51100000000E-03 0.  1.
         11   -1    0    0    0    0 -0.00000000000E+00 -0.00000000000E+00 -0.45593999997E+02  0.45594000000E+02  0.51100000000E-03 0. -1.
    9900012    2    1    2    0    0 -0.11989277770E+02  0.13753926209E+02  0.42148949049E+01  0.72461585322E+02  0.70000019577E+02 0.  0.
        -12    1    1    2    0    0  0.11989277770E+02 -0.13753926209E+02 -0.42148949049E+01  0.18726414678E+02  0.00000000000E+00 0.  1.
         11    1    3    3    0    0 -0.99106028973E+01  0.35887004362E+02 -0.13800755832E+02  0.39705893690E+02  0.51100000000E-03 0. -1.
        -11    1    3    3    0    0 -0.21707835294E+01  0.16423361210E+01  0.48926406527E+01  0.55988839855E+01  0.51100000000E-03 0.  1.
        -12    1    3    3    0    0  0.92108656219E-01 -0.23775414274E+02  0.13123010084E+02  0.27156807647E+02  0.00000000000E+00 0.  1.
</event>
<event>
 7    1  0.3509180E-013  0.7246148E+02  0.7816164E-02  0.1226708E+00
        -11   -1    0    0    0    0  0.00000000000E+00  0.00000000000E+00  0.45593999997E+02  0.45594000000E+02  0.51100000000E-03 0.  1.
         11   -1    0    0    0    0 -0.00000000000E+00 -0.00000000000E+00 -0.45593999997E+02  0.45594000000E+02  0.51100000000E-03 0. -1.
    9900012    2    1    2    0    0 -0.75826674470E+01  0.17081441347E+02 -0.11874708728E+01  0.72461479470E+02  0.69999881684E+02 0.  0.
        -12    1    1    2    0    0  0.75826674470E+01 -0.17081441347E+02  0.11874708728E+01  0.18726520530E+02  0.00000000000E+00 0.  1.
         11    1    3    3    0    0 -0.10028934208E+02 -0.21393643653E+02 -0.10958754094E+02  0.26045379660E+02  0.51100000000E-03 0. -1.
        -11    1    3    3    0    0 -0.22986195770E+01 -0.10674395882E+01  0.58767533752E+01  0.63999460723E+01  0.51100000000E-03 0.  1.
        -12    1    3    3    0    0  0.47448863379E+01  0.39542524588E+02  0.38945298458E+01  0.40016153737E+02  0.00000000000E+00 0.  1.
</event>
<event>
 7    1  0.3509180E-013  0.7246154E+02  0.7816164E-02  0.1226708E+00
        -11   -1    0    0    0    0  0.00000000000E+00  0.00000000000E+00  0.45593999997E+02  0.45594000000E+02  0.51100000000E-03 0.  1.
         11   -1    0    0    0    0 -0.00000000000E+00 -0.00000000000E+00 -0.45593999997E+02  0.45594000000E+02  0.51100000000E-03 0. -1.
    9900012    2    1    2    0    0  0.14489449645E+02  0.11141952309E+02 -0.40734510208E+01  0.72461541299E+02  0.69999962228E+02 0.  0.
        -12    1    1    2    0    0 -0.14489449645E+02 -0.11141952309E+02  0.40734510208E+01  0.18726458701E+02  0.00000000000E+00 0.  1.
         11    1    3    3    0    0  0.17456042829E+02  0.17929217827E+02 -0.73160168747E+01  0.26070949087E+02  0.51100000000E-03 0. -1.
        -11    1    3    3    0    0  0.83476417541E+00  0.16536839515E+02 -0.99581694879E+01  0.19321724358E+02  0.51100000000E-03 0.  1.
        -12    1    3    3    0    0 -0.38013573591E+01 -0.23324105032E+02  0.13200735342E+02  0.27068867854E+02  0.00000000000E+00 0.  1.
</event>
<event>
 7    1  0.3509180E-013  0.7246165E+02  0.7816164E-02  0.1226708E+00
        -11   -1    0    0    0    0  0.00000000000E+00  0.00000000000E+00  0.45593999997E+02  0.45594000000E+02  0.51100000000E-03 0. -1.
         11   -1    0    0    0    0 -0.00000000000E+00 -0.00000000000E+00 -0.45593999997E+02  0.45594000000E+02  0.51100000000E-03 0.  1.
    9900012    2    1    2    0    0 -0.95667414046E+01  0.47381904134E+01  0.15385156810E+02  0.72461653865E+02  0.70000108867E+02 0.  0.
        -12    1    1    2    0    0  0.95667414046E+01 -0.47381904134E+01 -0.15385156810E+02  0.18726346135E+02  0.00000000000E+00 0.  1.
         11    1    3    3    0    0 -0.29426008184E+01  0.25459590539E+02  0.75418282202E+01  0.26715703681E+02  0.51100000000E-03 0.  1.
        -11    1    3    3    0    0 -0.13211142019E+02  0.80198037333E+01  0.10711591640E+01  0.15491898127E+02  0.51100000000E-03 0. -1.
        -12    1    3    3    0    0  0.65870014331E+01 -0.28741203859E+02  0.67721694254E+01  0.30254052057E+02  0.00000000000E+00 0.  1.
</event>
<event>
 7    1  0.3509180E-013  0.7246147E+02  0.7816164E-02  0.1226708E+00
        -11   -1    0    0    0    0  0.00000000000E+00  0.00000000000E+00  0.45593999997E+02  0.45594000000E+02  0.51100000000E-03 0. -1.
         11   -1    0    0    0    0 -0.00000000000E+00 -0.00000000000E+00 -0.45593999997E+02  0.45594000000E+02  0.51100000000E-03 0.  1.
    9900012    2    1    2    0    0  0.10867831448E+02  0.10869767513E+02  0.10696788535E+02  0.72461470927E+02  0.69999870555E+02 0.  0.
        -12    1    1    2    0    0 -0.10867831448E+02 -0.10869767513E+02 -0.10696788535E+02  0.18726529073E+02  0.00000000000E+00 0.  1.
         11    1    3    3    0    0 -0.99618031026E+01  0.98003128109E+01  0.19391131371E+02  0.23901874997E+02  0.51100000000E-03 0. -1.
        -11    1    3    3    0    0  0.56857822830E+00  0.26734441166E+01  0.16196169400E+02  0.16425178481E+02  0.51100000000E-03 0.  1.
        -12    1    3    3    0    0  0.20261056322E+02 -0.16039894140E+01 -0.24890512237E+02  0.32134417448E+02  0.00000000000E+00 0.  1.
</event>
<event>
 7    1  0.3509180E-013  0.7246156E+02  0.7816164E-02  0.1226708E+00
        -11   -1    0    0    0    0  0.00000000000E+00  0.00000000000E+00  0.45593999997E+02  0.45594000000E+02  0.51100000000E-03 0. -1.
         11   -1    0    0    0    0 -0.00000000000E+00 -0.00000000000E+00 -0.45593999997E+02  0.45594000000E+02  0.51100000000E-03 0.  1.
    9900012    2    1    2    0    0  0.65868961437E+01  0.17166070418E+02 -0.35522135276E+01  0.72461564264E+02  0.69999992145E+02 0.  0.
        -12    1    1    2    0    0 -0.65868961437E+01 -0.17166070418E+02  0.35522135276E+01  0.18726435736E+02  0.00000000000E+00 0.  1.
         11    1    3    3    0    0 -0.13084527822E+02  0.17137595554E+00 -0.18368177980E+02  0.22552698300E+02  0.51100000000E-03 0. -1.
        -11    1    3    3    0    0 -0.12022899585E+02  0.99999197543E+00  0.51291825279E+01  0.13109485575E+02  0.51100000000E-03 0.  1.
         12    1    3    3    0    0  0.31694323551E+02  0.15994702487E+02  0.96867819241E+01  0.36799380389E+02  0.00000000000E+00 0. -1.
</event>
<event>
 7    1  0.3509180E-013  0.7246155E+02  0.7816164E-02  0.1226708E+00
        -11   -1    0    0    0    0  0.00000000000E+00  0.00000000000E+00  0.45593999997E+02  0.45594000000E+02  0.51100000000E-03 0. -1.
         11   -1    0    0    0    0 -0.00000000000E+00 -0.00000000000E+00 -0.45593999997E+02  0.45594000000E+02  0.51100000000E-03 0.  1.
    9900012    2    1    2    0    0  0.93338443900E+01  0.12413021525E+02 -0.10463077379E+02  0.72461554990E+02  0.69999980063E+02 0.  0.
        -12    1    1    2    0    0 -0.93338443900E+01 -0.12413021525E+02  0.10463077379E+02  0.18726445010E+02  0.00000000000E+00 0.  1.
         11    1    3    3    0    0  0.50676289685E+01  0.28905161340E+02  0.15789650646E+02  0.33324199664E+02  0.51100000000E-03 0. -1.
        -11    1    3    3    0    0  0.72913420595E+01 -0.16899852824E+01  0.14114341073E+01  0.76165520929E+01  0.51100000000E-03 0.  1.
        -12    1    3    3    0    0 -0.30251266380E+01 -0.14802154533E+02 -0.27664162132E+02  0.31520803233E+02  0.00000000000E+00 0.  1.
</event>
<event>
 7    1  0.3509180E-013  0.7246156E+02  0.7816164E-02  0.1226708E+00
        -11   -1    0    0    0    0  0.00000000000E+00  0.00000000000E+00  0.45593999997E+02  0.45594000000E+02  0.51100000000E-03 0. -1.
         11   -1    0    0    0    0 -0.00000000000E+00 -0.00000000000E+00 -0.45593999997E+02  0.45594000000E+02  0.51100000000E-03 0.  1.
    9900012    2    1    2    0    0  0.17915033057E+02  0.31711725325E+01  0.44356136975E+01  0.72461563779E+02  0.69999991513E+02 0.  0.
        -12    1    1    2    0    0 -0.17915033057E+02 -0.31711725325E+01 -0.44356136975E+01  0.18726436221E+02  0.00000000000E+00 0.  1.
         11    1    3    3    0    0 -0.67513059133E+01 -0.19174738679E+01 -0.19864207958E+02  0.21067595867E+02  0.51100000000E-03 0. -1.
        -11    1    3    3    0    0  0.14924797095E+02  0.78881174467E+01 -0.71636340585E+01  0.18338201067E+02  0.51100000000E-03 0.  1.
        -12    1    3    3    0    0  0.97415418754E+01 -0.27994710463E+01  0.31463455714E+02  0.33055766845E+02  0.00000000000E+00 0.  1.
</event>
<event>
 7    1  0.3509180E-013  0.7246160E+02  0.7816164E-02  0.1226708E+00
        -11   -1    0    0    0    0  0.00000000000E+00  0.00000000000E+00  0.45593999997E+02  0.45594000000E+02  0.51100000000E-03 0.  1.
         11   -1    0    0    0    0 -0.00000000000E+00 -0.00000000000E+00 -0.45593999997E+02  0.45594000000E+02  0.51100000000E-03 0. -1.
    9900012    2    1    2    0    0 -0.10401577959E+02 -0.81418762460E+01 -0.13273851325E+02  0.72461598802E+02  0.70000037136E+02 0.  0.
        -12    1    1    2    0    0  0.10401577959E+02  0.81418762460E+01  0.13273851325E+02  0.18726401198E+02  0.00000000000E+00 0.  1.
         11    1    3    3    0    0 -0.28173323558E+02  0.10157812112E+02  0.28558359141E+01  0.30084432956E+02  0.51100000000E-03 0. -1.
        -11    1    3    3    0    0  0.30848254002E+01 -0.42245803178E+01  0.87777762304E+01  0.10218247522E+02  0.51100000000E-03 0.  1.
        -12    1    3    3    0    0  0.14686920199E+02 -0.14075108041E+02 -0.24907463469E+02  0.32158918324E+02  0.00000000000E+00 0.  1.
</event>
<event>
 7    1  0.4583881E-013  0.7246155E+02  0.7816164E-02  0.1226708E+00
        -11   -1    0    0    0    0  0.00000000000E+00  0.00000000000E+00  0.45593999997E+02  0.45594000000E+02  0.51100000000E-03 0. -1.
         11   -1    0    0    0    0 -0.00000000000E+00 -0.00000000000E+00 -0.45593999997E+02  0.45594000000E+02  0.51100000000E-03 0.  1.
    9900012    2    1    2    0    0  0.13472470650E+02  0.12398998439E+02  0.39290328871E+01  0.72461550066E+02  0.69999973649E+02 0.  0.
        -12    1    1    2    0    0 -0.13472470650E+02 -0.12398998439E+02 -0.39290328871E+01  0.18726449934E+02  0.00000000000E+00 0.  1.
         11    1    3    3    0    0 -0.55414098744E+01  0.90819818339E+00  0.36096965583E+01  0.66754742783E+01  0.51100000000E-03 0. -1.
        -11    1    3    3    0    0 -0.92888242001E+01  0.19564731711E+01 -0.24930920783E+02  0.26676972348E+02  0.51100000000E-03 0.  1.
         12    1    3    3    0    0  0.28302704724E+02  0.95343270845E+01  0.25250257112E+02  0.39109103440E+02  0.00000000000E+00 0. -1.
</event>
<event>
 7    1  0.3509180E-013  0.7246155E+02  0.7816164E-02  0.1226708E+00
        -11   -1    0    0    0    0  0.00000000000E+00  0.00000000000E+00  0.45593999997E+02  0.45594000000E+02  0.51100000000E-03 0. -1.
         11   -1    0    0    0    0 -0.00000000000E+00 -0.00000000000E+00 -0.45593999997E+02  0.45594000000E+02  0.51100000000E-03 0.  1.
    9900012    2    1    2    0    0  0.17030236470E+02 -0.33577419532E+01  0.70268336381E+01  0.72461554095E+02  0.69999978898E+02 0.  0.
        -12    1    1    2    0    0 -0.17030236470E+02  0.33577419532E+01 -0.70268336381E+01  0.18726445905E+02  0.00000000000E+00 0.  1.
         11    1    3    3    0    0  0.10715091494E+02 -0.90861538709E+01  0.19247918950E+01  0.14180134061E+02  0.51100000000E-03 0. -1.
        -11    1    3    3    0    0  0.89242458476E+01 -0.11711326930E+02 -0.21684904439E+02  0.26211303348E+02  0.51100000000E-03 0.  1.
        -12    1    3    3    0    0 -0.26091008721E+01  0.17439738848E+02  0.26786946182E+02  0.32070116685E+02  0.00000000000E+00 0.  1.
</event>
<event>
 7    1  0.3509180E-013  0.7246123E+02  0.7816164E-02  0.1226709E+00
        -11   -1    0    0    0    0  0.00000000000E+00  0.00000000000E+00  0.45593999997E+02  0.45594000000E+02  0.51100000000E-03 0. -1.
         11   -1    0    0    0    0 -0.00000000000E+00 -0.00000000000E+00 -0.45593999997E+02  0.45594000000E+02  0.51100000000E-03 0.  1.
    9900012    2    1    2    0    0  0.81252403003E+01 -0.16576915734E+01  0.16790603741E+02  0.72461231852E+02  0.69999559114E+02 0.  0.
        -12    1    1    2    0    0 -0.81252403003E+01  0.16576915734E+01 -0.16790603741E+02  0.18726768148E+02  0.00000000000E+00 0.  1.
         11    1    3    3    0    0 -0.20620744319E+02 -0.54332348468E+01  0.13775320291E+02  0.25386897931E+02  0.51100000000E-03 0. -1.
        -11    1    3    3    0    0  0.21819482882E+02 -0.15216587686E+02  0.36377660724E+01  0.26848979800E+02  0.51100000000E-03 0.  1.
        -12    1    3    3    0    0  0.69265017379E+01  0.18992130959E+02 -0.62248262191E+00  0.20225354121E+02  0.00000000000E+00 0.  1.
</event>
<event>
 7    1  0.3509180E-013  0.7246154E+02  0.7816164E-02  0.1226708E+00
        -11   -1    0    0    0    0  0.00000000000E+00  0.00000000000E+00  0.45593999997E+02  0.45594000000E+02  0.51100000000E-03 0. -1.
         11   -1    0    0    0    0 -0.00000000000E+00 -0.00000000000E+00 -0.45593999997E+02  0.45594000000E+02  0.51100000000E-03 0.  1.
    9900012    2    1    2    0    0  0.16241077784E+02  0.16165597679E+00  0.93210235432E+01  0.72461542242E+02  0.69999963457E+02 0.  0.
        -12    1    1    2    0    0 -0.16241077784E+02 -0.16165597679E+00 -0.93210235432E+01  0.18726457758E+02  0.00000000000E+00 0.  1.
         11    1    3    3    0    0  0.85419589683E+01  0.43637771599E+01  0.30917703572E+02  0.32371469052E+02  0.51100000000E-03 0. -1.
        -11    1    3    3    0    0 -0.36325709218E+01  0.86829118466E+01  0.31948494329E+01  0.99395972150E+01  0.51100000000E-03 0.  1.
        -12    1    3    3    0    0  0.11331689738E+02 -0.12885033030E+02 -0.24791529462E+02  0.30150475976E+02  0.00000000000E+00 0.  1.
</event>
<event>
 7    1  0.3509180E-013  0.7246158E+02  0.7816164E-02  0.1226708E+00
        -11   -1    0    0    0    0  0.00000000000E+00  0.00000000000E+00  0.45593999997E+02  0.45594000000E+02  0.51100000000E-03 0.  1.
         11   -1    0    0    0    0 -0.00000000000E+00 -0.00000000000E+00 -0.45593999997E+02  0.45594000000E+02  0.51100000000E-03 0. -1.
    9900012    2    1    2    0    0  0.12605949828E+02  0.12052920201E+02 -0.68187974501E+01  0.72461578689E+02  0.70000010936E+02 0.  0.
        -12    1    1    2    0    0 -0.12605949828E+02 -0.12052920201E+02  0.68187974501E+01  0.18726421311E+02  0.00000000000E+00 0.  1.
         11    1    3    3    0    0 -0.11441211116E+02  0.12167342753E+02 -0.13214219844E+02  0.21296975086E+02  0.51100000000E-03 0. -1.
        -11    1    3    3    0    0  0.13243430816E+02  0.20118752044E+02  0.12899897462E+02  0.27323250143E+02  0.51100000000E-03 0.  1.
         12    1    3    3    0    0  0.10803730127E+02 -0.20233174596E+02 -0.65044750679E+01  0.23841353460E+02  0.00000000000E+00 0. -1.
</event>
<event>
 7    1  0.3509180E-013  0.7246152E+02  0.7816164E-02  0.1226708E+00
        -11   -1    0    0    0    0  0.00000000000E+00  0.00000000000E+00  0.45593999997E+02  0.45594000000E+02  0.51100000000E-03 0. -1.
         11   -1    0    0    0    0 -0.00000000000E+00 -0.00000000000E+00 -0.45593999997E+02  0.45594000000E+02  0.51100000000E-03 0.  1.
    9900012    2    1    2    0    0 -0.13201784882E+02 -0.13280953759E+02  0.10171682426E+00  0.72461515997E+02  0.69999929268E+02 0.  0.
        -12    1    1    2    0    0  0.13201784882E+02  0.13280953759E+02 -0.10171682426E+00  0.18726484003E+02  0.00000000000E+00 0.  1.
         11    1    3    3    0    0  0.46564026193E+01  0.13904623685E+02 -0.30350444765E+01  0.14974382805E+02  0.51100000000E-03 0. -1.
        -11    1    3    3    0    0 -0.55471547984E+01  0.57797187034E+01 -0.15661681041E+02  0.17591598220E+02  0.51100000000E-03 0.  1.
         12    1    3    3    0    0 -0.12311032702E+02 -0.32965296147E+02  0.18798442341E+02  0.39895534972E+02  0.00000000000E+00 0. -1.
</event>
<event>
 7    1  0.3509180E-013  0.7246156E+02  0.7816164E-02  0.1226708E+00
        -11   -1    0    0    0    0  0.00000000000E+00  0.00000000000E+00  0.45593999997E+02  0.45594000000E+02  0.51100000000E-03 0. -1.
         11   -1    0    0    0    0 -0.00000000000E+00 -0.00000000000E+00 -0.45593999997E+02  0.45594000000E+02  0.51100000000E-03 0.  1.
    9900012    2    1    2    0    0 -0.57484561523E+01  0.10524822316E+02  0.14382727187E+02  0.72461562158E+02  0.69999989401E+02 0.  0.
        -12    1    1    2    0    0  0.57484561523E+01 -0.10524822316E+02 -0.14382727187E+02  0.18726437842E+02  0.00000000000E+00 0.  1.
         11    1    3    3    0    0 -0.24822969646E+02 -0.14173817041E+02  0.13668213332E+02  0.31684333156E+02  0.51100000000E-03 0. -1.
        -11    1    3    3    0    0 -0.62943687434E+01  0.44191949834E+01  0.29146127732E+01  0.82245565265E+01  0.51100000000E-03 0.  1.
         12    1    3    3    0    0  0.25368882237E+02  0.20279444374E+02 -0.22000989185E+01  0.32552672476E+02  0.00000000000E+00 0. -1.
</event>
<event>
 7    1  0.3509180E-013  0.7246152E+02  0.7816164E-02  0.1226708E+00
        -11   -1    0    0    0    0  0.00000000000E+00  0.00000000000E+00  0.45593999997E+02  0.45594000000E+02  0.51100000000E-03 0. -1.
         11   -1    0    0    0    0 -0.00000000000E+00 -0.00000000000E+00 -0.45593999997E+02  0.45594000000E+02  0.51100000000E-03 0.  1.
    9900012    2    1    2    0    0 -0.26444997866E+01 -0.12299532878E+02 -0.13871164425E+02  0.72461519000E+02  0.69999933179E+02 0.  0.
        -12    1    1    2    0    0  0.26444997866E+01  0.12299532878E+02  0.13871164425E+02  0.18726481000E+02  0.00000000000E+00 0.  1.
         11    1    3    3    0    0 -0.58343846472E+01  0.45799202003E+01  0.16503007832E+02  0.18093230253E+02  0.51100000000E-03 0. -1.
        -11    1    3    3    0    0 -0.10070596823E+01 -0.16367033123E+02  0.62145408778E+01  0.17536090243E+02  0.51100000000E-03 0.  1.
        -12    1    3    3    0    0  0.41969445429E+01 -0.51241995563E+00 -0.36588713135E+02  0.36832198503E+02  0.00000000000E+00 0.  1.
</event>
<event>
 7    1  0.3509180E-013  0.7246169E+02  0.7816164E-02  0.1226708E+00
        -11   -1    0    0    0    0  0.00000000000E+00  0.00000000000E+00  0.45593999997E+02  0.45594000000E+02  0.51100000000E-03 0. -1.
         11   -1    0    0    0    0 -0.00000000000E+00 -0.00000000000E+00 -0.45593999997E+02  0.45594000000E+02  0.51100000000E-03 0.  1.
    9900012    2    1    2    0    0  0.11593373585E+02  0.11724270190E+02 -0.88774965744E+01  0.72461687816E+02  0.70000153094E+02 0.  0.
        -12    1    1    2    0    0 -0.11593373585E+02 -0.11724270190E+02  0.88774965744E+01  0.18726312184E+02  0.00000000000E+00 0.  1.
         11    1    3    3    0    0  0.14669882206E+02 -0.34806694048E+01 -0.24955349030E+02  0.29156302044E+02  0.51100000000E-03 0. -1.
        -11    1    3    3    0    0 -0.68664121108E+01 -0.11402865531E+02  0.60206234252E+01  0.14608930977E+02  0.51100000000E-03 0.  1.
         12    1    3    3    0    0  0.37899034902E+01  0.26607805125E+02  0.10057229030E+02  0.28696454795E+02  0.00000000000E+00 0. -1.
</event>
<event>
 7    1  0.3509180E-013  0.7246153E+02  0.7816164E-02  0.1226708E+00
        -11   -1    0    0    0    0  0.00000000000E+00  0.00000000000E+00  0.45593999997E+02  0.45594000000E+02  0.51100000000E-03 0.  1.
         11   -1    0    0    0    0 -0.00000000000E+00 -0.00000000000E+00 -0.45593999997E+02  0.45594000000E+02  0.51100000000E-03 0. -1.
    9900012    2    1    2    0    0  0.15935420554E+00 -0.12464929287E+02 -0.13974286846E+02  0.72461533468E+02  0.69999952027E+02 0.  0.
        -12    1    1    2    0    0 -0.15935420554E+00  0.12464929287E+02  0.13974286846E+02  0.18726466532E+02  0.00000000000E+00 0.  1.
         11    1    3    3    0    0 -0.13994977173E+02 -0.61607795145E+01 -0.10122610872E+02  0.18337989024E+02  0.51100000000E-03 0. -1.
        -11    1    3    3    0    0  0.16355165523E+02 -0.15299503630E+02 -0.23462941074E+02  0.32435718810E+02  0.51100000000E-03 0.  1.
        -12    1    3    3    0    0 -0.22008341447E+01  0.89953538575E+01  0.19611265100E+02  0.21687825635E+02  0.00000000000E+00 0.  1.
</event>
<event>
 7    1  0.3509180E-013  0.7246156E+02  0.7816164E-02  0.1226708E+00
        -11   -1    0    0    0    0  0.00000000000E+00  0.00000000000E+00  0.45593999997E+02  0.45594000000E+02  0.51100000000E-03 0.  1.
         11   -1    0    0    0    0 -0.00000000000E+00 -0.00000000000E+00 -0.45593999997E+02  0.45594000000E+02  0.51100000000E-03 0. -1.
    9900012    2    1    2    0    0  0.59273997729E+01 -0.10000139689E+02 -0.14681374535E+02  0.72461558263E+02  0.69999984327E+02 0.  0.
        -12    1    1    2    0    0 -0.59273997729E+01  0.10000139689E+02  0.14681374535E+02  0.18726441737E+02  0.00000000000E+00 0.  1.
         11    1    3    3    0    0 -0.24668979858E+02  0.48161008228E+01 -0.11633013686E+02  0.27696216385E+02  0.51100000000E-03 0. -1.
        -11    1    3    3    0    0  0.16835551493E+01  0.77775470702E+01 -0.90652017024E+00  0.80091432407E+01  0.51100000000E-03 0.  1.
        -12    1    3    3    0    0  0.28912824481E+02 -0.22593787582E+02 -0.21418406788E+01  0.36756198638E+02  0.00000000000E+00 0.  1.
</event>
<event>
 7    1  0.3509180E-013  0.7246158E+02  0.7816164E-02  0.1226708E+00
        -11   -1    0    0    0    0  0.00000000000E+00  0.00000000000E+00  0.45593999997E+02  0.45594000000E+02  0.51100000000E-03 0. -1.
         11   -1    0    0    0    0 -0.00000000000E+00 -0.00000000000E+00 -0.45593999997E+02  0.45594000000E+02  0.51100000000E-03 0.  1.
    9900012    2    1    2    0    0  0.61932303650E+01  0.59571978324E+01  0.16638344447E+02  0.72461579779E+02  0.70000012355E+02 0.  0.
        -12    1    1    2    0    0 -0.61932303650E+01 -0.59571978324E+01 -0.16638344447E+02  0.18726420221E+02  0.00000000000E+00 0.  1.
         11    1    3    3    0    0 -0.15680332194E+02  0.13570458303E+02 -0.13250167633E+01  0.20779456825E+02  0.51100000000E-03 0. -1.
        -11    1    3    3    0    0  0.12558788743E+00  0.33060880092E+01 -0.12363569733E+02  0.12798587698E+02  0.51100000000E-03 0.  1.
         12    1    3    3    0    0  0.21747974671E+02 -0.10919348480E+02  0.30326930944E+02  0.38883535256E+02  0.00000000000E+00 0. -1.
</event>
<event>
 7    1  0.3509180E-013  0.7246157E+02  0.7816164E-02  0.1226708E+00
        -11   -1    0    0    0    0  0.00000000000E+00  0.00000000000E+00  0.45593999997E+02  0.45594000000E+02  0.51100000000E-03 0.  1.
         11   -1    0    0    0    0 -0.00000000000E+00 -0.00000000000E+00 -0.45593999997E+02  0.45594000000E+02  0.51100000000E-03 0. -1.
    9900012    2    1    2    0    0 -0.42734123536E+01  0.18230359626E+02 -0.26662732452E+00  0.72461570672E+02  0.70000000492E+02 0.  0.
        -12    1    1    2    0    0  0.42734123536E+01 -0.18230359626E+02  0.26662732452E+00  0.18726429328E+02  0.00000000000E+00 0.  1.
         11    1    3    3    0    0  0.92859069519E+01  0.67366903233E+01 -0.16723115949E+02  0.20279883425E+02  0.51100000000E-03 0. -1.
        -11    1    3    3    0    0  0.17094021656E+02  0.16549784912E+01  0.37983294404E+01  0.17588969185E+02  0.51100000000E-03 0.  1.
        -12    1    3    3    0    0 -0.30653340962E+02  0.98386908117E+01  0.12658159184E+02  0.34592718062E+02  0.00000000000E+00 0.  1.
</event>
<event>
 7    1  0.3509180E-013  0.7246161E+02  0.7816164E-02  0.1226708E+00
        -11   -1    0    0    0    0  0.00000000000E+00  0.00000000000E+00  0.45593999997E+02  0.45594000000E+02  0.51100000000E-03 0. -1.
         11   -1    0    0    0    0 -0.00000000000E+00 -0.00000000000E+00 -0.45593999997E+02  0.45594000000E+02  0.51100000000E-03 0.  1.
    9900012    2    1    2    0    0 -0.10907548091E+02 -0.13975882105E+02  0.60314108778E+01  0.72461606777E+02  0.70000047526E+02 0.  0.
        -12    1    1    2    0    0  0.10907548091E+02  0.13975882105E+02 -0.60314108778E+01  0.18726393223E+02  0.00000000000E+00 0.  1.
         11    1    3    3    0    0  0.40481478291E+01 -0.19861109519E+01  0.24637912597E+02  0.25047133068E+02  0.51100000000E-03 0. -1.
        -11    1    3    3    0    0 -0.91228673727E+01 -0.19349369744E+02  0.50345475935E+01  0.21976612303E+02  0.51100000000E-03 0.  1.
        -12    1    3    3    0    0 -0.58328285472E+01  0.73595985911E+01 -0.23641049313E+02  0.25437861406E+02  0.00000000000E+00 0.  1.
</event>
<event>
 7    1  0.3509180E-013  0.7246158E+02  0.7816164E-02  0.1226708E+00
        -11   -1    0    0    0    0  0.00000000000E+00  0.00000000000E+00  0.45593999997E+02  0.45594000000E+02  0.51100000000E-03 0.  1.
         11   -1    0    0    0    0 -0.00000000000E+00 -0.00000000000E+00 -0.45593999997E+02  0.45594000000E+02  0.51100000000E-03 0. -1.
    9900012    2    1    2    0    0 -0.30472691758E+01 -0.18461031770E+02 -0.76383322064E+00  0.72461575231E+02  0.70000006431E+02 0.  0.
        -12    1    1    2    0    0  0.30472691758E+01  0.18461031770E+02  0.76383322064E+00  0.18726424769E+02  0.00000000000E+00 0.  1.
         11    1    3    3    0    0  0.70299222443E+01 -0.87118637458E+01 -0.95848833157E+01  0.14737244150E+02  0.51100000000E-03 0. -1.
        -11    1    3    3    0    0 -0.29880099211E+02 -0.18664706601E+02  0.71005392388E+01  0.35938965749E+02  0.51100000000E-03 0.  1.
         12    1    3    3    0    0  0.19802907791E+02  0.89155385771E+01  0.17205108563E+01  0.21785365333E+02  0.00000000000E+00 0. -1.
</event>
<event>
 7    1  0.3509180E-013  0.7246157E+02  0.7816164E-02  0.1226708E+00
        -11   -1    0    0    0    0  0.00000000000E+00  0.00000000000E+00  0.45593999997E+02  0.45594000000E+02  0.51100000000E-03 0.  1.
         11   -1    0    0    0    0 -0.00000000000E+00 -0.00000000000E+00 -0.45593999997E+02  0.45594000000E+02  0.51100000000E-03 0. -1.
    9900012    2    1    2    0    0  0.16712455656E+02  0.39379183547E+01 -0.74743391552E+01  0.72461571594E+02  0.70000001694E+02 0.  0.
        -12    1    1    2    0    0 -0.16712455656E+02 -0.39379183547E+01  0.74743391552E+01  0.18726428406E+02  0.00000000000E+00 0.  1.
         11    1    3    3    0    0  0.13604039893E+02  0.28556832346E+02 -0.17004218166E+02  0.35912477090E+02  0.51100000000E-03 0. -1.
        -11    1    3    3    0    0 -0.75394009653E+01 -0.19282814263E+01 -0.32271448880E+01  0.84246840038E+01  0.51100000000E-03 0.  1.
        -12    1    3    3    0    0  0.10647816728E+02 -0.22690632565E+02  0.12757023899E+02  0.28124410501E+02  0.00000000000E+00 0.  1.
</event>
<event>
 7    1  0.3509180E-013  0.7246152E+02  0.7816164E-02  0.1226708E+00
        -11   -1    0    0    0    0  0.00000000000E+00  0.00000000000E+00  0.45593999997E+02  0.45594000000E+02  0.51100000000E-03 0.  1.
         11   -1    0    0    0    0 -0.00000000000E+00 -0.00000000000E+00 -0.45593999997E+02  0.45594000000E+02  0.51100000000E-03 0. -1.
    9900012    2    1    2    0    0 -0.14705418473E+02 -0.19343313064E+01 -0.11431969284E+02  0.72461524309E+02  0.69999940096E+02 0.  0.
        -12    1    1    2    0    0  0.14705418473E+02  0.19343313064E+01  0.11431969284E+02  0.18726475691E+02  0.00000000000E+00 0.  1.
         11    1    3    3    0    0 -0.30939846683E+02 -0.63105007242E+01  0.77792784170E+01  0.32520973311E+02  0.51100000000E-03 0. -1.
        -11    1    3    3    0    0 -0.11917475899E+01 -0.38736504718E+01  0.65868531016E+01  0.77338259833E+01  0.51100000000E-03 0.  1.
        -12    1    3    3    0    0  0.17426175799E+02  0.82498198897E+01 -0.25798100802E+02  0.32206725015E+02  0.00000000000E+00 0.  1.
</event>
<event>
 7    1  0.3509180E-013  0.7246163E+02  0.7816164E-02  0.1226708E+00
        -11   -1    0    0    0    0  0.00000000000E+00  0.00000000000E+00  0.45593999997E+02  0.45594000000E+02  0.51100000000E-03 0.  1.
         11   -1    0    0    0    0 -0.00000000000E+00 -0.00000000000E+00 -0.45593999997E+02  0.45594000000E+02  0.51100000000E-03 0. -1.
    9900012    2    1    2    0    0  0.42476975244E+01 -0.59004970583E+01 -0.17257408003E+02  0.72461630070E+02  0.70000077869E+02 0.  0.
        -12    1    1    2    0    0 -0.42476975244E+01  0.59004970583E+01  0.17257408003E+02  0.18726369930E+02  0.00000000000E+00 0.  1.
         11    1    3    3    0    0 -0.11986156377E+02 -0.61479371735E+01  0.14449482258E+02  0.19754812426E+02  0.51100000000E-03 0.  1.
        -11    1    3    3    0    0 -0.10621786898E+02  0.45204309509E+01 -0.20017261694E+02  0.23107302285E+02  0.51100000000E-03 0. -1.
         12    1    3    3    0    0  0.26855640800E+02 -0.42729908358E+01 -0.11689628567E+02  0.29599515359E+02  0.00000000000E+00 0. -1.
</event>
<event>
 7    1  0.3509180E-013  0.7246157E+02  0.7816164E-02  0.1226708E+00
        -11   -1    0    0    0    0  0.00000000000E+00  0.00000000000E+00  0.45593999997E+02  0.45594000000E+02  0.51100000000E-03 0. -1.
         11   -1    0    0    0    0 -0.00000000000E+00 -0.00000000000E+00 -0.45593999997E+02  0.45594000000E+02  0.51100000000E-03 0.  1.
    9900012    2    1    2    0    0 -0.47078001219E+00 -0.15650287767E+02  0.10272591471E+02  0.72461567437E+02  0.69999996278E+02 0.  0.
        -12    1    1    2    0    0  0.47078001219E+00  0.15650287767E+02 -0.10272591471E+02  0.18726432563E+02  0.00000000000E+00 0.  1.
         11    1    3    3    0    0 -0.65566108681E+01 -0.25528849839E+02 -0.24103515611E+01  0.26467359428E+02  0.51100000000E-03 0. -1.
        -11    1    3    3    0    0  0.18993362424E+02  0.50436405034E+01 -0.79351871828E+01  0.21193237638E+02  0.51100000000E-03 0.  1.
        -12    1    3    3    0    0 -0.12907531568E+02  0.48349215691E+01  0.20618130215E+02  0.24800970371E+02  0.00000000000E+00 0.  1.
</event>
<event>
 7    1  0.3509180E-013  0.7246140E+02  0.7816164E-02  0.1226708E+00
        -11   -1    0    0    0    0  0.00000000000E+00  0.00000000000E+00  0.45593999997E+02  0.45594000000E+02  0.51100000000E-03 0.  1.
         11   -1    0    0    0    0 -0.00000000000E+00 -0.00000000000E+00 -0.45593999997E+02  0.45594000000E+02  0.51100000000E-03 0. -1.
    9900012    2    1    2    0    0  0.27570915946E+01 -0.97666188656E+01 -0.15738399401E+02  0.72461398230E+02  0.69999775854E+02 0.  0.
        -12    1    1    2    0    0 -0.27570915946E+01  0.97666188656E+01  0.15738399401E+02  0.18726601770E+02  0.00000000000E+00 0.  1.
         11    1    3    3    0    0  0.10518664165E+02  0.37325252198E+01 -0.13988801151E+02  0.17895826280E+02  0.51100000000E-03 0. -1.
        -11    1    3    3    0    0  0.15235076247E+02 -0.23363996071E+02 -0.75145081212E+01  0.28886877526E+02  0.51100000000E-03 0.  1.
        -12    1    3    3    0    0 -0.22996648817E+02  0.98648519854E+01  0.57649098707E+01  0.25678694424E+02  0.00000000000E+00 0.  1.
</event>
<event>
 7    1  0.3509180E-013  0.7246158E+02  0.7816164E-02  0.1226708E+00
        -11   -1    0    0    0    0  0.00000000000E+00  0.00000000000E+00  0.45593999997E+02  0.45594000000E+02  0.51100000000E-03 0. -1.
         11   -1    0    0    0    0 -0.00000000000E+00 -0.00000000000E+00 -0.45593999997E+02  0.45594000000E+02  0.51100000000E-03 0.  1.
    9900012    2    1    2    0    0  0.19759730954E+01  0.15446917670E+02  0.10400345740E+02  0.72461576778E+02  0.70000008446E+02 0.  0.
        -12    1    1    2    0    0 -0.19759730954E+01 -0.15446917670E+02 -0.10400345740E+02  0.18726423222E+02  0.00000000000E+00 0.  1.
         11    1    3    3    0    0  0.18276089312E+02  0.56862077656E+01 -0.13382340861E+02  0.23354559437E+02  0.51100000000E-03 0. -1.
        -11    1    3    3    0    0  0.66504110687E+01 -0.45797181406E+01 -0.50813393883E+01  0.95405343598E+01  0.51100000000E-03 0.  1.
         12    1    3    3    0    0 -0.22950527286E+02  0.14340428045E+02  0.28864025989E+02  0.39566482981E+02  0.00000000000E+00 0. -1.
</event>
<event>
 7    1  0.3509180E-013  0.7246162E+02  0.7816164E-02  0.1226708E+00
        -11   -1    0    0    0    0  0.00000000000E+00  0.00000000000E+00  0.45593999997E+02  0.45594000000E+02  0.51100000000E-03 0. -1.
         11   -1    0    0    0    0 -0.00000000000E+00 -0.00000000000E+00 -0.45593999997E+02  0.45594000000E+02  0.51100000000E-03 0.  1.
    9900012    2    1    2    0    0  0.18096818468E+02 -0.41627456596E-01  0.48146345527E+01  0.72461620815E+02  0.70000065813E+02 0.  0.
        -12    1    1    2    0    0 -0.18096818468E+02  0.41627456596E-01 -0.48146345527E+01  0.18726379185E+02  0.00000000000E+00 0.  1.
         11    1    3    3    0    0  0.21499459510E+02 -0.16647298537E+02 -0.12263116837E+02  0.29828565883E+02  0.51100000000E-03 0. -1.
        -11    1    3    3    0    0 -0.12114238794E+02  0.15816422863E+02 -0.35415686524E+01  0.20235037003E+02  0.51100000000E-03 0.  1.
        -12    1    3    3    0    0  0.87115977516E+01  0.78924821717E+00  0.20619320042E+02  0.22398017929E+02  0.00000000000E+00 0.  1.
</event>
<event>
 7    1  0.3509180E-013  0.7246156E+02  0.7816164E-02  0.1226708E+00
        -11   -1    0    0    0    0  0.00000000000E+00  0.00000000000E+00  0.45593999997E+02  0.45594000000E+02  0.51100000000E-03 0.  1.
         11   -1    0    0    0    0 -0.00000000000E+00 -0.00000000000E+00 -0.45593999997E+02  0.45594000000E+02  0.51100000000E-03 0. -1.
    9900012    2    1    2    0    0  0.16168869182E+02 -0.43985883590E+01  0.83605988529E+01  0.72461560846E+02  0.69999987692E+02 0.  0.
        -12    1    1    2    0    0 -0.16168869182E+02  0.43985883590E+01 -0.83605988529E+01  0.18726439154E+02  0.00000000000E+00 0.  1.
         11    1    3    3    0    0  0.16710689508E+01  0.14362996165E+01  0.14247574408E+01  0.26239973424E+01  0.51100000000E-03 0. -1.
        -11    1    3    3    0    0  0.28481477086E+02  0.22534952772E+02 -0.36088911942E+01  0.36497160565E+02  0.51100000000E-03 0.  1.
         12    1    3    3    0    0 -0.13983676854E+02 -0.28369840747E+02  0.10544732606E+02  0.33340402939E+02  0.00000000000E+00 0. -1.
</event>
<event>
 7    1  0.3509180E-013  0.7246159E+02  0.7816164E-02  0.1226708E+00
        -11   -1    0    0    0    0  0.00000000000E+00  0.00000000000E+00  0.45593999997E+02  0.45594000000E+02  0.51100000000E-03 0.  1.
         11   -1    0    0    0    0 -0.00000000000E+00 -0.00000000000E+00 -0.45593999997E+02  0.45594000000E+02  0.51100000000E-03 0. -1.
    9900012    2    1    2    0    0 -0.12973682439E+02 -0.10266366364E+02 -0.87728911090E+01  0.72461592636E+02  0.70000029105E+02 0.  0.
        -12    1    1    2    0    0  0.12973682439E+02  0.10266366364E+02  0.87728911090E+01  0.18726407364E+02  0.00000000000E+00 0.  1.
         11    1    3    3    0    0  0.35801188700E+01  0.13598972651E+02  0.12451947742E+02  0.18782979293E+02  0.51100000000E-03 0. -1.
        -11    1    3    3    0    0 -0.41756161173E+01 -0.21487282740E+02  0.68236097245E+01  0.22928164764E+02  0.51100000000E-03 0.  1.
        -12    1    3    3    0    0 -0.12378185192E+02 -0.23780562743E+01 -0.28048448576E+02  0.30750448579E+02  0.00000000000E+00 0.  1.
</event>
<event>
 7    1  0.3509180E-013  0.7246154E+02  0.7816164E-02  0.1226708E+00
        -11   -1    0    0    0    0  0.00000000000E+00  0.00000000000E+00  0.45593999997E+02  0.45594000000E+02  0.51100000000E-03 0. -1.
         11   -1    0    0    0    0 -0.00000000000E+00 -0.00000000000E+00 -0.45593999997E+02  0.45594000000E+02  0.51100000000E-03 0.  1.
    9900012    2    1    2    0    0  0.88667363399E+01  0.96236180065E+01  0.13395799045E+02  0.72461535600E+02  0.69999954805E+02 0.  0.
        -12    1    1    2    0    0 -0.88667363399E+01 -0.96236180065E+01 -0.13395799045E+02  0.18726464400E+02  0.00000000000E+00 0.  1.
         11    1    3    3    0    0  0.20232968695E+02  0.31675645967E+01  0.52319331432E+01  0.21137161880E+02  0.51100000000E-03 0. -1.
        -11    1    3    3    0    0  0.99680703620E+01  0.95764543401E+01 -0.14506732210E+02  0.20037868752E+02  0.51100000000E-03 0.  1.
         12    1    3    3    0    0 -0.21334302717E+02 -0.31204009303E+01  0.22670598111E+02  0.31286504968E+02  0.00000000000E+00 0. -1.
</event>
<event>
 7    1  0.3509180E-013  0.7246142E+02  0.7816164E-02  0.1226708E+00
        -11   -1    0    0    0    0  0.00000000000E+00  0.00000000000E+00  0.45593999997E+02  0.45594000000E+02  0.51100000000E-03 0.  1.
         11   -1    0    0    0    0 -0.00000000000E+00 -0.00000000000E+00 -0.45593999997E+02  0.45594000000E+02  0.51100000000E-03 0. -1.
    9900012    2    1    2    0    0 -0.16877699205E+02  0.38444197687E+01 -0.71448346300E+01  0.72461415803E+02  0.69999798745E+02 0.  0.
        -12    1    1    2    0    0  0.16877699205E+02 -0.38444197687E+01  0.71448346300E+01  0.18726584197E+02  0.00000000000E+00 0.  1.
         11    1    3    3    0    0 -0.56632498711E+01  0.17266697349E+02 -0.15507610605E+02  0.23889270047E+02  0.51100000000E-03 0. -1.
        -11    1    3    3    0    0  0.54021995822E+01  0.43701165633E+01  0.20301208922E+02  0.21457417437E+02  0.51100000000E-03 0.  1.
         12    1    3    3    0    0 -0.16616648916E+02 -0.17792394144E+02 -0.11938432947E+02  0.27114728319E+02  0.00000000000E+00 0. -1.
</event>
<event>
 7    1  0.3509180E-013  0.7246166E+02  0.7816164E-02  0.1226708E+00
        -11   -1    0    0    0    0  0.00000000000E+00  0.00000000000E+00  0.45593999997E+02  0.45594000000E+02  0.51100000000E-03 0. -1.
         11   -1    0    0    0    0 -0.00000000000E+00 -0.00000000000E+00 -0.45593999997E+02  0.45594000000E+02  0.51100000000E-03 0.  1.
    9900012    2    1    2    0    0 -0.14767033315E+02  0.63575721410E+01 -0.96016638510E+01  0.72461656386E+02  0.70000112150E+02 0.  0.
        -12    1    1    2    0    0  0.14767033315E+02 -0.63575721410E+01  0.96016638510E+01  0.18726343614E+02  0.00000000000E+00 0.  1.
         11    1    3    3    0    0  0.68538346015E+01 -0.90680490688E+01  0.60152957334E+01  0.12860340030E+02  0.51100000000E-03 0. -1.
        -11    1    3    3    0    0  0.99663758064E+01 -0.47373165182E+01  0.94400749392E+01  0.14521908608E+02  0.51100000000E-03 0.  1.
        -12    1    3    3    0    0 -0.31587243722E+02  0.20162937728E+02 -0.25057034524E+02  0.45079407748E+02  0.00000000000E+00 0.  1.
</event>
<event>
 7    1  0.3509180E-013  0.7246158E+02  0.7816164E-02  0.1226708E+00
        -11   -1    0    0    0    0  0.00000000000E+00  0.00000000000E+00  0.45593999997E+02  0.45594000000E+02  0.51100000000E-03 0. -1.
         11   -1    0    0    0    0 -0.00000000000E+00 -0.00000000000E+00 -0.45593999997E+02  0.45594000000E+02  0.51100000000E-03 0.  1.
    9900012    2    1    2    0    0 -0.12990074088E+02 -0.13428865196E+02 -0.12657701719E+01  0.72461584983E+02  0.70000019135E+02 0.  0.
        -12    1    1    2    0    0  0.12990074088E+02  0.13428865196E+02  0.12657701719E+01  0.18726415017E+02  0.00000000000E+00 0.  1.
         11    1    3    3    0    0  0.10591648130E+02  0.86267573902E+01 -0.37140556430E+01  0.14156205804E+02  0.51100000000E-03 0. -1.
        -11    1    3    3    0    0  0.14072984624E+02 -0.13787152736E+02  0.98824987172E+00  0.19725899596E+02  0.51100000000E-03 0.  1.
         12    1    3    3    0    0 -0.37654706842E+02 -0.82684698506E+01  0.14600355993E+01  0.38579479584E+02  0.00000000000E+00 0. -1.
</event>
<event>
 7    1  0.3509180E-013  0.7246155E+02  0.7816164E-02  0.1226708E+00
        -11   -1    0    0    0    0  0.00000000000E+00  0.00000000000E+00  0.45593999997E+02  0.45594000000E+02  0.51100000000E-03 0.  1.
         11   -1    0    0    0    0 -0.00000000000E+00 -0.00000000000E+00 -0.45593999997E+02  0.45594000000E+02  0.51100000000E-03 0. -1.
    9900012    2    1    2    0    0  0.12988336009E+02  0.12128540456E+02 -0.59060510291E+01  0.72461553337E+02  0.69999977910E+02 0.  0.
        -12    1    1    2    0    0 -0.12988336009E+02 -0.12128540456E+02  0.59060510291E+01  0.18726446663E+02  0.00000000000E+00 0.  1.
         11    1    3    3    0    0  0.18508520222E+02 -0.15869975095E+02  0.31839433232E+01  0.24587780007E+02  0.51100000000E-03 0. -1.
        -11    1    3    3    0    0  0.16013417482E+02  0.97610259665E+01 -0.44706177343E+01  0.19279356591E+02  0.51100000000E-03 0.  1.
        -12    1    3    3    0    0 -0.21533601695E+02  0.18237489584E+02 -0.46193766180E+01  0.28594416739E+02  0.00000000000E+00 0.  1.
</event>
<event>
 7    1  0.3509180E-013  0.7246157E+02  0.7816164E-02  0.1226708E+00
        -11   -1    0    0    0    0  0.00000000000E+00  0.00000000000E+00  0.45593999997E+02  0.45594000000E+02  0.51100000000E-03 0.  1.
         11   -1    0    0    0    0 -0.00000000000E+00 -0.00000000000E+00 -0.45593999997E+02  0.45594000000E+02  0.51100000000E-03 0. -1.
    9900012    2    1    2    0    0  0.54951645791E+01 -0.17086126455E+02 -0.53429145775E+01  0.72461567154E+02  0.69999995909E+02 0.  0.
        -12    1    1    2    0    0 -0.54951645791E+01  0.17086126455E+02  0.53429145775E+01  0.18726432846E+02  0.00000000000E+00 0.  1.
         11    1    3    3    0    0  0.75534281399E+01 -0.19875769666E+02  0.20420779160E+02  0.29480649895E+02  0.51100000000E-03 0. -1.
        -11    1    3    3    0    0 -0.11545793059E+02 -0.89344221737E+01 -0.18600510674E+01  0.14716963925E+02  0.51100000000E-03 0.  1.
        -12    1    3    3    0    0  0.94875294980E+01  0.11724065385E+02 -0.23903642670E+02  0.28263953333E+02  0.00000000000E+00 0.  1.
</event>
<event>
 7    1  0.3509180E-013  0.7246156E+02  0.7816164E-02  0.1226708E+00
        -11   -1    0    0    0    0  0.00000000000E+00  0.00000000000E+00  0.45593999997E+02  0.45594000000E+02  0.51100000000E-03 0. -1.
         11   -1    0    0    0    0 -0.00000000000E+00 -0.00000000000E+00 -0.45593999997E+02  0.45594000000E+02  0.51100000000E-03 0.  1.
    9900012    2    1    2    0    0 -0.38335308064E+01  0.40706659566E+01  0.17872136268E+02  0.72461560548E+02  0.69999987304E+02 0.  0.
        -12    1    1    2    0    0  0.38335308064E+01 -0.40706659566E+01 -0.17872136268E+02  0.18726439452E+02  0.00000000000E+00 0.  1.
         11    1    3    3    0    0  0.88606989022E+01  0.23340890106E+02  0.22582428171E+02  0.33664153016E+02  0.51100000000E-03 0. -1.
        -11    1    3    3    0    0  0.55162059607E+01 -0.15920855790E+02  0.54095409983E+01  0.17696477372E+02  0.51100000000E-03 0.  1.
        -12    1    3    3    0    0 -0.18210435669E+02 -0.33493683586E+01 -0.10119832901E+02  0.21100930160E+02  0.00000000000E+00 0.  1.
</event>
<event>
 7    1  0.3509180E-013  0.7246146E+02  0.7816164E-02  0.1226708E+00
        -11   -1    0    0    0    0  0.00000000000E+00  0.00000000000E+00  0.45593999997E+02  0.45594000000E+02  0.51100000000E-03 0.  1.
         11   -1    0    0    0    0 -0.00000000000E+00 -0.00000000000E+00 -0.45593999997E+02  0.45594000000E+02  0.51100000000E-03 0. -1.
    9900012    2    1    2    0    0  0.11942362262E+02  0.25615847063E+01  0.14195122156E+02  0.72461461996E+02  0.69999858921E+02 0.  0.
        -12    1    1    2    0    0 -0.11942362262E+02 -0.25615847063E+01 -0.14195122156E+02  0.18726538004E+02  0.00000000000E+00 0.  1.
         11    1    3    3    0    0  0.16973651040E+02 -0.35305793103E+01 -0.10511333342E+02  0.20274564084E+02  0.51100000000E-03 0. -1.
        -11    1    3    3    0    0  0.46353028970E+01 -0.17023109499E+02  0.20042166421E+02  0.26701324407E+02  0.51100000000E-03 0.  1.
         12    1    3    3    0    0 -0.96665916753E+01  0.23115273515E+02  0.46642890767E+01  0.25485573505E+02  0.00000000000E+00 0. -1.
</event>
<event>
 7    1  0.3865885E-013  0.7246155E+02  0.7816164E-02  0.1226708E+00
        -11   -1    0    0    0    0  0.00000000000E+00  0.00000000000E+00  0.45593999997E+02  0.45594000000E+02  0.51100000000E-03 0. -1.
         11   -1    0    0    0    0 -0.00000000000E+00 -0.00000000000E+00 -0.45593999997E+02  0.45594000000E+02  0.51100000000E-03 0.  1.
    9900012    2    1    2    0    0 -0.44054123235E+01  0.17820027088E+02  0.37038873226E+01  0.72461553342E+02  0.69999977916E+02 0.  0.
        -12    1    1    2    0    0  0.44054123235E+01 -0.17820027088E+02 -0.37038873226E+01  0.18726446658E+02  0.00000000000E+00 0.  1.
         11    1    3    3    0    0 -0.17348039775E+02  0.10142431434E+02  0.14808702632E+02  0.24962393182E+02  0.51100000000E-03 0. -1.
        -11    1    3    3    0    0 -0.10536912625E+02  0.11942741374E+02 -0.16606514282E+02  0.23009387564E+02  0.51100000000E-03 0.  1.
         12    1    3    3    0    0  0.23479540077E+02 -0.42651457202E+01  0.55016989723E+01  0.24489772596E+02  0.00000000000E+00 0. -1.
</event>
<event>
 7    1  0.3509180E-013  0.7246168E+02  0.7816164E-02  0.1226708E+00
        -11   -1    0    0    0    0  0.00000000000E+00  0.00000000000E+00  0.45593999997E+02  0.45594000000E+02  0.51100000000E-03 0.  1.
         11   -1    0    0    0    0 -0.00000000000E+00 -0.00000000000E+00 -0.45593999997E+02  0.45594000000E+02  0.51100000000E-03 0. -1.
    9900012    2    1    2    0    0 -0.16603762673E+02 -0.59861169960E+01 -0.62575090605E+01  0.72461682924E+02  0.70000146720E+02 0.  0.
        -12    1    1    2    0    0  0.16603762673E+02  0.59861169960E+01  0.62575090605E+01  0.18726317076E+02  0.00000000000E+00 0.  1.
         11    1    3    3    0    0  0.10804795635E+01 -0.19179656004E+02 -0.11393925153E+02  0.22334909249E+02  0.51100000000E-03 0. -1.
        -11    1    3    3    0    0 -0.18458042218E+02 -0.90743002778E+01 -0.10317529406E+02  0.23010729266E+02  0.51100000000E-03 0.  1.
         12    1    3    3    0    0  0.77379998141E+00  0.22267839285E+02  0.15453945499E+02  0.27116044408E+02  0.00000000000E+00 0. -1.
</event>
<event>
 7    1  0.3509180E-013  0.7246157E+02  0.7816164E-02  0.1226708E+00
        -11   -1    0    0    0    0  0.00000000000E+00  0.00000000000E+00  0.45593999997E+02  0.45594000000E+02  0.51100000000E-03 0. -1.
         11   -1    0    0    0    0 -0.00000000000E+00 -0.00000000000E+00 -0.45593999997E+02  0.45594000000E+02  0.51100000000E-03 0.  1.
    9900012    2    1    2    0    0 -0.17212387341E+02 -0.18986929350E+01  0.71279749174E+01  0.72461565763E+02  0.69999994097E+02 0.  0.
        -12    1    1    2    0    0  0.17212387341E+02  0.18986929350E+01 -0.71279749174E+01  0.18726434237E+02  0.00000000000E+00 0.  1.
         11    1    3    3    0    0  0.46538435130E+00 -0.51807288662E+01  0.82969568470E+01  0.97926517022E+01  0.51100000000E-03 0. -1.
        -11    1    3    3    0    0 -0.30073545017E+02 -0.18161797051E+02 -0.97429485884E+01  0.36458113356E+02  0.51100000000E-03 0.  1.
        -12    1    3    3    0    0  0.12395773325E+02  0.21443832982E+02  0.85739666589E+01  0.26210800704E+02  0.00000000000E+00 0.  1.
</event>
<event>
 7    1  0.3509180E-013  0.7246151E+02  0.7816164E-02  0.1226708E+00
        -11   -1    0    0    0    0  0.00000000000E+00  0.00000000000E+00  0.45593999997E+02  0.45594000000E+02  0.51100000000E-03 0.  1.
         11   -1    0    0    0    0 -0.00000000000E+00 -0.00000000000E+00 -0.45593999997E+02  0.45594000000E+02  0.51100000000E-03 0. -1.
    9900012    2    1    2    0    0 -0.18364605953E+02  0.15792689741E+01 -0.33058329648E+01  0.72461511437E+02  0.69999923327E+02 0.  0.
        -12    1    1    2    0    0  0.18364605953E+02 -0.15792689741E+01  0.33058329648E+01  0.18726488563E+02  0.00000000000E+00 0.  1.
         11    1    3    3    0    0 -0.14411716367E+02  0.19373211041E+02  0.19288299076E+02  0.30904002268E+02  0.51100000000E-03 0. -1.
        -11    1    3    3    0    0 -0.48853752167E+01 -0.77520790253E+01  0.61898887030E+01  0.11057863385E+02  0.51100000000E-03 0.  1.
        -12    1    3    3    0    0  0.93248563036E+00 -0.10041863042E+02 -0.28784020743E+02  0.30499645784E+02  0.00000000000E+00 0.  1.
</event>
<event>
 7    1  0.3509180E-013  0.7246154E+02  0.7816164E-02  0.1226708E+00
        -11   -1    0    0    0    0  0.00000000000E+00  0.00000000000E+00  0.45593999997E+02  0.45594000000E+02  0.51100000000E-03 0. -1.
         11   -1    0    0    0    0 -0.00000000000E+00 -0.00000000000E+00 -0.45593999997E+02  0.45594000000E+02  0.51100000000E-03 0.  1.
    9900012    2    1    2    0    0  0.12438760474E+02  0.49236139456E+01  0.13104030802E+02  0.72461538517E+02  0.69999958604E+02 0.  0.
        -12    1    1    2    0    0 -0.12438760474E+02 -0.49236139456E+01 -0.13104030802E+02  0.18726461483E+02  0.00000000000E+00 0.  1.
         11    1    3    3    0    0  0.13968732821E+02  0.42248288545E+01  0.15142525019E+02  0.21030233942E+02  0.51100000000E-03 0. -1.
        -11    1    3    3    0    0  0.84722175398E+01  0.13039572742E+02 -0.21358306157E+02  0.26419427880E+02  0.51100000000E-03 0.  1.
         12    1    3    3    0    0 -0.10002189886E+02 -0.12340787651E+02  0.19319811941E+02  0.25011876694E+02  0.00000000000E+00 0. -1.
</event>
<event>
 7    1  0.3509180E-013  0.7246160E+02  0.7816164E-02  0.1226708E+00
        -11   -1    0    0    0    0  0.00000000000E+00  0.00000000000E+00  0.45593999997E+02  0.45594000000E+02  0.51100000000E-03 0. -1.
         11   -1    0    0    0    0 -0.00000000000E+00 -0.00000000000E+00 -0.45593999997E+02  0.45594000000E+02  0.51100000000E-03 0.  1.
    9900012    2    1    2    0    0  0.16952559800E+02 -0.33856937240E+01  0.71990239614E+01  0.72461597468E+02  0.70000035399E+02 0.  0.
        -12    1    1    2    0    0 -0.16952559800E+02  0.33856937240E+01 -0.71990239614E+01  0.18726402532E+02  0.00000000000E+00 0.  1.
         11    1    3    3    0    0 -0.10741464302E+02  0.14584858779E+02  0.15272701528E+02  0.23692880221E+02  0.51100000000E-03 0. -1.
        -11    1    3    3    0    0  0.98844075662E+01 -0.23754324444E+02  0.46284609127E+01  0.26141769133E+02  0.51100000000E-03 0.  1.
         12    1    3    3    0    0  0.17809616536E+02  0.57837719415E+01 -0.12702138479E+02  0.22626948114E+02  0.00000000000E+00 0. -1.
</event>
<event>
 7    1  0.3509180E-013  0.7246203E+02  0.7816164E-02  0.1226707E+00
        -11   -1    0    0    0    0  0.00000000000E+00  0.00000000000E+00  0.45593999997E+02  0.45594000000E+02  0.51100000000E-03 0.  1.
         11   -1    0    0    0    0 -0.00000000000E+00 -0.00000000000E+00 -0.45593999997E+02  0.45594000000E+02  0.51100000000E-03 0. -1.
    9900012    2    1    2    0    0 -0.91614850505E+01 -0.11631378780E+01 -0.16290371360E+02  0.72462031477E+02  0.70000600774E+02 0.  0.
        -12    1    1    2    0    0  0.91614850505E+01  0.11631378780E+01  0.16290371360E+02  0.18725968523E+02  0.00000000000E+00 0.  1.
         11    1    3    3    0    0 -0.28381717561E+02  0.82740843225E+01 -0.16441691422E+02  0.33827674768E+02  0.51100000000E-03 0. -1.
        -11    1    3    3    0    0 -0.89566379329E+01 -0.25664312840E+00  0.76812261731E+00  0.89931774904E+01  0.51100000000E-03 0.  1.
         12    1    3    3    0    0  0.28176870444E+02 -0.91805790721E+01 -0.61680255580E+00  0.29641179219E+02  0.00000000000E+00 0. -1.
</event>
<event>
 7    1  0.3509180E-013  0.7246145E+02  0.7816164E-02  0.1226708E+00
        -11   -1    0    0    0    0  0.00000000000E+00  0.00000000000E+00  0.45593999997E+02  0.45594000000E+02  0.51100000000E-03 0.  1.
         11   -1    0    0    0    0 -0.00000000000E+00 -0.00000000000E+00 -0.45593999997E+02  0.45594000000E+02  0.51100000000E-03 0. -1.
    9900012    2    1    2    0    0  0.14242047156E+02  0.17159684271E+01 -0.12037570682E+02  0.72461452994E+02  0.69999847195E+02 0.  0.
        -12    1    1    2    0    0 -0.14242047156E+02 -0.17159684271E+01  0.12037570682E+02  0.18726547006E+02  0.00000000000E+00 0.  1.
         11    1    3    3    0    0 -0.28026216059E+01  0.22500340017E+02 -0.27836590537E+02  0.35902587118E+02  0.51100000000E-03 0. -1.
        -11    1    3    3    0    0  0.90043568620E+01  0.14696518139E+01  0.61631786317E+01  0.11010135787E+02  0.51100000000E-03 0.  1.
        -12    1    3    3    0    0  0.80403118996E+01 -0.22254023404E+02  0.96358412231E+01  0.25548730089E+02  0.00000000000E+00 0.  1.
</event>
<event>
 7    1  0.3509180E-013  0.7246157E+02  0.7816164E-02  0.1226708E+00
        -11   -1    0    0    0    0  0.00000000000E+00  0.00000000000E+00  0.45593999997E+02  0.45594000000E+02  0.51100000000E-03 0. -1.
         11   -1    0    0    0    0 -0.00000000000E+00 -0.00000000000E+00 -0.45593999997E+02  0.45594000000E+02  0.51100000000E-03 0.  1.
    9900012    2    1    2    0    0  0.82052200685E+01  0.32722650219E+00  0.16829922957E+02  0.72461574279E+02  0.70000005191E+02 0.  0.
        -12    1    1    2    0    0 -0.82052200685E+01 -0.32722650219E+00 -0.16829922957E+02  0.18726425721E+02  0.00000000000E+00 0.  1.
         11    1    3    3    0    0 -0.94778426037E+01  0.68689093681E+01  0.34127930703E+01  0.12192562205E+02  0.51100000000E-03 0. -1.
        -11    1    3    3    0    0 -0.13906282807E+02  0.12819490089E+02 -0.39950817204E+01  0.19330926151E+02  0.51100000000E-03 0.  1.
         12    1    3    3    0    0  0.31589345479E+02 -0.19361172955E+02  0.17412211607E+02  0.40938085923E+02  0.00000000000E+00 0. -1.
</event>
<event>
 7    1  0.3509180E-013  0.7246159E+02  0.7816164E-02  0.1226708E+00
        -11   -1    0    0    0    0  0.00000000000E+00  0.00000000000E+00  0.45593999997E+02  0.45594000000E+02  0.51100000000E-03 0. -1.
         11   -1    0    0    0    0 -0.00000000000E+00 -0.00000000000E+00 -0.45593999997E+02  0.45594000000E+02  0.51100000000E-03 0.  1.
    9900012    2    1    2    0    0  0.11981982148E+01  0.14969771182E+02  0.11186982731E+02  0.72461593222E+02  0.70000029867E+02 0.  0.
        -12    1    1    2    0    0 -0.11981982148E+01 -0.14969771182E+02 -0.11186982731E+02  0.18726406778E+02  0.00000000000E+00 0.  1.
         11    1    3    3    0    0  0.42464929327E-01  0.22092975132E+01 -0.99967366664E+01  0.10238043906E+02  0.51100000000E-03 0.  1.
        -11    1    3    3    0    0  0.27271544224E+02  0.16855635027E+02  0.12225360709E+02  0.34311936717E+02  0.51100000000E-03 0. -1.
         12    1    3    3    0    0 -0.26115810938E+02 -0.40951613589E+01  0.89583586891E+01  0.27911612600E+02  0.00000000000E+00 0. -1.
</event>
<event>
 7    1  0.3509180E-013  0.7246161E+02  0.7816164E-02  0.1226708E+00
        -11   -1    0    0    0    0  0.00000000000E+00  0.00000000000E+00  0.45593999997E+02  0.45594000000E+02  0.51100000000E-03 0. -1.
         11   -1    0    0    0    0 -0.00000000000E+00 -0.00000000000E+00 -0.45593999997E+02  0.45594000000E+02  0.51100000000E-03 0.  1.
    9900012    2    1    2    0    0 -0.13199643799E+01 -0.69984380780E+00  0.18666701687E+02  0.72461605814E+02  0.70000046271E+02 0.  0.
        -12    1    1    2    0    0  0.13199643799E+01  0.69984380780E+00 -0.18666701687E+02  0.18726394186E+02  0.00000000000E+00 0.  1.
         11    1    3    3    0    0 -0.75929664909E+01 -0.13032865664E+02  0.23774188306E+01  0.15269605369E+02  0.51100000000E-03 0. -1.
        -11    1    3    3    0    0 -0.15165379408E+02 -0.10293483175E+02  0.18373544906E+02  0.25952488920E+02  0.51100000000E-03 0.  1.
         12    1    3    3    0    0  0.21438381519E+02  0.22626505031E+02 -0.20842620498E+01  0.31239511526E+02  0.00000000000E+00 0. -1.
</event>
<event>
 7    1  0.3509180E-013  0.7246217E+02  0.7816164E-02  0.1226706E+00
        -11   -1    0    0    0    0  0.00000000000E+00  0.00000000000E+00  0.45593999997E+02  0.45594000000E+02  0.51100000000E-03 0.  1.
         11   -1    0    0    0    0 -0.00000000000E+00 -0.00000000000E+00 -0.45593999997E+02  0.45594000000E+02  0.51100000000E-03 0. -1.
    9900012    2    1    2    0    0 -0.16838720949E+02 -0.18859137649E+00 -0.81901474894E+01  0.72462172761E+02  0.70000784820E+02 0.  0.
        -12    1    1    2    0    0  0.16838720949E+02  0.18859137649E+00  0.81901474894E+01  0.18725827239E+02  0.00000000000E+00 0.  1.
         11    1    3    3    0    0 -0.68312626151E+01  0.11862245851E+02 -0.23767554780E+02  0.27427644559E+02  0.51100000000E-03 0. -1.
        -11    1    3    3    0    0 -0.88578412356E+00  0.14307994195E+02  0.60495192465E+01  0.15559562808E+02  0.51100000000E-03 0.  1.
        -12    1    3    3    0    0 -0.91216742101E+01 -0.26358831423E+02  0.95278880441E+01  0.29474965394E+02  0.00000000000E+00 0.  1.
</event>
<event>
 7    1  0.3509180E-013  0.7246147E+02  0.7816164E-02  0.1226708E+00
        -11   -1    0    0    0    0  0.00000000000E+00  0.00000000000E+00  0.45593999997E+02  0.45594000000E+02  0.51100000000E-03 0. -1.
         11   -1    0    0    0    0 -0.00000000000E+00 -0.00000000000E+00 -0.45593999997E+02  0.45594000000E+02  0.51100000000E-03 0.  1.
    9900012    2    1    2    0    0 -0.64829922482E+01  0.17268903361E+02  0.32308985831E+01  0.72461470224E+02  0.69999869640E+02 0.  0.
        -12    1    1    2    0    0  0.64829922482E+01 -0.17268903361E+02 -0.32308985831E+01  0.18726529776E+02  0.00000000000E+00 0.  1.
         11    1    3    3    0    0  0.49516033347E+01 -0.61262871751E+01 -0.11168462610E+02  0.13666906287E+02  0.51100000000E-03 0. -1.
        -11    1    3    3    0    0  0.56000083864E+01  0.17229459991E+02 -0.15495074180E+02  0.23839289201E+02  0.51100000000E-03 0.  1.
         12    1    3    3    0    0 -0.17034603969E+02  0.61657305451E+01  0.29894435373E+02  0.34955274736E+02  0.00000000000E+00 0. -1.
</event>
<event>
 7    1  0.3509180E-013  0.7246155E+02  0.7816164E-02  0.1226708E+00
        -11   -1    0    0    0    0  0.00000000000E+00  0.00000000000E+00  0.45593999997E+02  0.45594000000E+02  0.51100000000E-03 0. -1.
         11   -1    0    0    0    0 -0.00000000000E+00 -0.00000000000E+00 -0.45593999997E+02  0.45594000000E+02  0.51100000000E-03 0.  1.
    9900012    2    1    2    0    0  0.60797163663E+01  0.87429688491E+01  0.15403811650E+02  0.72461551625E+02  0.69999975680E+02 0.  0.
        -12    1    1    2    0    0 -0.60797163663E+01 -0.87429688491E+01 -0.15403811650E+02  0.18726448375E+02  0.00000000000E+00 0.  1.
         11    1    3    3    0    0  0.26318347285E+02  0.14539483713E+02  0.13541081817E+02  0.32975944073E+02  0.51100000000E-03 0. -1.
        -11    1    3    3    0    0  0.43480853836E+01  0.80933270612E+01 -0.49507659252E+01  0.10436372594E+02  0.51100000000E-03 0.  1.
        -12    1    3    3    0    0 -0.24586716302E+02 -0.13889841925E+02  0.68134957576E+01  0.29049234958E+02  0.00000000000E+00 0.  1.
</event>
<event>
 7    1  0.3509180E-013  0.7246160E+02  0.7816164E-02  0.1226708E+00
        -11   -1    0    0    0    0  0.00000000000E+00  0.00000000000E+00  0.45593999997E+02  0.45594000000E+02  0.51100000000E-03 0. -1.
         11   -1    0    0    0    0 -0.00000000000E+00 -0.00000000000E+00 -0.45593999997E+02  0.45594000000E+02  0.51100000000E-03 0.  1.
    9900012    2    1    2    0    0 -0.15012386888E+02  0.20299491625E+01  0.11008425337E+02  0.72461604669E+02  0.70000044779E+02 0.  0.
        -12    1    1    2    0    0  0.15012386888E+02 -0.20299491625E+01 -0.11008425337E+02  0.18726395331E+02  0.00000000000E+00 0.  1.
         11    1    3    3    0    0  0.24854434580E+00  0.51555699123E+01 -0.84084812447E+01  0.98663180830E+01  0.51100000000E-03 0. -1.
        -11    1    3    3    0    0 -0.18061124711E+02  0.18127385496E+01 -0.17518150277E+02  0.25226490764E+02  0.51100000000E-03 0.  1.
        -12    1    3    3    0    0  0.28001934767E+01 -0.49383592993E+01  0.36935056859E+02  0.37368795822E+02  0.00000000000E+00 0.  1.
</event>
<event>
 7    1  0.3509180E-013  0.7246158E+02  0.7816164E-02  0.1226708E+00
        -11   -1    0    0    0    0  0.00000000000E+00  0.00000000000E+00  0.45593999997E+02  0.45594000000E+02  0.51100000000E-03 0.  1.
         11   -1    0    0    0    0 -0.00000000000E+00 -0.00000000000E+00 -0.45593999997E+02  0.45594000000E+02  0.51100000000E-03 0. -1.
    9900012    2    1    2    0    0  0.57941817404E+01 -0.10656513264E+02 -0.14266918467E+02  0.72461580707E+02  0.70000013564E+02 0.  0.
        -12    1    1    2    0    0 -0.57941817404E+01  0.10656513264E+02  0.14266918467E+02  0.18726419293E+02  0.00000000000E+00 0.  1.
         11    1    3    3    0    0 -0.11142973184E+02  0.77366307824E+01 -0.22313578328E+02  0.26113542182E+02  0.51100000000E-03 0. -1.
        -11    1    3    3    0    0  0.11396868448E+02  0.67480774528E+01 -0.85064250422E+01  0.15741169810E+02  0.51100000000E-03 0.  1.
        -12    1    3    3    0    0  0.55402864761E+01 -0.25141221500E+02  0.16553084902E+02  0.30606868715E+02  0.00000000000E+00 0.  1.
</event>
<event>
 7    1  0.3509180E-013  0.7246159E+02  0.7816164E-02  0.1226708E+00
        -11   -1    0    0    0    0  0.00000000000E+00  0.00000000000E+00  0.45593999997E+02  0.45594000000E+02  0.51100000000E-03 0. -1.
         11   -1    0    0    0    0 -0.00000000000E+00 -0.00000000000E+00 -0.45593999997E+02  0.45594000000E+02  0.51100000000E-03 0.  1.
    9900012    2    1    2    0    0 -0.10721108781E+02  0.15331741882E+02 -0.82105520834E+00  0.72461585119E+02  0.70000019312E+02 0.  0.
        -12    1    1    2    0    0  0.10721108781E+02 -0.15331741882E+02  0.82105520834E+00  0.18726414881E+02  0.00000000000E+00 0.  1.
         11    1    3    3    0    0 -0.62894050824E+01 -0.81334805796E+01  0.47518573894E+01  0.11326529545E+02  0.51100000000E-03 0.  1.
        -11    1    3    3    0    0  0.17143277856E+02  0.30703106804E+02 -0.12542846528E+02  0.37334913183E+02  0.51100000000E-03 0. -1.
         12    1    3    3    0    0 -0.21574981554E+02 -0.72378843421E+01  0.69699339307E+01  0.23800142391E+02  0.00000000000E+00 0. -1.
</event>
<event>
 7    1  0.3509180E-013  0.7246152E+02  0.7816164E-02  0.1226708E+00
        -11   -1    0    0    0    0  0.00000000000E+00  0.00000000000E+00  0.45593999997E+02  0.45594000000E+02  0.51100000000E-03 0.  1.
         11   -1    0    0    0    0 -0.00000000000E+00 -0.00000000000E+00 -0.45593999997E+02  0.45594000000E+02  0.51100000000E-03 0. -1.
    9900012    2    1    2    0    0  0.23867355446E+01 -0.28154407570E+01 -0.18359132547E+02  0.72461522459E+02  0.69999937686E+02 0.  0.
        -12    1    1    2    0    0 -0.23867355446E+01  0.28154407570E+01  0.18359132547E+02  0.18726477541E+02  0.00000000000E+00 0.  1.
         11    1    3    3    0    0 -0.11682614036E+02 -0.15392199633E+02  0.38306566169E+01  0.19699675394E+02  0.51100000000E-03 0. -1.
        -11    1    3    3    0    0  0.71659944988E+01  0.35125416107E-01  0.12959575601E+02  0.14808892969E+02  0.51100000000E-03 0.  1.
         12    1    3    3    0    0  0.69033550817E+01  0.12541633459E+02 -0.35149364765E+02  0.37952954096E+02  0.00000000000E+00 0. -1.
</event>
<event>
 7    1  0.3509180E-013  0.7246154E+02  0.7816164E-02  0.1226708E+00
        -11   -1    0    0    0    0  0.00000000000E+00  0.00000000000E+00  0.45593999997E+02  0.45594000000E+02  0.51100000000E-03 0. -1.
         11   -1    0    0    0    0 -0.00000000000E+00 -0.00000000000E+00 -0.45593999997E+02  0.45594000000E+02  0.51100000000E-03 0.  1.
    9900012    2    1    2    0    0  0.13329240290E+02 -0.15306733861E+01  0.13064023147E+02  0.72461539883E+02  0.69999960384E+02 0.  0.
        -12    1    1    2    0    0 -0.13329240290E+02  0.15306733861E+01 -0.13064023147E+02  0.18726460117E+02  0.00000000000E+00 0.  1.
         11    1    3    3    0    0  0.29265812831E+02  0.47084506815E+01  0.16045165055E+01  0.29685548369E+02  0.51100000000E-03 0. -1.
        -11    1    3    3    0    0  0.86927688402E+01  0.86086363978E+01  0.14241715426E+01  0.12316700678E+02  0.51100000000E-03 0.  1.
        -12    1    3    3    0    0 -0.24629341382E+02 -0.14847760465E+02  0.10035335099E+02  0.30459290837E+02  0.00000000000E+00 0.  1.
</event>
<event>
 7    1  0.3509180E-013  0.7246174E+02  0.7816164E-02  0.1226708E+00
        -11   -1    0    0    0    0  0.00000000000E+00  0.00000000000E+00  0.45593999997E+02  0.45594000000E+02  0.51100000000E-03 0.  1.
         11   -1    0    0    0    0 -0.00000000000E+00 -0.00000000000E+00 -0.45593999997E+02  0.45594000000E+02  0.51100000000E-03 0. -1.
    9900012    2    1    2    0    0  0.57294735776E+01  0.16089774813E+02 -0.76788722766E+01  0.72461740351E+02  0.70000221530E+02 0.  0.
        -12    1    1    2    0    0 -0.57294735776E+01 -0.16089774813E+02  0.76788722766E+01  0.18726259649E+02  0.00000000000E+00 0.  1.
         11    1    3    3    0    0  0.12428669921E+02  0.99089652582E+00 -0.49145482169E+01  0.13401734826E+02  0.51100000000E-03 0. -1.
        -11    1    3    3    0    0  0.18819895171E+02  0.24939591626E+02  0.19559994509E+01  0.31304913653E+02  0.51100000000E-03 0.  1.
         12    1    3    3    0    0 -0.25519091514E+02 -0.98407133393E+01 -0.47203235106E+01  0.27755091871E+02  0.00000000000E+00 0. -1.
</event>
<event>
 7    1  0.3509180E-013  0.7246180E+02  0.7816164E-02  0.1226707E+00
        -11   -1    0    0    0    0  0.00000000000E+00  0.00000000000E+00  0.45593999997E+02  0.45594000000E+02  0.51100000000E-03 0.  1.
         11   -1    0    0    0    0 -0.00000000000E+00 -0.00000000000E+00 -0.45593999997E+02  0.45594000000E+02  0.51100000000E-03 0. -1.
    9900012    2    1    2    0    0  0.52703488957E+01 -0.15116310703E+02 -0.97155015599E+01  0.72461804515E+02  0.70000305116E+02 0.  0.
        -12    1    1    2    0    0 -0.52703488957E+01  0.15116310703E+02  0.97155015599E+01  0.18726195485E+02  0.00000000000E+00 0.  1.
         11    1    3    3    0    0 -0.42865276867E+01 -0.10170998102E+02 -0.43440702150E+01  0.11861469904E+02  0.51100000000E-03 0. -1.
        -11    1    3    3    0    0  0.31251476904E+02 -0.13749766301E+02 -0.12126744368E+02  0.36232151624E+02  0.51100000000E-03 0.  1.
         12    1    3    3    0    0 -0.21694600322E+02  0.88044536999E+01  0.67553130228E+01  0.24368182988E+02  0.00000000000E+00 0. -1.
</event>
<event>
 7    1  0.3509180E-013  0.7246158E+02  0.7816164E-02  0.1226708E+00
        -11   -1    0    0    0    0  0.00000000000E+00  0.00000000000E+00  0.45593999997E+02  0.45594000000E+02  0.51100000000E-03 0.  1.
         11   -1    0    0    0    0 -0.00000000000E+00 -0.00000000000E+00 -0.45593999997E+02  0.45594000000E+02  0.51100000000E-03 0. -1.
    9900012    2    1    2    0    0  0.13863575595E+02 -0.82049001457E+01 -0.95477520648E+01  0.72461583253E+02  0.70000016881E+02 0.  0.
        -12    1    1    2    0    0 -0.13863575595E+02  0.82049001457E+01  0.95477520648E+01  0.18726416747E+02  0.00000000000E+00 0.  1.
         11    1    3    3    0    0 -0.73054729090E+01  0.70063264723E+01 -0.15749991356E+02  0.18722200005E+02  0.51100000000E-03 0. -1.
        -11    1    3    3    0    0  0.11499651149E+02  0.11392106550E+01  0.24672326491E+02  0.27244512699E+02  0.51100000000E-03 0.  1.
         12    1    3    3    0    0  0.96693973550E+01 -0.16350437273E+02 -0.18470087200E+02  0.26494870549E+02  0.00000000000E+00 0. -1.
</event>
<event>
 7    1  0.3509180E-013  0.7246161E+02  0.7816164E-02  0.1226708E+00
        -11   -1    0    0    0    0  0.00000000000E+00  0.00000000000E+00  0.45593999997E+02  0.45594000000E+02  0.51100000000E-03 0. -1.
         11   -1    0    0    0    0 -0.00000000000E+00 -0.00000000000E+00 -0.45593999997E+02  0.45594000000E+02  0.51100000000E-03 0.  1.
    9900012    2    1    2    0    0 -0.12136278268E+02  0.13737081416E+02  0.38315970434E+01  0.72461607077E+02  0.70000047916E+02 0.  0.
        -12    1    1    2    0    0  0.12136278268E+02 -0.13737081416E+02 -0.38315970434E+01  0.18726392923E+02  0.00000000000E+00 0.  1.
         11    1    3    3    0    0 -0.34949409604E+00 -0.10652446183E+02 -0.13242793923E+02  0.16999069002E+02  0.51100000000E-03 0.  1.
        -11    1    3    3    0    0 -0.15141045890E+02 -0.97408087449E+01  0.94391493830E+01  0.20328112726E+02  0.51100000000E-03 0. -1.
         12    1    3    3    0    0  0.33542617181E+01  0.34130336343E+02  0.76352415829E+01  0.35134425349E+02  0.00000000000E+00 0. -1.
</event>
<event>
 7    1  0.3509180E-013  0.7246157E+02  0.7816164E-02  0.1226708E+00
        -11   -1    0    0    0    0  0.00000000000E+00  0.00000000000E+00  0.45593999997E+02  0.45594000000E+02  0.51100000000E-03 0. -1.
         11   -1    0    0    0    0 -0.00000000000E+00 -0.00000000000E+00 -0.45593999997E+02  0.45594000000E+02  0.51100000000E-03 0.  1.
    9900012    2    1    2    0    0 -0.24763469041E+01  0.16300343355E+02  0.88795154154E+01  0.72461567304E+02  0.69999996105E+02 0.  0.
        -12    1    1    2    0    0  0.24763469041E+01 -0.16300343355E+02 -0.88795154154E+01  0.18726432696E+02  0.00000000000E+00 0.  1.
         11    1    3    3    0    0 -0.54849536566E+01  0.50011628685E+01  0.82652347444E+00  0.74685666608E+01  0.51100000000E-03 0. -1.
        -11    1    3    3    0    0  0.17118055892E+02 -0.17658367777E+02 -0.11670550185E+02  0.27222188229E+02  0.51100000000E-03 0.  1.
         12    1    3    3    0    0 -0.14109449140E+02  0.28957548264E+02  0.19723542126E+02  0.37770812415E+02  0.00000000000E+00 0. -1.
</event>
<event>
 7    1  0.3509180E-013  0.7246157E+02  0.7816164E-02  0.1226708E+00
        -11   -1    0    0    0    0  0.00000000000E+00  0.00000000000E+00  0.45593999997E+02  0.45594000000E+02  0.51100000000E-03 0. -1.
         11   -1    0    0    0    0 -0.00000000000E+00 -0.00000000000E+00 -0.45593999997E+02  0.45594000000E+02  0.51100000000E-03 0.  1.
    9900012    2    1    2    0    0 -0.15855401863E+02  0.88731114208E+01  0.45335699745E+01  0.72461571317E+02  0.70000001332E+02 0.  0.
        -12    1    1    2    0    0  0.15855401863E+02 -0.88731114208E+01 -0.45335699745E+01  0.18726428683E+02  0.00000000000E+00 0.  1.
         11    1    3    3    0    0  0.47327278238E+01  0.11411597961E+02  0.23203015871E+02  0.26286940226E+02  0.51100000000E-03 0. -1.
        -11    1    3    3    0    0  0.33855907081E+01  0.12233003762E+02 -0.11475079515E+02  0.17110992245E+02  0.51100000000E-03 0.  1.
         12    1    3    3    0    0 -0.23973720395E+02 -0.14771490303E+02 -0.71943663814E+01  0.29063638846E+02  0.00000000000E+00 0. -1.
</event>
<event>
 7    1  0.3509180E-013  0.7246158E+02  0.7816164E-02  0.1226708E+00
        -11   -1    0    0    0    0  0.00000000000E+00  0.00000000000E+00  0.45593999997E+02  0.45594000000E+02  0.51100000000E-03 0. -1.
         11   -1    0    0    0    0 -0.00000000000E+00 -0.00000000000E+00 -0.45593999997E+02  0.45594000000E+02  0.51100000000E-03 0.  1.
    9900012    2    1    2    0    0 -0.43458698961E+00  0.18663219397E+02  0.14744619189E+01  0.72461583844E+02  0.70000017650E+02 0.  0.
        -12    1    1    2    0    0  0.43458698961E+00 -0.18663219397E+02 -0.14744619189E+01  0.18726416156E+02  0.00000000000E+00 0.  1.
         11    1    3    3    0    0  0.13319054541E+02  0.19402345715E+02  0.32679663880E+01  0.23759794563E+02  0.51100000000E-03 0. -1.
        -11    1    3    3    0    0 -0.65757470897E+01  0.45378113793E+01 -0.23722737045E+02  0.25031988237E+02  0.51100000000E-03 0.  1.
         12    1    3    3    0    0 -0.71778944409E+01 -0.52769376977E+01  0.21929232576E+02  0.23669801044E+02  0.00000000000E+00 0. -1.
</event>
<event>
 7    1  0.3509180E-013  0.7246161E+02  0.7816164E-02  0.1226708E+00
        -11   -1    0    0    0    0  0.00000000000E+00  0.00000000000E+00  0.45593999997E+02  0.45594000000E+02  0.51100000000E-03 0. -1.
         11   -1    0    0    0    0 -0.00000000000E+00 -0.00000000000E+00 -0.45593999997E+02  0.45594000000E+02  0.51100000000E-03 0.  1.
    9900012    2    1    2    0    0  0.17405403549E+02  0.23344099617E+01 -0.65023140560E+01  0.72461611382E+02  0.70000053524E+02 0.  0.
        -12    1    1    2    0    0 -0.17405403549E+02 -0.23344099617E+01  0.65023140560E+01  0.18726388618E+02  0.00000000000E+00 0.  1.
         11    1    3    3    0    0  0.43241958349E+01  0.26017027448E+02 -0.10130517597E+02  0.28252641893E+02  0.51100000000E-03 0.  1.
        -11    1    3    3    0    0 -0.40385535668E+01 -0.12207839484E+02 -0.12580486306E+02  0.17989160507E+02  0.51100000000E-03 0. -1.
         12    1    3    3    0    0  0.17119761281E+02 -0.11474778003E+02  0.16208689847E+02  0.26219808983E+02  0.00000000000E+00 0. -1.
</event>
<event>
 7    1  0.3509180E-013  0.7246159E+02  0.7816164E-02  0.1226708E+00
        -11   -1    0    0    0    0  0.00000000000E+00  0.00000000000E+00  0.45593999997E+02  0.45594000000E+02  0.51100000000E-03 0. -1.
         11   -1    0    0    0    0 -0.00000000000E+00 -0.00000000000E+00 -0.45593999997E+02  0.45594000000E+02  0.51100000000E-03 0.  1.
    9900012    2    1    2    0    0  0.14197193697E+02  0.88017370123E+01  0.84644846658E+01  0.72461591269E+02  0.70000027323E+02 0.  0.
        -12    1    1    2    0    0 -0.14197193697E+02 -0.88017370123E+01 -0.84644846658E+01  0.18726408731E+02  0.00000000000E+00 0.  1.
         11    1    3    3    0    0  0.12822615380E+02  0.39971052175E+00 -0.21679826524E+01  0.13010741053E+02  0.51100000000E-03 0. -1.
        -11    1    3    3    0    0 -0.12472614249E+02 -0.14118182531E+02 -0.13879166400E+02  0.23399154780E+02  0.51100000000E-03 0.  1.
         12    1    3    3    0    0  0.13847192565E+02  0.22520209022E+02  0.24511633718E+02  0.36051695437E+02  0.00000000000E+00 0. -1.
</event>
<event>
 7    1  0.3509180E-013  0.7246178E+02  0.7816164E-02  0.1226707E+00
        -11   -1    0    0    0    0  0.00000000000E+00  0.00000000000E+00  0.45593999997E+02  0.45594000000E+02  0.51100000000E-03 0. -1.
         11   -1    0    0    0    0 -0.00000000000E+00 -0.00000000000E+00 -0.45593999997E+02  0.45594000000E+02  0.51100000000E-03 0.  1.
    9900012    2    1    2    0    0 -0.17333011718E+02  0.65067804265E+01  0.28106848491E+01  0.72461776781E+02  0.70000268987E+02 0.  0.
        -12    1    1    2    0    0  0.17333011718E+02 -0.65067804265E+01 -0.28106848491E+01  0.18726223219E+02  0.00000000000E+00 0.  1.
         11    1    3    3    0    0 -0.10394283441E+02  0.17895437890E+01  0.11617503952E+02  0.15691080063E+02  0.51100000000E-03 0. -1.
        -11    1    3    3    0    0 -0.18657522699E+02  0.25655233355E+02 -0.17954313943E+01  0.31772908679E+02  0.51100000000E-03 0.  1.
        -12    1    3    3    0    0  0.11718794422E+02 -0.20937996717E+02 -0.70113877083E+01  0.24997788039E+02  0.00000000000E+00 0.  1.
</event>
<event>
 7    1  0.3509180E-013  0.7246156E+02  0.7816164E-02  0.1226708E+00
        -11   -1    0    0    0    0  0.00000000000E+00  0.00000000000E+00  0.45593999997E+02  0.45594000000E+02  0.51100000000E-03 0.  1.
         11   -1    0    0    0    0 -0.00000000000E+00 -0.00000000000E+00 -0.45593999997E+02  0.45594000000E+02  0.51100000000E-03 0. -1.
    9900012    2    1    2    0    0 -0.98353938546E+01  0.68346473951E+01 -0.14395566204E+02  0.72461556034E+02  0.69999981423E+02 0.  0.
        -12    1    1    2    0    0  0.98353938546E+01 -0.68346473951E+01  0.14395566204E+02  0.18726443966E+02  0.00000000000E+00 0.  1.
         11    1    3    3    0    0 -0.28586794720E+02  0.11950109519E+01 -0.14798483287E+02  0.32212233568E+02  0.51100000000E-03 0.  1.
        -11    1    3    3    0    0 -0.10112775533E+02  0.51860777277E+01  0.60109200087E+00  0.11380902558E+02  0.51100000000E-03 0. -1.
         12    1    3    3    0    0  0.28864176399E+02  0.45355871547E+00 -0.19817491823E+00  0.28868419908E+02  0.00000000000E+00 0. -1.
</event>
<event>
 7    1  0.3509180E-013  0.7246155E+02  0.7816164E-02  0.1226708E+00
        -11   -1    0    0    0    0  0.00000000000E+00  0.00000000000E+00  0.45593999997E+02  0.45594000000E+02  0.51100000000E-03 0. -1.
         11   -1    0    0    0    0 -0.00000000000E+00 -0.00000000000E+00 -0.45593999997E+02  0.45594000000E+02  0.51100000000E-03 0.  1.
    9900012    2    1    2    0    0 -0.17198288576E+01 -0.14861028340E+02  0.11263751232E+02  0.72461546346E+02  0.69999968803E+02 0.  0.
        -12    1    1    2    0    0  0.17198288576E+01  0.14861028340E+02 -0.11263751232E+02  0.18726453654E+02  0.00000000000E+00 0.  1.
         11    1    3    3    0    0 -0.23115610930E+02 -0.14304720302E+02 -0.44129387602E+01  0.27539617288E+02  0.51100000000E-03 0. -1.
        -11    1    3    3    0    0  0.14576811404E+02 -0.89295075341E+01 -0.80188800525E+01  0.18881789456E+02  0.51100000000E-03 0.  1.
         12    1    3    3    0    0  0.68189706684E+01  0.83731994963E+01  0.23695570044E+02  0.26040139602E+02  0.00000000000E+00 0. -1.
</event>
<event>
 7    1  0.3509180E-013  0.7246109E+02  0.7816164E-02  0.1226709E+00
        -11   -1    0    0    0    0  0.00000000000E+00  0.00000000000E+00  0.45593999997E+02  0.45594000000E+02  0.51100000000E-03 0. -1.
         11   -1    0    0    0    0 -0.00000000000E+00 -0.00000000000E+00 -0.45593999997E+02  0.45594000000E+02  0.51100000000E-03 0.  1.
    9900012    2    1    2    0    0 -0.54473062736E+00  0.16207693167E+02  0.93654161777E+01  0.72461092368E+02  0.69999377410E+02 0.  0.
        -12    1    1    2    0    0  0.54473062736E+00 -0.16207693167E+02 -0.93654161777E+01  0.18726907632E+02  0.00000000000E+00 0.  1.
         11    1    3    3    0    0 -0.12064600322E+02  0.15205361367E+02 -0.11209083613E+02  0.22414306836E+02  0.51100000000E-03 0. -1.
        -11    1    3    3    0    0  0.17955342446E+02 -0.63117771942E+01 -0.74030791337E+01  0.20421518911E+02  0.51100000000E-03 0.  1.
         12    1    3    3    0    0 -0.64354727512E+01  0.73141089940E+01  0.27977578924E+02  0.29625266621E+02  0.00000000000E+00 0. -1.
</event>
<event>
 7    1  0.3509180E-013  0.7246148E+02  0.7816164E-02  0.1226708E+00
        -11   -1    0    0    0    0  0.00000000000E+00  0.00000000000E+00  0.45593999997E+02  0.45594000000E+02  0.51100000000E-03 0.  1.
         11   -1    0    0    0    0 -0.00000000000E+00 -0.00000000000E+00 -0.45593999997E+02  0.45594000000E+02  0.51100000000E-03 0. -1.
    9900012    2    1    2    0    0  0.13447446750E+02  0.75050703089E+01 -0.10654709021E+02  0.72461475263E+02  0.69999876203E+02 0.  0.
        -12    1    1    2    0    0 -0.13447446750E+02 -0.75050703089E+01  0.10654709021E+02  0.18726524737E+02  0.00000000000E+00 0.  1.
         11    1    3    3    0    0  0.76978971406E+01  0.22431700184E+02 -0.13209327734E+02  0.27146365004E+02  0.51100000000E-03 0. -1.
        -11    1    3    3    0    0 -0.16730228356E+02 -0.98511824276E+01 -0.66166666049E+01  0.20511621420E+02  0.51100000000E-03 0.  1.
         12    1    3    3    0    0  0.22479777965E+02 -0.50754474472E+01  0.91712853181E+01  0.24803488838E+02  0.00000000000E+00 0. -1.
</event>
<event>
 7    1  0.3509180E-013  0.7246162E+02  0.7816164E-02  0.1226708E+00
        -11   -1    0    0    0    0  0.00000000000E+00  0.00000000000E+00  0.45593999997E+02  0.45594000000E+02  0.51100000000E-03 0. -1.
         11   -1    0    0    0    0 -0.00000000000E+00 -0.00000000000E+00 -0.45593999997E+02  0.45594000000E+02  0.51100000000E-03 0.  1.
    9900012    2    1    2    0    0 -0.18631142502E+02 -0.18788851760E+01  0.16601699653E+00  0.72461621758E+02  0.70000067041E+02 0.  0.
        -12    1    1    2    0    0  0.18631142502E+02  0.18788851760E+01 -0.16601699653E+00  0.18726378242E+02  0.00000000000E+00 0.  1.
         11    1    3    3    0    0 -0.20299109381E+01  0.13564931186E+02  0.13690987269E+02  0.19379655032E+02  0.51100000000E-03 0. -1.
        -11    1    3    3    0    0 -0.25611621322E+02 -0.43131437162E+01  0.80461339465E+01  0.27190046473E+02  0.51100000000E-03 0.  1.
         12    1    3    3    0    0  0.90103897586E+01 -0.11130672646E+02 -0.21571104219E+02  0.25891920253E+02  0.00000000000E+00 0. -1.
</event>
<event>
 7    1  0.3509180E-013  0.7246164E+02  0.7816164E-02  0.1226708E+00
        -11   -1    0    0    0    0  0.00000000000E+00  0.00000000000E+00  0.45593999997E+02  0.45594000000E+02  0.51100000000E-03 0. -1.
         11   -1    0    0    0    0 -0.00000000000E+00 -0.00000000000E+00 -0.45593999997E+02  0.45594000000E+02  0.51100000000E-03 0.  1.
    9900012    2    1    2    0    0  0.33392928423E+01  0.14397732891E+02  0.11499178653E+02  0.72461636264E+02  0.70000085938E+02 0.  0.
        -12    1    1    2    0    0 -0.33392928423E+01 -0.14397732891E+02 -0.11499178653E+02  0.18726363736E+02  0.00000000000E+00 0.  1.
         11    1    3    3    0    0 -0.18978555471E+01 -0.19702440377E+02  0.77075742863E+01  0.21241344452E+02  0.51100000000E-03 0. -1.
        -11    1    3    3    0    0 -0.14289765490E+01  0.14539105498E+02 -0.16651346666E+02  0.22151634448E+02  0.51100000000E-03 0.  1.
         12    1    3    3    0    0  0.66661249383E+01  0.19561067771E+02  0.20442951033E+02  0.29068657364E+02  0.00000000000E+00 0. -1.
</event>
<event>
 7    1  0.3509180E-013  0.7246156E+02  0.7816164E-02  0.1226708E+00
        -11   -1    0    0    0    0  0.00000000000E+00  0.00000000000E+00  0.45593999997E+02  0.45594000000E+02  0.51100000000E-03 0.  1.
         11   -1    0    0    0    0 -0.00000000000E+00 -0.00000000000E+00 -0.45593999997E+02  0.45594000000E+02  0.51100000000E-03 0. -1.
    9900012    2    1    2    0    0 -0.10920299969E+02 -0.53067958592E+01 -0.14257080362E+02  0.72461564830E+02  0.69999992882E+02 0.  0.
        -12    1    1    2    0    0  0.10920299969E+02  0.53067958592E+01  0.14257080362E+02  0.18726435170E+02  0.00000000000E+00 0.  1.
         11    1    3    3    0    0 -0.64629983118E+01  0.10934019579E+02  0.89548700381E+01  0.15540683028E+02  0.51100000000E-03 0. -1.
        -11    1    3    3    0    0 -0.72832475819E+01 -0.16474148084E+02  0.11968655806E+02  0.21626187193E+02  0.51100000000E-03 0.  1.
         12    1    3    3    0    0  0.28259459244E+01  0.23333264650E+00 -0.35180606207E+02  0.35294694609E+02  0.00000000000E+00 0. -1.
</event>
<event>
 7    1  0.3509180E-013  0.7246158E+02  0.7816164E-02  0.1226708E+00
        -11   -1    0    0    0    0  0.00000000000E+00  0.00000000000E+00  0.45593999997E+02  0.45594000000E+02  0.51100000000E-03 0.  1.
         11   -1    0    0    0    0 -0.00000000000E+00 -0.00000000000E+00 -0.45593999997E+02  0.45594000000E+02  0.51100000000E-03 0. -1.
    9900012    2    1    2    0    0  0.11546502558E+02  0.29916923264E+01 -0.14436302321E+02  0.72461580988E+02  0.70000013931E+02 0.  0.
        -12    1    1    2    0    0 -0.11546502558E+02 -0.29916923264E+01  0.14436302321E+02  0.18726419012E+02  0.00000000000E+00 0.  1.
         11    1    3    3    0    0 -0.21791644781E+02 -0.57991882905E+01 -0.10040363599E+02  0.24684312195E+02  0.51100000000E-03 0. -1.
        -11    1    3    3    0    0 -0.29666631204E+01 -0.72876746037E+01 -0.79260779560E+00  0.79081931298E+01  0.51100000000E-03 0.  1.
         12    1    3    3    0    0  0.36304810459E+02  0.16078555221E+02 -0.36033309263E+01  0.39869075663E+02  0.00000000000E+00 0. -1.
</event>
<event>
 7    1  0.3509180E-013  0.7246156E+02  0.7816164E-02  0.1226708E+00
        -11   -1    0    0    0    0  0.00000000000E+00  0.00000000000E+00  0.45593999997E+02  0.45594000000E+02  0.51100000000E-03 0.  1.
         11   -1    0    0    0    0 -0.00000000000E+00 -0.00000000000E+00 -0.45593999997E+02  0.45594000000E+02  0.51100000000E-03 0. -1.
    9900012    2    1    2    0    0 -0.32394691578E+01 -0.78044620208E+01 -0.16711550606E+02  0.72461555823E+02  0.69999981148E+02 0.  0.
        -12    1    1    2    0    0  0.32394691578E+01  0.78044620208E+01  0.16711550606E+02  0.18726444177E+02  0.00000000000E+00 0.  1.
         11    1    3    3    0    0 -0.27390399436E+01  0.52439413681E+01 -0.86123565697E+01  0.10448633730E+02  0.51100000000E-03 0. -1.
        -11    1    3    3    0    0 -0.18222775168E+02  0.17608612873E+02  0.13069232004E+01  0.25374018811E+02  0.51100000000E-03 0.  1.
         12    1    3    3    0    0  0.17722345954E+02 -0.30657016262E+02 -0.94061172370E+01  0.36638903281E+02  0.00000000000E+00 0. -1.
</event>
<event>
 7    1  0.3509180E-013  0.7246156E+02  0.7816164E-02  0.1226708E+00
        -11   -1    0    0    0    0  0.00000000000E+00  0.00000000000E+00  0.45593999997E+02  0.45594000000E+02  0.51100000000E-03 0.  1.
         11   -1    0    0    0    0 -0.00000000000E+00 -0.00000000000E+00 -0.45593999997E+02  0.45594000000E+02  0.51100000000E-03 0. -1.
    9900012    2    1    2    0    0 -0.14078195801E+02 -0.11950448427E+02 -0.31097817541E+01  0.72461559944E+02  0.69999986516E+02 0.  0.
        -12    1    1    2    0    0  0.14078195801E+02  0.11950448427E+02  0.31097817541E+01  0.18726440056E+02  0.00000000000E+00 0.  1.
         11    1    3    3    0    0 -0.35537806639E+02 -0.11051305206E+02 -0.22273643586E+01  0.37283081950E+02  0.51100000000E-03 0. -1.
        -11    1    3    3    0    0  0.48884167937E-01  0.10680718482E+02 -0.17408423218E+01  0.10821768303E+02  0.51100000000E-03 0.  1.
        -12    1    3    3    0    0  0.21410726670E+02 -0.11579861703E+02  0.85842492629E+00  0.24356709690E+02  0.00000000000E+00 0.  1.
</event>
<event>
 7    1  0.3509180E-013  0.7246155E+02  0.7816164E-02  0.1226708E+00
        -11   -1    0    0    0    0  0.00000000000E+00  0.00000000000E+00  0.45593999997E+02  0.45594000000E+02  0.51100000000E-03 0. -1.
         11   -1    0    0    0    0 -0.00000000000E+00 -0.00000000000E+00 -0.45593999997E+02  0.45594000000E+02  0.51100000000E-03 0.  1.
    9900012    2    1    2    0    0  0.15921878961E+02  0.37701778838E+01 -0.91082132445E+01  0.72461547602E+02  0.69999970439E+02 0.  0.
        -12    1    1    2    0    0 -0.15921878961E+02 -0.37701778838E+01  0.91082132445E+01  0.18726452398E+02  0.00000000000E+00 0.  1.
         11    1    3    3    0    0  0.15012615154E+02  0.10261772211E+01  0.22102666507E+02  0.26738726978E+02  0.51100000000E-03 0. -1.
        -11    1    3    3    0    0  0.54789699031E+01 -0.51506161019E+01  0.45685998086E+01  0.87988670805E+01  0.51100000000E-03 0.  1.
        -12    1    3    3    0    0 -0.45697060963E+01  0.78946167647E+01 -0.35779479560E+02  0.36923953543E+02  0.00000000000E+00 0.  1.
</event>
<event>
 7    1  0.3509180E-013  0.7246152E+02  0.7816164E-02  0.1226708E+00
        -11   -1    0    0    0    0  0.00000000000E+00  0.00000000000E+00  0.45593999997E+02  0.45594000000E+02  0.51100000000E-03 0.  1.
         11   -1    0    0    0    0 -0.00000000000E+00 -0.00000000000E+00 -0.45593999997E+02  0.45594000000E+02  0.51100000000E-03 0. -1.
    9900012    2    1    2    0    0  0.48466056742E+01 -0.10883785767E+02 -0.14447653472E+02  0.72461519550E+02  0.69999933897E+02 0.  0.
        -12    1    1    2    0    0 -0.48466056742E+01  0.10883785767E+02  0.14447653472E+02  0.18726480450E+02  0.00000000000E+00 0.  1.
         11    1    3    3    0    0 -0.64300881478E+00 -0.80649522341E+01  0.10115285571E+02  0.12952834335E+02  0.51100000000E-03 0. -1.
        -11    1    3    3    0    0 -0.16088895840E+02 -0.58370647811E+01  0.91196728982E+01  0.19393100026E+02  0.51100000000E-03 0.  1.
         12    1    3    3    0    0  0.21578510328E+02  0.30182312487E+01 -0.33682611941E+02  0.40115585189E+02  0.00000000000E+00 0. -1.
</event>
<event>
 7    1  0.3509180E-013  0.7246135E+02  0.7816164E-02  0.1226709E+00
        -11   -1    0    0    0    0  0.00000000000E+00  0.00000000000E+00  0.45593999997E+02  0.45594000000E+02  0.51100000000E-03 0. -1.
         11   -1    0    0    0    0 -0.00000000000E+00 -0.00000000000E+00 -0.45593999997E+02  0.45594000000E+02  0.51100000000E-03 0.  1.
    9900012    2    1    2    0    0  0.12707382792E+02 -0.76907144991E+01 -0.11404498654E+02  0.72461354372E+02  0.69999718720E+02 0.  0.
        -12    1    1    2    0    0 -0.12707382792E+02  0.76907144991E+01  0.11404498654E+02  0.18726645628E+02  0.00000000000E+00 0.  1.
         11    1    3    3    0    0 -0.14438559961E+02  0.15504480344E+02 -0.14614217076E+02  0.25737837234E+02  0.51100000000E-03 0. -1.
        -11    1    3    3    0    0 -0.17164483904E+00  0.63624858370E+01  0.49283107440E+00  0.63838523405E+01  0.51100000000E-03 0.  1.
        -12    1    3    3    0    0  0.27317587592E+02 -0.29557680680E+02  0.27168873475E+01  0.40339664797E+02  0.00000000000E+00 0.  1.
</event>
<event>
 7    1  0.3509180E-013  0.7246159E+02  0.7816164E-02  0.1226708E+00
        -11   -1    0    0    0    0  0.00000000000E+00  0.00000000000E+00  0.45593999997E+02  0.45594000000E+02  0.51100000000E-03 0.  1.
         11   -1    0    0    0    0 -0.00000000000E+00 -0.00000000000E+00 -0.45593999997E+02  0.45594000000E+02  0.51100000000E-03 0. -1.
    9900012    2    1    2    0    0 -0.11219193714E+02  0.60869959141E+01 -0.13702426693E+02  0.72461592867E+02  0.70000029405E+02 0.  0.
        -12    1    1    2    0    0  0.11219193714E+02 -0.60869959141E+01  0.13702426693E+02  0.18726407133E+02  0.00000000000E+00 0.  1.
         11    1    3    3    0    0 -0.56438064504E-01  0.21648620181E+02 -0.56145332622E+01  0.22364903867E+02  0.51100000000E-03 0. -1.
        -11    1    3    3    0    0 -0.15349864326E+02 -0.33704295015E+00 -0.23474552517E+02  0.28049715666E+02  0.51100000000E-03 0.  1.
        -12    1    3    3    0    0  0.41871086769E+01 -0.15224581317E+02  0.15386659087E+02  0.22046973334E+02  0.00000000000E+00 0.  1.
</event>
<event>
 7    1  0.3509180E-013  0.7246161E+02  0.7816164E-02  0.1226708E+00
        -11   -1    0    0    0    0  0.00000000000E+00  0.00000000000E+00  0.45593999997E+02  0.45594000000E+02  0.51100000000E-03 0.  1.
         11   -1    0    0    0    0 -0.00000000000E+00 -0.00000000000E+00 -0.45593999997E+02  0.45594000000E+02  0.51100000000E-03 0. -1.
    9900012    2    1    2    0    0  0.72988329697E+01  0.11193229103E+02 -0.13119317822E+02  0.72461605777E+02  0.70000046223E+02 0.  0.
        -12    1    1    2    0    0 -0.72988329697E+01 -0.11193229103E+02  0.13119317822E+02  0.18726394223E+02  0.00000000000E+00 0.  1.
         11    1    3    3    0    0  0.13168706522E+02  0.58512188315E+01 -0.93051924722E+01  0.17153372860E+02  0.51100000000E-03 0. -1.
        -11    1    3    3    0    0  0.17513483824E+01  0.16344540563E+02  0.21267030981E+02  0.26879319827E+02  0.51100000000E-03 0.  1.
         12    1    3    3    0    0 -0.76212219344E+01 -0.11002530291E+02 -0.25081156331E+02  0.28428913090E+02  0.00000000000E+00 0. -1.
</event>
<event>
 7    1  0.3509180E-013  0.7246145E+02  0.7816164E-02  0.1226708E+00
        -11   -1    0    0    0    0  0.00000000000E+00  0.00000000000E+00  0.45593999997E+02  0.45594000000E+02  0.51100000000E-03 0. -1.
         11   -1    0    0    0    0 -0.00000000000E+00 -0.00000000000E+00 -0.45593999997E+02  0.45594000000E+02  0.51100000000E-03 0.  1.
    9900012    2    1    2    0    0  0.13038363923E+02 -0.53782114792E+01  0.12319067469E+02  0.72461454248E+02  0.69999848828E+02 0.  0.
        -12    1    1    2    0    0 -0.13038363923E+02  0.53782114792E+01 -0.12319067469E+02  0.18726545752E+02  0.00000000000E+00 0.  1.
         11    1    3    3    0    0  0.90011119495E+01  0.11012960253E+00  0.38107425109E+01  0.97751677020E+01  0.51100000000E-03 0. -1.
        -11    1    3    3    0    0 -0.11989160116E+01  0.61900976932E+01 -0.25542718709E+02  0.26309412543E+02  0.51100000000E-03 0.  1.
         12    1    3    3    0    0  0.52361679853E+01 -0.11678438775E+02  0.34051043667E+02  0.36376874003E+02  0.00000000000E+00 0. -1.
</event>
<event>
 7    1  0.3509180E-013  0.7246156E+02  0.7816164E-02  0.1226708E+00
        -11   -1    0    0    0    0  0.00000000000E+00  0.00000000000E+00  0.45593999997E+02  0.45594000000E+02  0.51100000000E-03 0.  1.
         11   -1    0    0    0    0 -0.00000000000E+00 -0.00000000000E+00 -0.45593999997E+02  0.45594000000E+02  0.51100000000E-03 0. -1.
    9900012    2    1    2    0    0 -0.84386894501E+01 -0.30123703169E+01 -0.16443646756E+02  0.72461564856E+02  0.69999992916E+02 0.  0.
        -12    1    1    2    0    0  0.84386894501E+01  0.30123703169E+01  0.16443646756E+02  0.18726435144E+02  0.00000000000E+00 0.  1.
         11    1    3    3    0    0  0.21845621736E+02 -0.11141779475E+02  0.69679099988E+01  0.25493571914E+02  0.51100000000E-03 0. -1.
        -11    1    3    3    0    0 -0.44765151356E+01  0.13548733062E+02 -0.68509426528E+01  0.15828542916E+02  0.51100000000E-03 0.  1.
        -12    1    3    3    0    0 -0.25807796050E+02 -0.54193239039E+01 -0.16560614102E+02  0.31139450027E+02  0.00000000000E+00 0.  1.
</event>
<event>
 7    1  0.3509180E-013  0.7246160E+02  0.7816164E-02  0.1226708E+00
        -11   -1    0    0    0    0  0.00000000000E+00  0.00000000000E+00  0.45593999997E+02  0.45594000000E+02  0.51100000000E-03 0.  1.
         11   -1    0    0    0    0 -0.00000000000E+00 -0.00000000000E+00 -0.45593999997E+02  0.45594000000E+02  0.51100000000E-03 0. -1.
    9900012    2    1    2    0    0 -0.15095720366E+02 -0.11076564265E+02  0.32717273845E+00  0.72461599083E+02  0.70000037503E+02 0.  0.
        -12    1    1    2    0    0  0.15095720366E+02  0.11076564265E+02 -0.32717273845E+00  0.18726400917E+02  0.00000000000E+00 0.  1.
         11    1    3    3    0    0 -0.14224626198E+01 -0.21573012816E+01  0.85348018446E-01  0.25854657742E+01  0.51100000000E-03 0. -1.
        -11    1    3    3    0    0 -0.23884500129E+02  0.15711529970E+02  0.21503567126E+02  0.35773243071E+02  0.51100000000E-03 0.  1.
         12    1    3    3    0    0  0.10211242382E+02 -0.24630792953E+02 -0.21261742406E+02  0.34102890238E+02  0.00000000000E+00 0. -1.
</event>
<event>
 7    1  0.3509180E-013  0.7246147E+02  0.7816164E-02  0.1226708E+00
        -11   -1    0    0    0    0  0.00000000000E+00  0.00000000000E+00  0.45593999997E+02  0.45594000000E+02  0.51100000000E-03 0.  1.
         11   -1    0    0    0    0 -0.00000000000E+00 -0.00000000000E+00 -0.45593999997E+02  0.45594000000E+02  0.51100000000E-03 0. -1.
    9900012    2    1    2    0    0  0.39785315227E+01  0.75643392498E+01 -0.16662382548E+02  0.72461469795E+02  0.69999869080E+02 0.  0.
        -12    1    1    2    0    0 -0.39785315227E+01 -0.75643392498E+01  0.16662382548E+02  0.18726530205E+02  0.00000000000E+00 0.  1.
         11    1    3    3    0    0  0.22721689983E+02 -0.10136025091E+00 -0.79887402866E+01  0.24085378162E+02  0.51100000000E-03 0. -1.
        -11    1    3    3    0    0  0.10086146805E+02 -0.94664053446E+01 -0.41680562846E+00  0.13838963643E+02  0.51100000000E-03 0.  1.
        -12    1    3    3    0    0 -0.28829305266E+02  0.17132104845E+02 -0.82568366327E+01  0.34537127989E+02  0.00000000000E+00 0.  1.
</event>
<event>
 7    1  0.3509180E-013  0.7246159E+02  0.7816164E-02  0.1226708E+00
        -11   -1    0    0    0    0  0.00000000000E+00  0.00000000000E+00  0.45593999997E+02  0.45594000000E+02  0.51100000000E-03 0.  1.
         11   -1    0    0    0    0 -0.00000000000E+00 -0.00000000000E+00 -0.45593999997E+02  0.45594000000E+02  0.51100000000E-03 0. -1.
    9900012    2    1    2    0    0 -0.89642027356E+01  0.63018795265E+01 -0.15185772286E+02  0.72461593613E+02  0.70000030376E+02 0.  0.
        -12    1    1    2    0    0  0.89642027356E+01 -0.63018795265E+01  0.15185772286E+02  0.18726406387E+02  0.00000000000E+00 0.  1.
         11    1    3    3    0    0 -0.32110194762E+02 -0.26960913893E+01 -0.21791925275E+02  0.38900148122E+02  0.51100000000E-03 0. -1.
        -11    1    3    3    0    0  0.15770093435E+02  0.14829852176E+02 -0.69184544081E+00  0.21658693702E+02  0.51100000000E-03 0.  1.
        -12    1    3    3    0    0  0.73758985909E+01 -0.58318812601E+01  0.72979984298E+01  0.11902751788E+02  0.00000000000E+00 0.  1.
</event>
<event>
 7    1  0.3509180E-013  0.7246157E+02  0.7816164E-02  0.1226708E+00
        -11   -1    0    0    0    0  0.00000000000E+00  0.00000000000E+00  0.45593999997E+02  0.45594000000E+02  0.51100000000E-03 0.  1.
         11   -1    0    0    0    0 -0.00000000000E+00 -0.00000000000E+00 -0.45593999997E+02  0.45594000000E+02  0.51100000000E-03 0. -1.
    9900012    2    1    2    0    0  0.35814338178E+01  0.95512457012E+01 -0.15704334852E+02  0.72461572263E+02  0.70000002564E+02 0.  0.
        -12    1    1    2    0    0 -0.35814338178E+01 -0.95512457012E+01  0.15704334852E+02  0.18726427737E+02  0.00000000000E+00 0.  1.
         11    1    3    3    0    0  0.38759393511E+01  0.13687768533E+02 -0.19374028746E+01  0.14357278413E+02  0.51100000000E-03 0. -1.
        -11    1    3    3    0    0  0.20606937675E+02  0.13838948975E+02  0.42321615124E+01  0.25180817707E+02  0.51100000000E-03 0.  1.
         12    1    3    3    0    0 -0.20901443208E+02 -0.17975471807E+02 -0.17999093490E+02  0.32923476143E+02  0.00000000000E+00 0. -1.
</event>
<event>
 7    1  0.3509180E-013  0.7246156E+02  0.7816164E-02  0.1226708E+00
        -11   -1    0    0    0    0  0.00000000000E+00  0.00000000000E+00  0.45593999997E+02  0.45594000000E+02  0.51100000000E-03 0.  1.
         11   -1    0    0    0    0 -0.00000000000E+00 -0.00000000000E+00 -0.45593999997E+02  0.45594000000E+02  0.51100000000E-03 0. -1.
    9900012    2    1    2    0    0  0.12143714059E+02  0.12867323843E+02 -0.61352886447E+01  0.72461559313E+02  0.69999985695E+02 0.  0.
        -12    1    1    2    0    0 -0.12143714059E+02 -0.12867323843E+02  0.61352886447E+01  0.18726440687E+02  0.00000000000E+00 0.  1.
         11    1    3    3    0    0  0.21075521892E+01 -0.11815747648E+02 -0.11013727750E+02  0.16289747325E+02  0.51100000000E-03 0. -1.
        -11    1    3    3    0    0 -0.11775594119E+02 -0.19221515333E+01 -0.12794597041E+02  0.17494599083E+02  0.51100000000E-03 0.  1.
        -12    1    3    3    0    0  0.21811755989E+02  0.26605223024E+02  0.17673036146E+02  0.38677212905E+02  0.00000000000E+00 0.  1.
</event>
<event>
 7    1  0.3509180E-013  0.7246159E+02  0.7816164E-02  0.1226708E+00
        -11   -1    0    0    0    0  0.00000000000E+00  0.00000000000E+00  0.45593999997E+02  0.45594000000E+02  0.51100000000E-03 0. -1.
         11   -1    0    0    0    0 -0.00000000000E+00 -0.00000000000E+00 -0.45593999997E+02  0.45594000000E+02  0.51100000000E-03 0.  1.
    9900012    2    1    2    0    0 -0.44137994822E+01 -0.44979069397E+01  0.17634218632E+02  0.72461589253E+02  0.70000024697E+02 0.  0.
        -12    1    1    2    0    0  0.44137994822E+01  0.44979069397E+01 -0.17634218632E+02  0.18726410747E+02  0.00000000000E+00 0.  1.
         11    1    3    3    0    0 -0.49056220719E+01 -0.18859365091E+01  0.28294107698E+02  0.28778089150E+02  0.51100000000E-03 0. -1.
        -11    1    3    3    0    0  0.17106171031E+02  0.55654494743E+01  0.58073519994E+01  0.18902927093E+02  0.51100000000E-03 0.  1.
        -12    1    3    3    0    0 -0.16614348441E+02 -0.81774199049E+01 -0.16467241065E+02  0.24780573010E+02  0.00000000000E+00 0.  1.
</event>
<event>
 7    1  0.3509180E-013  0.7246160E+02  0.7816164E-02  0.1226708E+00
        -11   -1    0    0    0    0  0.00000000000E+00  0.00000000000E+00  0.45593999997E+02  0.45594000000E+02  0.51100000000E-03 0.  1.
         11   -1    0    0    0    0 -0.00000000000E+00 -0.00000000000E+00 -0.45593999997E+02  0.45594000000E+02  0.51100000000E-03 0. -1.
    9900012    2    1    2    0    0 -0.11233917738E+01  0.18665095448E+02  0.10150683044E+01  0.72461597226E+02  0.70000035084E+02 0.  0.
        -12    1    1    2    0    0  0.11233917738E+01 -0.18665095448E+02 -0.10150683044E+01  0.18726402774E+02  0.00000000000E+00 0.  1.
         11    1    3    3    0    0 -0.19019668212E+00  0.40918312599E+01 -0.17785159391E+02  0.18250784988E+02  0.51100000000E-03 0. -1.
        -11    1    3    3    0    0 -0.75082859821E+01  0.12251434074E+02 -0.14366407744E+02  0.20319096116E+02  0.51100000000E-03 0.  1.
        -12    1    3    3    0    0  0.65750908904E+01  0.23218301151E+01  0.33166635440E+02  0.33891716122E+02  0.00000000000E+00 0.  1.
</event>
<event>
 7    1  0.3509180E-013  0.7246177E+02  0.7816164E-02  0.1226707E+00
        -11   -1    0    0    0    0  0.00000000000E+00  0.00000000000E+00  0.45593999997E+02  0.45594000000E+02  0.51100000000E-03 0. -1.
         11   -1    0    0    0    0 -0.00000000000E+00 -0.00000000000E+00 -0.45593999997E+02  0.45594000000E+02  0.51100000000E-03 0.  1.
    9900012    2    1    2    0    0 -0.13591438721E+01  0.18240833885E+02  0.40120502422E+01  0.72461765995E+02  0.70000254936E+02 0.  0.
        -12    1    1    2    0    0  0.13591438721E+01 -0.18240833885E+02 -0.40120502422E+01  0.18726234005E+02  0.00000000000E+00 0.  1.
         11    1    3    3    0    0  0.72934274351E+01 -0.58471212641E+01 -0.70978908295E+01  0.11737246922E+02  0.51100000000E-03 0. -1.
        -11    1    3    3    0    0 -0.29655445075E+02  0.82964116830E+01 -0.29273667409E+01  0.30932916864E+02  0.51100000000E-03 0.  1.
         12    1    3    3    0    0  0.21002873768E+02  0.15791543466E+02  0.14037307813E+02  0.29791602209E+02  0.00000000000E+00 0. -1.
</event>
<event>
 7    1  0.3509180E-013  0.7246163E+02  0.7816164E-02  0.1226708E+00
        -11   -1    0    0    0    0  0.00000000000E+00  0.00000000000E+00  0.45593999997E+02  0.45594000000E+02  0.51100000000E-03 0.  1.
         11   -1    0    0    0    0 -0.00000000000E+00 -0.00000000000E+00 -0.45593999997E+02  0.45594000000E+02  0.51100000000E-03 0. -1.
    9900012    2    1    2    0    0  0.15405974894E+02 -0.10249482503E+02 -0.28776775807E+01  0.72461628694E+02  0.70000076077E+02 0.  0.
        -12    1    1    2    0    0 -0.15405974894E+02  0.10249482503E+02  0.28776775807E+01  0.18726371306E+02  0.00000000000E+00 0.  1.
         11    1    3    3    0    0  0.19197761146E+02  0.49692573401E+00 -0.25196918945E+02  0.31680998924E+02  0.51100000000E-03 0. -1.
        -11    1    3    3    0    0 -0.13287332485E+01 -0.76790008423E+01 -0.74329661052E+01  0.10769474052E+02  0.51100000000E-03 0.  1.
        -12    1    3    3    0    0 -0.24630530032E+01 -0.30674073947E+01  0.29752207470E+02  0.30011155719E+02  0.00000000000E+00 0.  1.
</event>
<event>
 7    1  0.3509180E-013  0.7246158E+02  0.7816164E-02  0.1226708E+00
        -11   -1    0    0    0    0  0.00000000000E+00  0.00000000000E+00  0.45593999997E+02  0.45594000000E+02  0.51100000000E-03 0. -1.
         11   -1    0    0    0    0 -0.00000000000E+00 -0.00000000000E+00 -0.45593999997E+02  0.45594000000E+02  0.51100000000E-03 0.  1.
    9900012    2    1    2    0    0  0.14208878593E+02  0.11542338319E+02 -0.39447624543E+01  0.72461576007E+02  0.70000007442E+02 0.  0.
        -12    1    1    2    0    0 -0.14208878593E+02 -0.11542338319E+02  0.39447624543E+01  0.18726423993E+02  0.00000000000E+00 0.  1.
         11    1    3    3    0    0  0.29370519720E+01 -0.93682534434E+00 -0.12261323638E+02  0.12642941652E+02  0.51100000000E-03 0. -1.
        -11    1    3    3    0    0  0.10354370806E+02  0.16158009265E+02 -0.22041131287E+02  0.29225087286E+02  0.51100000000E-03 0.  1.
         12    1    3    3    0    0  0.91745581442E+00 -0.36788456012E+01  0.30357692471E+02  0.30593547069E+02  0.00000000000E+00 0. -1.
</event>
<event>
 7    1  0.3509180E-013  0.7246159E+02  0.7816164E-02  0.1226708E+00
        -11   -1    0    0    0    0  0.00000000000E+00  0.00000000000E+00  0.45593999997E+02  0.45594000000E+02  0.51100000000E-03 0. -1.
         11   -1    0    0    0    0 -0.00000000000E+00 -0.00000000000E+00 -0.45593999997E+02  0.45594000000E+02  0.51100000000E-03 0.  1.
    9900012    2    1    2    0    0 -0.14727731854E+02  0.10632963438E+02 -0.45510870560E+01  0.72461591097E+02  0.70000027099E+02 0.  0.
        -12    1    1    2    0    0  0.14727731854E+02 -0.10632963438E+02  0.45510870560E+01  0.18726408903E+02  0.00000000000E+00 0.  1.
         11    1    3    3    0    0 -0.80087247781E+01 -0.33943938637E+01  0.16254415069E+01  0.88489345475E+01  0.51100000000E-03 0. -1.
        -11    1    3    3    0    0 -0.28270060646E+02  0.19672706661E+02 -0.17488395201E+02  0.38627136618E+02  0.51100000000E-03 0.  1.
         12    1    3    3    0    0  0.21551053570E+02 -0.56453493600E+01  0.11311866638E+02  0.24985519931E+02  0.00000000000E+00 0. -1.
</event>
<event>
 7    1  0.3509180E-013  0.7246199E+02  0.7816164E-02  0.1226707E+00
        -11   -1    0    0    0    0  0.00000000000E+00  0.00000000000E+00  0.45593999997E+02  0.45594000000E+02  0.51100000000E-03 0.  1.
         11   -1    0    0    0    0 -0.00000000000E+00 -0.00000000000E+00 -0.45593999997E+02  0.45594000000E+02  0.51100000000E-03 0. -1.
    9900012    2    1    2    0    0 -0.50258021048E+01  0.15553531670E+02  0.91374104033E+01  0.72461993937E+02  0.70000551871E+02 0.  0.
        -12    1    1    2    0    0  0.50258021048E+01 -0.15553531670E+02 -0.91374104033E+01  0.18726006063E+02  0.00000000000E+00 0.  1.
         11    1    3    3    0    0 -0.10646365263E+02  0.10006648139E+02  0.14044917901E+02  0.20266667694E+02  0.51100000000E-03 0. -1.
        -11    1    3    3    0    0  0.63457276853E+00 -0.22698444811E+02  0.16704332047E+01  0.22768672047E+02  0.51100000000E-03 0.  1.
         12    1    3    3    0    0  0.49859903899E+01  0.28245328342E+02 -0.65779407023E+01  0.29426654196E+02  0.00000000000E+00 0. -1.
</event>
<event>
 7    1  0.3509180E-013  0.7246155E+02  0.7816164E-02  0.1226708E+00
        -11   -1    0    0    0    0  0.00000000000E+00  0.00000000000E+00  0.45593999997E+02  0.45594000000E+02  0.51100000000E-03 0.  1.
         11   -1    0    0    0    0 -0.00000000000E+00 -0.00000000000E+00 -0.45593999997E+02  0.45594000000E+02  0.51100000000E-03 0. -1.
    9900012    2    1    2    0    0  0.48366262198E+01 -0.73225954299E+01 -0.16542865907E+02  0.72461554276E+02  0.69999979134E+02 0.  0.
        -12    1    1    2    0    0 -0.48366262198E+01  0.73225954299E+01  0.16542865907E+02  0.18726445724E+02  0.00000000000E+00 0.  1.
         11    1    3    3    0    0  0.17397479344E+02  0.11327822757E+02 -0.23816936186E+01  0.20896514558E+02  0.51100000000E-03 0. -1.
        -11    1    3    3    0    0  0.27170411631E+01  0.27455737418E+01  0.13120422307E+02  0.13677206207E+02  0.51100000000E-03 0.  1.
        -12    1    3    3    0    0 -0.15277894287E+02 -0.21395991929E+02 -0.27281594596E+02  0.37887833511E+02  0.00000000000E+00 0.  1.
</event>
<event>
 7    1  0.3509180E-013  0.7246155E+02  0.7816164E-02  0.1226708E+00
        -11   -1    0    0    0    0  0.00000000000E+00  0.00000000000E+00  0.45593999997E+02  0.45594000000E+02  0.51100000000E-03 0.  1.
         11   -1    0    0    0    0 -0.00000000000E+00 -0.00000000000E+00 -0.45593999997E+02  0.45594000000E+02  0.51100000000E-03 0. -1.
    9900012    2    1    2    0    0 -0.19665763158E+01 -0.18455304350E+02 -0.24928227190E+01  0.72461552228E+02  0.69999976466E+02 0.  0.
        -12    1    1    2    0    0  0.19665763158E+01  0.18455304350E+02  0.24928227190E+01  0.18726447772E+02  0.00000000000E+00 0.  1.
         11    1    3    3    0    0  0.71435438671E+00  0.36507492385E+01 -0.85034688178E+00  0.38159353077E+01  0.51100000000E-03 0. -1.
        -11    1    3    3    0    0  0.21384591464E+02  0.28453306302E+00 -0.21432191622E+02  0.30277393368E+02  0.51100000000E-03 0.  1.
         12    1    3    3    0    0 -0.24065522167E+02 -0.22390586651E+02  0.19789715785E+02  0.38368223553E+02  0.00000000000E+00 0. -1.
</event>
<event>
 7    1  0.3509180E-013  0.7246162E+02  0.7816164E-02  0.1226708E+00
        -11   -1    0    0    0    0  0.00000000000E+00  0.00000000000E+00  0.45593999997E+02  0.45594000000E+02  0.51100000000E-03 0. -1.
         11   -1    0    0    0    0 -0.00000000000E+00 -0.00000000000E+00 -0.45593999997E+02  0.45594000000E+02  0.51100000000E-03 0.  1.
    9900012    2    1    2    0    0  0.12979656050E+02  0.13454110776E+02  0.10921788177E+01  0.72461616939E+02  0.70000060764E+02 0.  0.
        -12    1    1    2    0    0 -0.12979656050E+02 -0.13454110776E+02 -0.10921788177E+01  0.18726383061E+02  0.00000000000E+00 0.  1.
         11    1    3    3    0    0  0.65279813167E+01 -0.52899400526E+01 -0.24329837018E+01  0.87474233798E+01  0.51100000000E-03 0. -1.
        -11    1    3    3    0    0 -0.13728008172E+02 -0.15669438388E+02 -0.77989652395E+01  0.22244400797E+02  0.51100000000E-03 0.  1.
         12    1    3    3    0    0  0.20179682905E+02  0.34413489217E+02  0.11324127759E+02  0.41469792762E+02  0.00000000000E+00 0. -1.
</event>
<event>
 7    1  0.3509180E-013  0.7246152E+02  0.7816164E-02  0.1226708E+00
        -11   -1    0    0    0    0  0.00000000000E+00  0.00000000000E+00  0.45593999997E+02  0.45594000000E+02  0.51100000000E-03 0.  1.
         11   -1    0    0    0    0 -0.00000000000E+00 -0.00000000000E+00 -0.45593999997E+02  0.45594000000E+02  0.51100000000E-03 0. -1.
    9900012    2    1    2    0    0 -0.85429269990E+01 -0.10520312450E+02 -0.12923713342E+02  0.72461522961E+02  0.69999938340E+02 0.  0.
        -12    1    1    2    0    0  0.85429269990E+01  0.10520312450E+02  0.12923713342E+02  0.18726477039E+02  0.00000000000E+00 0.  1.
         11    1    3    3    0    0 -0.15280865836E+02  0.26454943971E+01 -0.39050659139E+01  0.15992280680E+02  0.51100000000E-03 0. -1.
        -11    1    3    3    0    0  0.28554091944E+02 -0.63389671434E+01 -0.14956300078E+02  0.32851325444E+02  0.51100000000E-03 0.  1.
         12    1    3    3    0    0 -0.21816153107E+02 -0.68268397035E+01  0.59376526498E+01  0.23617916837E+02  0.00000000000E+00 0. -1.
</event>
<event>
 7    1  0.3509180E-013  0.7246155E+02  0.7816164E-02  0.1226708E+00
        -11   -1    0    0    0    0  0.00000000000E+00  0.00000000000E+00  0.45593999997E+02  0.45594000000E+02  0.51100000000E-03 0. -1.
         11   -1    0    0    0    0 -0.00000000000E+00 -0.00000000000E+00 -0.45593999997E+02  0.45594000000E+02  0.51100000000E-03 0.  1.
    9900012    2    1    2    0    0  0.37472910024E+00 -0.12720510380E+02  0.13737838033E+02  0.72461548119E+02  0.69999971112E+02 0.  0.
        -12    1    1    2    0    0 -0.37472910024E+00  0.12720510380E+02 -0.13737838033E+02  0.18726451881E+02  0.00000000000E+00 0.  1.
         11    1    3    3    0    0 -0.12260451288E+02 -0.15492144470E+01  0.87575727552E+01  0.15146412513E+02  0.51100000000E-03 0. -1.
        -11    1    3    3    0    0 -0.81495546042E+01 -0.12637539785E+02 -0.19848696720E+02  0.24901674920E+02  0.51100000000E-03 0.  1.
        -12    1    3    3    0    0  0.20784734993E+02  0.14662438517E+01  0.24828961998E+02  0.32413460686E+02  0.00000000000E+00 0.  1.
</event>
<event>
 7    1  0.3509180E-013  0.7246158E+02  0.7816164E-02  0.1226708E+00
        -11   -1    0    0    0    0  0.00000000000E+00  0.00000000000E+00  0.45593999997E+02  0.45594000000E+02  0.51100000000E-03 0.  1.
         11   -1    0    0    0    0 -0.00000000000E+00 -0.00000000000E+00 -0.45593999997E+02  0.45594000000E+02  0.51100000000E-03 0. -1.
    9900012    2    1    2    0    0 -0.90801511384E+01  0.98106144332E+01 -0.13114172393E+02  0.72461579685E+02  0.70000012233E+02 0.  0.
        -12    1    1    2    0    0  0.90801511384E+01 -0.98106144332E+01  0.13114172393E+02  0.18726420315E+02  0.00000000000E+00 0.  1.
         11    1    3    3    0    0  0.15013861368E+02 -0.10066608418E+02  0.53038891513E+01  0.18838361888E+02  0.51100000000E-03 0. -1.
        -11    1    3    3    0    0  0.10719337937E+02  0.12827249248E+01 -0.26079700560E+01  0.11106353907E+02  0.51100000000E-03 0.  1.
        -12    1    3    3    0    0 -0.34813350443E+02  0.18594497926E+02 -0.15810091488E+02  0.42516863891E+02  0.00000000000E+00 0.  1.
</event>
<event>
 7    1  0.3509180E-013  0.7246159E+02  0.7816164E-02  0.1226708E+00
        -11   -1    0    0    0    0  0.00000000000E+00  0.00000000000E+00  0.45593999997E+02  0.45594000000E+02  0.51100000000E-03 0.  1.
         11   -1    0    0    0    0 -0.00000000000E+00 -0.00000000000E+00 -0.45593999997E+02  0.45594000000E+02  0.51100000000E-03 0. -1.
    9900012    2    1    2    0    0  0.77950072552E-02  0.13168448302E+02 -0.13314294980E+02  0.72461587042E+02  0.70000021817E+02 0.  0.
        -12    1    1    2    0    0 -0.77950072552E-02 -0.13168448302E+02  0.13314294980E+02  0.18726412958E+02  0.00000000000E+00 0.  1.
         11    1    3    3    0    0  0.10519217350E+02 -0.20452955270E+02 -0.20734607491E+02  0.30966130869E+02  0.51100000000E-03 0. -1.
        -11    1    3    3    0    0 -0.49960926967E+01  0.27606645416E+01 -0.51802030683E+01  0.77082238574E+01  0.51100000000E-03 0.  1.
        -12    1    3    3    0    0 -0.55153296462E+01  0.30860739031E+02  0.12600515579E+02  0.33787232315E+02  0.00000000000E+00 0.  1.
</event>
<event>
 7    1  0.3509180E-013  0.7246158E+02  0.7816164E-02  0.1226708E+00
        -11   -1    0    0    0    0  0.00000000000E+00  0.00000000000E+00  0.45593999997E+02  0.45594000000E+02  0.51100000000E-03 0. -1.
         11   -1    0    0    0    0 -0.00000000000E+00 -0.00000000000E+00 -0.45593999997E+02  0.45594000000E+02  0.51100000000E-03 0.  1.
    9900012    2    1    2    0    0  0.49645095988E+01 -0.11800449515E+02  0.13666819256E+02  0.72461577147E+02  0.70000008927E+02 0.  0.
        -12    1    1    2    0    0 -0.49645095988E+01  0.11800449515E+02 -0.13666819256E+02  0.18726422853E+02  0.00000000000E+00 0.  1.
         11    1    3    3    0    0  0.22896473913E+02 -0.28385584903E+02  0.13088002223E+02  0.38746428872E+02  0.51100000000E-03 0. -1.
        -11    1    3    3    0    0 -0.79313084029E+00  0.13553896421E+02 -0.63414222497E+01  0.14985019224E+02  0.51100000000E-03 0.  1.
        -12    1    3    3    0    0 -0.17138833474E+02  0.30312389662E+01  0.69202392828E+01  0.18730129051E+02  0.00000000000E+00 0.  1.
</event>
<event>
 7    1  0.3509180E-013  0.7246163E+02  0.7816164E-02  0.1226708E+00
        -11   -1    0    0    0    0  0.00000000000E+00  0.00000000000E+00  0.45593999997E+02  0.45594000000E+02  0.51100000000E-03 0. -1.
         11   -1    0    0    0    0 -0.00000000000E+00 -0.00000000000E+00 -0.45593999997E+02  0.45594000000E+02  0.51100000000E-03 0.  1.
    9900012    2    1    2    0    0 -0.11222247636E+02 -0.14444126796E+02 -0.40131606313E+01  0.72461625573E+02  0.70000072011E+02 0.  0.
        -12    1    1    2    0    0  0.11222247636E+02  0.14444126796E+02  0.40131606313E+01  0.18726374427E+02  0.00000000000E+00 0.  1.
         11    1    3    3    0    0 -0.16859465883E+02 -0.84475958406E+01  0.51405792112E+01  0.19545562673E+02  0.51100000000E-03 0. -1.
        -11    1    3    3    0    0  0.18493337355E+02  0.17414665289E+02 -0.40226303821E+01  0.25718780086E+02  0.51100000000E-03 0.  1.
         12    1    3    3    0    0 -0.12856119109E+02 -0.23411196245E+02 -0.51311094604E+01  0.27197282814E+02  0.00000000000E+00 0. -1.
</event>
<event>
 7    1  0.3509180E-013  0.7246157E+02  0.7816164E-02  0.1226708E+00
        -11   -1    0    0    0    0  0.00000000000E+00  0.00000000000E+00  0.45593999997E+02  0.45594000000E+02  0.51100000000E-03 0. -1.
         11   -1    0    0    0    0 -0.00000000000E+00 -0.00000000000E+00 -0.45593999997E+02  0.45594000000E+02  0.51100000000E-03 0.  1.
    9900012    2    1    2    0    0 -0.18674356027E+02  0.12924025199E+01 -0.52671038418E+00  0.72461566780E+02  0.69999995422E+02 0.  0.
        -12    1    1    2    0    0  0.18674356027E+02 -0.12924025199E+01  0.52671038418E+00  0.18726433220E+02  0.00000000000E+00 0.  1.
         11    1    3    3    0    0 -0.34239286006E+01  0.28222823210E+02 -0.11765213952E+01  0.28454090037E+02  0.51100000000E-03 0. -1.
        -11    1    3    3    0    0  0.84293807417E+01 -0.30835334794E+01  0.47441674109E+01  0.10152327964E+02  0.51100000000E-03 0.  1.
        -12    1    3    3    0    0 -0.23679808169E+02 -0.23846887210E+02 -0.40943563999E+01  0.33855148779E+02  0.00000000000E+00 0.  1.
</event>
<event>
 7    1  0.3509180E-013  0.7246157E+02  0.7816164E-02  0.1226708E+00
        -11   -1    0    0    0    0  0.00000000000E+00  0.00000000000E+00  0.45593999997E+02  0.45594000000E+02  0.51100000000E-03 0.  1.
         11   -1    0    0    0    0 -0.00000000000E+00 -0.00000000000E+00 -0.45593999997E+02  0.45594000000E+02  0.51100000000E-03 0. -1.
    9900012    2    1    2    0    0 -0.14116525931E+02 -0.47712463957E+01 -0.11341872374E+02  0.72461570402E+02  0.70000000141E+02 0.  0.
        -12    1    1    2    0    0  0.14116525931E+02  0.47712463957E+01  0.11341872374E+02  0.18726429598E+02  0.00000000000E+00 0.  1.
         11    1    3    3    0    0 -0.13580562032E+02 -0.73604517669E+01 -0.23806783476E+02  0.28379056627E+02  0.51100000000E-03 0. -1.
        -11    1    3    3    0    0 -0.11809187554E+02 -0.15396207620E+02 -0.12350381810E+00  0.19404004051E+02  0.51100000000E-03 0.  1.
         12    1    3    3    0    0  0.11273223655E+02  0.17985412991E+02  0.12588414920E+02  0.24678509724E+02  0.00000000000E+00 0. -1.
</event>
<event>
 7    1  0.3509180E-013  0.7246155E+02  0.7816164E-02  0.1226708E+00
        -11   -1    0    0    0    0  0.00000000000E+00  0.00000000000E+00  0.45593999997E+02  0.45594000000E+02  0.51100000000E-03 0. -1.
         11   -1    0    0    0    0 -0.00000000000E+00 -0.00000000000E+00 -0.45593999997E+02  0.45594000000E+02  0.51100000000E-03 0.  1.
    9900012    2    1    2    0    0 -0.48042521148E+01 -0.75655723498E+01  0.16442663673E+02  0.72461550470E+02  0.69999974174E+02 0.  0.
        -12    1    1    2    0    0  0.48042521148E+01  0.75655723498E+01 -0.16442663673E+02  0.18726449530E+02  0.00000000000E+00 0.  1.
         11    1    3    3    0    0 -0.58484822620E+01 -0.26201583796E+02  0.81354891032E+01  0.28051986051E+02  0.51100000000E-03 0. -1.
        -11    1    3    3    0    0 -0.17959045803E+02  0.47530600797E+01  0.94595692720E+01  0.20847118682E+02  0.51100000000E-03 0.  1.
         12    1    3    3    0    0  0.19003275951E+02  0.13882951367E+02 -0.11523947024E+01  0.23562445736E+02  0.00000000000E+00 0. -1.
</event>
<event>
 7    1  0.3509180E-013  0.7246153E+02  0.7816164E-02  0.1226708E+00
        -11   -1    0    0    0    0  0.00000000000E+00  0.00000000000E+00  0.45593999997E+02  0.45594000000E+02  0.51100000000E-03 0.  1.
         11   -1    0    0    0    0 -0.00000000000E+00 -0.00000000000E+00 -0.45593999997E+02  0.45594000000E+02  0.51100000000E-03 0. -1.
    9900012    2    1    2    0    0 -0.14541987692E+01 -0.95250693084E+00 -0.18645609234E+02  0.72461529237E+02  0.69999946516E+02 0.  0.
        -12    1    1    2    0    0  0.14541987692E+01  0.95250693084E+00  0.18645609234E+02  0.18726470763E+02  0.00000000000E+00 0.  1.
         11    1    3    3    0    0  0.14644081852E+02 -0.35214802929E+01 -0.92300536128E+01  0.17664762854E+02  0.51100000000E-03 0. -1.
        -11    1    3    3    0    0 -0.87122108484E+01 -0.20694780881E+02 -0.18150812924E+02  0.28872626893E+02  0.51100000000E-03 0.  1.
        -12    1    3    3    0    0 -0.73860697726E+01  0.23263754243E+02  0.87352573034E+01  0.25924139491E+02  0.00000000000E+00 0.  1.
</event>
<event>
 7    1  0.3509180E-013  0.7246155E+02  0.7816164E-02  0.1226708E+00
        -11   -1    0    0    0    0  0.00000000000E+00  0.00000000000E+00  0.45593999997E+02  0.45594000000E+02  0.51100000000E-03 0. -1.
         11   -1    0    0    0    0 -0.00000000000E+00 -0.00000000000E+00 -0.45593999997E+02  0.45594000000E+02  0.51100000000E-03 0.  1.
    9900012    2    1    2    0    0  0.18162490929E+02 -0.32050053538E+01  0.32452793493E+01  0.72461548812E+02  0.69999972015E+02 0.  0.
        -12    1    1    2    0    0 -0.18162490929E+02  0.32050053538E+01 -0.32452793493E+01  0.18726451188E+02  0.00000000000E+00 0.  1.
         11    1    3    3    0    0  0.12917622789E+02 -0.17271050546E+01  0.11836711238E+02  0.17605556043E+02  0.51100000000E-03 0. -1.
        -11    1    3    3    0    0  0.27709647136E+02  0.22311291685E+01  0.51349395167E+01  0.28269596493E+02  0.51100000000E-03 0.  1.
         12    1    3    3    0    0 -0.22464778996E+02 -0.37090294677E+01 -0.13726371406E+02  0.26586396275E+02  0.00000000000E+00 0. -1.
</event>
<event>
 7    1  0.3509180E-013  0.7246155E+02  0.7816164E-02  0.1226708E+00
        -11   -1    0    0    0    0  0.00000000000E+00  0.00000000000E+00  0.45593999997E+02  0.45594000000E+02  0.51100000000E-03 0. -1.
         11   -1    0    0    0    0 -0.00000000000E+00 -0.00000000000E+00 -0.45593999997E+02  0.45594000000E+02  0.51100000000E-03 0.  1.
    9900012    2    1    2    0    0 -0.14729203086E+02  0.11283856553E+02 -0.25307975196E+01  0.72461554039E+02  0.69999978824E+02 0.  0.
        -12    1    1    2    0    0  0.14729203086E+02 -0.11283856553E+02  0.25307975196E+01  0.18726445961E+02  0.00000000000E+00 0.  1.
         11    1    3    3    0    0 -0.10263222121E+01  0.19038393985E+02  0.12437547878E+02  0.22764146817E+02  0.51100000000E-03 0.  1.
        -11    1    3    3    0    0 -0.17738032934E+02  0.14904228812E+02 -0.13077969836E+02  0.26604645161E+02  0.51100000000E-03 0. -1.
        -12    1    3    3    0    0  0.40351520603E+01 -0.22658766244E+02 -0.18903755621E+01  0.23092762061E+02  0.00000000000E+00 0.  1.
</event>
<event>
 7    1  0.3509180E-013  0.7246152E+02  0.7816164E-02  0.1226708E+00
        -11   -1    0    0    0    0  0.00000000000E+00  0.00000000000E+00  0.45593999997E+02  0.45594000000E+02  0.51100000000E-03 0.  1.
         11   -1    0    0    0    0 -0.00000000000E+00 -0.00000000000E+00 -0.45593999997E+02  0.45594000000E+02  0.51100000000E-03 0. -1.
    9900012    2    1    2    0    0  0.23688389060E+01 -0.43167927318E+01 -0.18067515551E+02  0.72461515668E+02  0.69999928839E+02 0.  0.
        -12    1    1    2    0    0 -0.23688389060E+01  0.43167927318E+01  0.18067515551E+02  0.18726484332E+02  0.00000000000E+00 0.  1.
         11    1    3    3    0    0 -0.14696605357E+02 -0.29964172122E+01 -0.31043407869E+02  0.34476976340E+02  0.51100000000E-03 0. -1.
        -11    1    3    3    0    0  0.70528487493E+01  0.10892433623E+02 -0.51347306614E+01  0.13955401999E+02  0.51100000000E-03 0.  1.
        -12    1    3    3    0    0  0.10012595514E+02 -0.12212809143E+02  0.18110622980E+02  0.24029137330E+02  0.00000000000E+00 0.  1.
</event>
<event>
 7    1  0.3509180E-013  0.7246156E+02  0.7816164E-02  0.1226708E+00
        -11   -1    0    0    0    0  0.00000000000E+00  0.00000000000E+00  0.45593999997E+02  0.45594000000E+02  0.51100000000E-03 0. -1.
         11   -1    0    0    0    0 -0.00000000000E+00 -0.00000000000E+00 -0.45593999997E+02  0.45594000000E+02  0.51100000000E-03 0.  1.
    9900012    2    1    2    0    0 -0.99610006096E+01 -0.79939122611E+01 -0.13695085041E+02  0.72461560919E+02  0.69999987787E+02 0.  0.
        -12    1    1    2    0    0  0.99610006096E+01  0.79939122611E+01  0.13695085041E+02  0.18726439081E+02  0.00000000000E+00 0.  1.
         11    1    3    3    0    0  0.17590482517E+02 -0.80015594206E+00 -0.30505974954E+01  0.17870967239E+02  0.51100000000E-03 0. -1.
        -11    1    3    3    0    0  0.83017015507E+01  0.10490018260E+02 -0.46716207676E+01  0.14169783788E+02  0.51100000000E-03 0.  1.
         12    1    3    3    0    0 -0.35853184677E+02 -0.17683774579E+02 -0.59728667775E+01  0.40420809893E+02  0.00000000000E+00 0. -1.
</event>
<event>
 7    1  0.3509180E-013  0.7246155E+02  0.7816164E-02  0.1226708E+00
        -11   -1    0    0    0    0  0.00000000000E+00  0.00000000000E+00  0.45593999997E+02  0.45594000000E+02  0.51100000000E-03 0.  1.
         11   -1    0    0    0    0 -0.00000000000E+00 -0.00000000000E+00 -0.45593999997E+02  0.45594000000E+02  0.51100000000E-03 0. -1.
    9900012    2    1    2    0    0 -0.11436842857E+02  0.53006391135E+01 -0.13848530649E+02  0.72461549437E+02  0.69999972830E+02 0.  0.
        -12    1    1    2    0    0  0.11436842857E+02 -0.53006391135E+01  0.13848530649E+02  0.18726450563E+02  0.00000000000E+00 0.  1.
         11    1    3    3    0    0  0.14305397690E+02  0.71351224854E+00  0.80175260396E+01  0.16414451768E+02  0.51100000000E-03 0.  1.
        -11    1    3    3    0    0  0.12041995365E+01  0.16883937118E+02  0.32216314037E+01  0.17230680146E+02  0.51100000000E-03 0. -1.
         12    1    3    3    0    0 -0.26946440083E+02 -0.12296810253E+02 -0.25087688092E+02  0.38816417523E+02  0.00000000000E+00 0. -1.
</event>
<event>
 7    1  0.3509180E-013  0.7246162E+02  0.7816164E-02  0.1226708E+00
        -11   -1    0    0    0    0  0.00000000000E+00  0.00000000000E+00  0.45593999997E+02  0.45594000000E+02  0.51100000000E-03 0.  1.
         11   -1    0    0    0    0 -0.00000000000E+00 -0.00000000000E+00 -0.45593999997E+02  0.45594000000E+02  0.51100000000E-03 0. -1.
    9900012    2    1    2    0    0 -0.14447334232E+02  0.11890204049E+02  0.75830490896E+00  0.72461616338E+02  0.70000059980E+02 0.  0.
        -12    1    1    2    0    0  0.14447334232E+02 -0.11890204049E+02 -0.75830490896E+00  0.18726383662E+02  0.00000000000E+00 0.  1.
         11    1    3    3    0    0 -0.20695281617E+02  0.13725430614E+01 -0.20442134477E+02  0.29121459749E+02  0.51100000000E-03 0. -1.
        -11    1    3    3    0    0 -0.70711338712E+01 -0.10452704761E+02  0.44651973760E+01  0.13386484188E+02  0.51100000000E-03 0.  1.
         12    1    3    3    0    0  0.13319081256E+02  0.20970365749E+02  0.16735242010E+02  0.29953672401E+02  0.00000000000E+00 0. -1.
</event>
<event>
 7    1  0.3509180E-013  0.7246137E+02  0.7816164E-02  0.1226709E+00
        -11   -1    0    0    0    0  0.00000000000E+00  0.00000000000E+00  0.45593999997E+02  0.45594000000E+02  0.51100000000E-03 0.  1.
         11   -1    0    0    0    0 -0.00000000000E+00 -0.00000000000E+00 -0.45593999997E+02  0.45594000000E+02  0.51100000000E-03 0. -1.
    9900012    2    1    2    0    0 -0.29053007870E+01 -0.12602300177E+02 -0.13543561827E+02  0.72461366309E+02  0.69999734271E+02 0.  0.
        -12    1    1    2    0    0  0.29053007870E+01  0.12602300177E+02  0.13543561827E+02  0.18726633691E+02  0.00000000000E+00 0.  1.
         11    1    3    3    0    0  0.66942835720E+01 -0.11949744025E+01  0.19123294769E+02  0.20296349412E+02  0.51100000000E-03 0. -1.
        -11    1    3    3    0    0 -0.21310293307E+02 -0.74402764371E+00 -0.78449388578E+01  0.22720590747E+02  0.51100000000E-03 0.  1.
         12    1    3    3    0    0  0.11710708948E+02 -0.10663298131E+02 -0.24821917739E+02  0.29444426150E+02  0.00000000000E+00 0. -1.
</event>
<event>
 7    1  0.3509180E-013  0.7246153E+02  0.7816164E-02  0.1226708E+00
        -11   -1    0    0    0    0  0.00000000000E+00  0.00000000000E+00  0.45593999997E+02  0.45594000000E+02  0.51100000000E-03 0. -1.
         11   -1    0    0    0    0 -0.00000000000E+00 -0.00000000000E+00 -0.45593999997E+02  0.45594000000E+02  0.51100000000E-03 0.  1.
    9900012    2    1    2    0    0  0.14471935542E+02  0.47363024879E+01  0.10900046481E+02  0.72461534961E+02  0.69999953971E+02 0.  0.
        -12    1    1    2    0    0 -0.14471935542E+02 -0.47363024879E+01 -0.10900046481E+02  0.18726465039E+02  0.00000000000E+00 0.  1.
         11    1    3    3    0    0 -0.37074780526E-01 -0.14166763568E+02 -0.64779325242E+01  0.15577617744E+02  0.51100000000E-03 0. -1.
        -11    1    3    3    0    0 -0.14145077702E+02 -0.41895504673E+01 -0.26458466552E+01  0.14987863793E+02  0.51100000000E-03 0.  1.
         12    1    3    3    0    0  0.28654088024E+02  0.23092616523E+02  0.20023825661E+02  0.41896053423E+02  0.00000000000E+00 0. -1.
</event>
<event>
 7    1  0.3593976E-013  0.7246183E+02  0.7816164E-02  0.1226707E+00
        -11   -1    0    0    0    0  0.00000000000E+00  0.00000000000E+00  0.45593999997E+02  0.45594000000E+02  0.51100000000E-03 0.  1.
         11   -1    0    0    0    0 -0.00000000000E+00 -0.00000000000E+00 -0.45593999997E+02  0.45594000000E+02  0.51100000000E-03 0. -1.
    9900012    2    1    2    0    0 -0.18713783985E+02 -0.37660580935E+00 -0.56740623773E+00  0.72461828666E+02  0.70000336577E+02 0.  0.
        -12    1    1    2    0    0  0.18713783985E+02  0.37660580935E+00  0.56740623773E+00  0.18726171334E+02  0.00000000000E+00 0.  1.
         11    1    3    3    0    0 -0.24595827103E+02  0.75942198935E-01 -0.36141666666E+01  0.24860061928E+02  0.51100000000E-03 0. -1.
        -11    1    3    3    0    0  0.15861364016E+01 -0.46013397024E+01  0.24682041485E+02  0.25157331494E+02  0.51100000000E-03 0.  1.
         12    1    3    3    0    0  0.42959067163E+01  0.41487916942E+01 -0.21635281057E+02  0.22444435244E+02  0.00000000000E+00 0. -1.
</event>
<event>
 7    1  0.3509180E-013  0.7246160E+02  0.7816164E-02  0.1226708E+00
        -11   -1    0    0    0    0  0.00000000000E+00  0.00000000000E+00  0.45593999997E+02  0.45594000000E+02  0.51100000000E-03 0.  1.
         11   -1    0    0    0    0 -0.00000000000E+00 -0.00000000000E+00 -0.45593999997E+02  0.45594000000E+02  0.51100000000E-03 0. -1.
    9900012    2    1    2    0    0  0.17351325854E+01 -0.15773445730E+02  0.99431271589E+01  0.72461600106E+02  0.70000038835E+02 0.  0.
        -12    1    1    2    0    0 -0.17351325854E+01  0.15773445730E+02 -0.99431271589E+01  0.18726399894E+02  0.00000000000E+00 0.  1.
         11    1    3    3    0    0 -0.19730913161E+01 -0.97272836837E+01 -0.10121684860E+02  0.14176094028E+02  0.51100000000E-03 0. -1.
        -11    1    3    3    0    0 -0.12536179811E+02  0.18928334716E+02  0.62574937019E+00  0.22711874029E+02  0.51100000000E-03 0.  1.
         12    1    3    3    0    0  0.16244403713E+02 -0.24974496762E+02  0.19439062649E+02  0.35573632049E+02  0.00000000000E+00 0. -1.
</event>
<event>
 7    1  0.3509180E-013  0.7246155E+02  0.7816164E-02  0.1226708E+00
        -11   -1    0    0    0    0  0.00000000000E+00  0.00000000000E+00  0.45593999997E+02  0.45594000000E+02  0.51100000000E-03 0.  1.
         11   -1    0    0    0    0 -0.00000000000E+00 -0.00000000000E+00 -0.45593999997E+02  0.45594000000E+02  0.51100000000E-03 0. -1.
    9900012    2    1    2    0    0 -0.13590938917E+02  0.11988450508E+02  0.47162931987E+01  0.72461548447E+02  0.69999971539E+02 0.  0.
        -12    1    1    2    0    0  0.13590938917E+02 -0.11988450508E+02 -0.47162931987E+01  0.18726451553E+02  0.00000000000E+00 0.  1.
         11    1    3    3    0    0 -0.31239964242E+02  0.59879163251E+01  0.35206979858E+01  0.32002903342E+02  0.51100000000E-03 0. -1.
        -11    1    3    3    0    0 -0.18231422585E+01  0.33935443899E+01  0.15618716094E+02  0.16086773570E+02  0.51100000000E-03 0.  1.
         12    1    3    3    0    0  0.19472167583E+02  0.26069897934E+01 -0.14423120881E+02  0.24371871535E+02  0.00000000000E+00 0. -1.
</event>
<event>
 7    1  0.3509180E-013  0.7246175E+02  0.7816164E-02  0.1226708E+00
        -11   -1    0    0    0    0  0.00000000000E+00  0.00000000000E+00  0.45593999997E+02  0.45594000000E+02  0.51100000000E-03 0. -1.
         11   -1    0    0    0    0 -0.00000000000E+00 -0.00000000000E+00 -0.45593999997E+02  0.45594000000E+02  0.51100000000E-03 0.  1.
    9900012    2    1    2    0    0 -0.18417520242E+02 -0.25482460169E+01 -0.22301995804E+01  0.72461751049E+02  0.70000235466E+02 0.  0.
        -12    1    1    2    0    0  0.18417520242E+02  0.25482460169E+01  0.22301995804E+01  0.18726248951E+02  0.00000000000E+00 0.  1.
         11    1    3    3    0    0 -0.77854590668E+01 -0.58980440526E+01 -0.63911066155E+00  0.97881948911E+01  0.51100000000E-03 0. -1.
        -11    1    3    3    0    0 -0.31889591934E+02  0.15797750144E+02  0.75824116490E+01  0.36386920041E+02  0.51100000000E-03 0.  1.
        -12    1    3    3    0    0  0.21257530760E+02 -0.12447952109E+02 -0.91735005678E+01  0.26286636117E+02  0.00000000000E+00 0.  1.
</event>
<event>
 7    1  0.3509180E-013  0.7246150E+02  0.7816164E-02  0.1226708E+00
        -11   -1    0    0    0    0  0.00000000000E+00  0.00000000000E+00  0.45593999997E+02  0.45594000000E+02  0.51100000000E-03 0. -1.
         11   -1    0    0    0    0 -0.00000000000E+00 -0.00000000000E+00 -0.45593999997E+02  0.45594000000E+02  0.51100000000E-03 0.  1.
    9900012    2    1    2    0    0 -0.10767962438E+02  0.47308158634E+01  0.14572314693E+02  0.72461495005E+02  0.69999901922E+02 0.  0.
        -12    1    1    2    0    0  0.10767962438E+02 -0.47308158634E+01 -0.14572314693E+02  0.18726504995E+02  0.00000000000E+00 0.  1.
         11    1    3    3    0    0  0.41153274438E+01 -0.94170775037E+00  0.96418152776E+01  0.10525556307E+02  0.51100000000E-03 0. -1.
        -11    1    3    3    0    0  0.14111085848E+02  0.61656298154E+01 -0.18916007476E+02  0.24391659925E+02  0.51100000000E-03 0.  1.
         12    1    3    3    0    0 -0.28994375730E+02 -0.49310620172E+00  0.23846506891E+02  0.37544278773E+02  0.00000000000E+00 0. -1.
</event>
<event>
 7    1  0.3509180E-013  0.7246157E+02  0.7816164E-02  0.1226708E+00
        -11   -1    0    0    0    0  0.00000000000E+00  0.00000000000E+00  0.45593999997E+02  0.45594000000E+02  0.51100000000E-03 0. -1.
         11   -1    0    0    0    0 -0.00000000000E+00 -0.00000000000E+00 -0.45593999997E+02  0.45594000000E+02  0.51100000000E-03 0.  1.
    9900012    2    1    2    0    0 -0.15503895306E+02  0.91847000707E+01 -0.50940666630E+01  0.72461574815E+02  0.70000005889E+02 0.  0.
        -12    1    1    2    0    0  0.15503895306E+02 -0.91847000707E+01  0.50940666630E+01  0.18726425185E+02  0.00000000000E+00 0.  1.
         11    1    3    3    0    0 -0.22781031011E+01 -0.40561890399E+01 -0.36416195026E+01  0.59079451698E+01  0.51100000000E-03 0. -1.
        -11    1    3    3    0    0  0.12541770231E+02 -0.20530454651E+02 -0.39590562699E+00  0.24061427851E+02  0.51100000000E-03 0.  1.
         12    1    3    3    0    0 -0.25767562436E+02  0.33771343761E+02 -0.10565415334E+01  0.42492201794E+02  0.00000000000E+00 0. -1.
</event>
<event>
 7    1  0.3509180E-013  0.7246125E+02  0.7816164E-02  0.1226709E+00
        -11   -1    0    0    0    0  0.00000000000E+00  0.00000000000E+00  0.45593999997E+02  0.45594000000E+02  0.51100000000E-03 0. -1.
         11   -1    0    0    0    0 -0.00000000000E+00 -0.00000000000E+00 -0.45593999997E+02  0.45594000000E+02  0.51100000000E-03 0.  1.
    9900012    2    1    2    0    0  0.72634555463E+01  0.47975820422E+01  0.16580607531E+02  0.72461251056E+02  0.69999584131E+02 0.  0.
        -12    1    1    2    0    0 -0.72634555463E+01 -0.47975820422E+01 -0.16580607531E+02  0.18726748944E+02  0.00000000000E+00 0.  1.
         11    1    3    3    0    0  0.11169778141E+02 -0.86207159523E+01 -0.11568780802E+02  0.18246023587E+02  0.51100000000E-03 0. -1.
        -11    1    3    3    0    0  0.20612674287E+01 -0.13736406455E+02  0.21552266218E+02  0.25640551186E+02  0.51100000000E-03 0.  1.
        -12    1    3    3    0    0 -0.59675900234E+01  0.27154704450E+02  0.65971221147E+01  0.28574676282E+02  0.00000000000E+00 0.  1.
</event>
<event>
 7    1  0.3509180E-013  0.7246149E+02  0.7816164E-02  0.1226708E+00
        -11   -1    0    0    0    0  0.00000000000E+00  0.00000000000E+00  0.45593999997E+02  0.45594000000E+02  0.51100000000E-03 0.  1.
         11   -1    0    0    0    0 -0.00000000000E+00 -0.00000000000E+00 -0.45593999997E+02  0.45594000000E+02  0.51100000000E-03 0. -1.
    9900012    2    1    2    0    0 -0.10526350945E+02 -0.83568153601E+01 -0.13040007973E+02  0.72461488443E+02  0.69999893373E+02 0.  0.
        -12    1    1    2    0    0  0.10526350945E+02  0.83568153601E+01  0.13040007973E+02  0.18726511557E+02  0.00000000000E+00 0.  1.
         11    1    3    3    0    0  0.12545386906E+02 -0.81163227676E+01 -0.87592652260E+01  0.17320108413E+02  0.51100000000E-03 0. -1.
        -11    1    3    3    0    0  0.10004037239E+01 -0.17126996717E+02  0.12553956450E+02  0.21258801636E+02  0.51100000000E-03 0.  1.
         12    1    3    3    0    0 -0.24072141575E+02  0.16886504125E+02 -0.16834699197E+02  0.33882578394E+02  0.00000000000E+00 0. -1.
</event>
<event>
 7    1  0.5818365E-013  0.7246140E+02  0.7816164E-02  0.1226708E+00
        -11   -1    0    0    0    0  0.00000000000E+00  0.00000000000E+00  0.45593999997E+02  0.45594000000E+02  0.51100000000E-03 0. -1.
         11   -1    0    0    0    0 -0.00000000000E+00 -0.00000000000E+00 -0.45593999997E+02  0.45594000000E+02  0.51100000000E-03 0.  1.
    9900012    2    1    2    0    0 -0.16148508919E+01  0.98792142207E+01  0.15826531747E+02  0.72461395285E+02  0.69999772018E+02 0.  0.
        -12    1    1    2    0    0  0.16148508919E+01 -0.98792142207E+01 -0.15826531747E+02  0.18726604715E+02  0.00000000000E+00 0.  1.
         11    1    3    3    0    0 -0.17779846699E+02 -0.42892840135E+01  0.17356818590E+02  0.25214679411E+02  0.51100000000E-03 0. -1.
        -11    1    3    3    0    0  0.51383096802E+01 -0.63960758682E+01 -0.17256607714E+02  0.19107656134E+02  0.51100000000E-03 0.  1.
         12    1    3    3    0    0  0.11026686126E+02  0.20564574102E+02  0.15726320870E+02  0.28139059740E+02  0.00000000000E+00 0. -1.
</event>
<event>
 7    1  0.3509180E-013  0.7246090E+02  0.7816164E-02  0.1226710E+00
        -11   -1    0    0    0    0  0.00000000000E+00  0.00000000000E+00  0.45593999997E+02  0.45594000000E+02  0.51100000000E-03 0. -1.
         11   -1    0    0    0    0 -0.00000000000E+00 -0.00000000000E+00 -0.45593999997E+02  0.45594000000E+02  0.51100000000E-03 0.  1.
    9900012    2    1    2    0    0  0.16167168226E+02 -0.86917476809E+01  0.37121974590E+01  0.72460901555E+02  0.69999128838E+02 0.  0.
        -12    1    1    2    0    0 -0.16167168226E+02  0.86917476809E+01 -0.37121974590E+01  0.18727098445E+02  0.00000000000E+00 0.  1.
         11    1    3    3    0    0 -0.52667059001E+01  0.90854114331E+01  0.13344005185E+01  0.10586005713E+02  0.51100000000E-03 0. -1.
        -11    1    3    3    0    0  0.30412298540E+01 -0.26343139196E+01 -0.25149650206E+02  0.25469463964E+02  0.51100000000E-03 0.  1.
         12    1    3    3    0    0  0.18392644272E+02 -0.15142845194E+02  0.27527447146E+02  0.36405431879E+02  0.00000000000E+00 0. -1.
</event>
<event>
 7    1  0.3509180E-013  0.7246152E+02  0.7816164E-02  0.1226708E+00
        -11   -1    0    0    0    0  0.00000000000E+00  0.00000000000E+00  0.45593999997E+02  0.45594000000E+02  0.51100000000E-03 0.  1.
         11   -1    0    0    0    0 -0.00000000000E+00 -0.00000000000E+00 -0.45593999997E+02  0.45594000000E+02  0.51100000000E-03 0. -1.
    9900012    2    1    2    0    0  0.33687973918E+01 -0.17683930114E+02  0.51585591128E+01  0.72461523763E+02  0.69999939384E+02 0.  0.
        -12    1    1    2    0    0 -0.33687973918E+01  0.17683930114E+02 -0.51585591128E+01  0.18726476237E+02  0.00000000000E+00 0.  1.
         11    1    3    3    0    0  0.73015326426E+01 -0.92839680458E+01 -0.23390709544E+02  0.26203620643E+02  0.51100000000E-03 0.  1.
        -11    1    3    3    0    0 -0.36954568111E+01 -0.22148734957E+02  0.15371762000E+02  0.27212385571E+02  0.51100000000E-03 0. -1.
        -12    1    3    3    0    0 -0.23727843969E+00  0.13748772889E+02  0.13177506656E+02  0.19045517548E+02  0.00000000000E+00 0.  1.
</event>
<event>
 7    1  0.3509180E-013  0.7246168E+02  0.7816164E-02  0.1226708E+00
        -11   -1    0    0    0    0  0.00000000000E+00  0.00000000000E+00  0.45593999997E+02  0.45594000000E+02  0.51100000000E-03 0.  1.
         11   -1    0    0    0    0 -0.00000000000E+00 -0.00000000000E+00 -0.45593999997E+02  0.45594000000E+02  0.51100000000E-03 0. -1.
    9900012    2    1    2    0    0 -0.18277476809E+02 -0.24606000473E+01 -0.32487320579E+01  0.72461682394E+02  0.70000146031E+02 0.  0.
        -12    1    1    2    0    0  0.18277476809E+02  0.24606000473E+01  0.32487320579E+01  0.18726317606E+02  0.00000000000E+00 0.  1.
         11    1    3    3    0    0 -0.96721119073E+01  0.66756776613E+01  0.11783518512E+02  0.16642287396E+02  0.51100000000E-03 0. -1.
        -11    1    3    3    0    0 -0.18817522846E+02  0.16756098355E+02 -0.11721932172E+02  0.27789740773E+02  0.51100000000E-03 0.  1.
        -12    1    3    3    0    0  0.10212157945E+02 -0.25892376063E+02 -0.33103183981E+01  0.28029654225E+02  0.00000000000E+00 0.  1.
</event>
<event>
 7    1  0.3509180E-013  0.7246155E+02  0.7816164E-02  0.1226708E+00
        -11   -1    0    0    0    0  0.00000000000E+00  0.00000000000E+00  0.45593999997E+02  0.45594000000E+02  0.51100000000E-03 0.  1.
         11   -1    0    0    0    0 -0.00000000000E+00 -0.00000000000E+00 -0.45593999997E+02  0.45594000000E+02  0.51100000000E-03 0. -1.
    9900012    2    1    2    0    0 -0.13811256961E+02  0.19749291333E+01 -0.12491154811E+02  0.72461545118E+02  0.69999967204E+02 0.  0.
        -12    1    1    2    0    0  0.13811256961E+02 -0.19749291333E+01  0.12491154811E+02  0.18726454882E+02  0.00000000000E+00 0.  1.
         11    1    3    3    0    0  0.11657319740E+02  0.78098704898E+01 -0.22616815476E+02  0.26615926118E+02  0.51100000000E-03 0. -1.
        -11    1    3    3    0    0  0.92177728810E+01  0.76417900061E+00  0.36747699456E+01  0.99526499408E+01  0.51100000000E-03 0.  1.
        -12    1    3    3    0    0 -0.34686349582E+02 -0.65991203571E+01  0.64508907197E+01  0.35892969060E+02  0.00000000000E+00 0.  1.
</event>
<event>
 7    1  0.3509180E-013  0.7246178E+02  0.7816164E-02  0.1226707E+00
        -11   -1    0    0    0    0  0.00000000000E+00  0.00000000000E+00  0.45593999997E+02  0.45594000000E+02  0.51100000000E-03 0.  1.
         11   -1    0    0    0    0 -0.00000000000E+00 -0.00000000000E+00 -0.45593999997E+02  0.45594000000E+02  0.51100000000E-03 0. -1.
    9900012    2    1    2    0    0 -0.30357392496E+01 -0.12826211285E+02 -0.13302023127E+02  0.72461782336E+02  0.70000276223E+02 0.  0.
        -12    1    1    2    0    0  0.30357392496E+01  0.12826211285E+02  0.13302023127E+02  0.18726217664E+02  0.00000000000E+00 0.  1.
         11    1    3    3    0    0  0.25023146335E+02  0.32675991457E+01  0.96634544299E+01  0.27022535197E+02  0.51100000000E-03 0. -1.
        -11    1    3    3    0    0 -0.26111729180E+01 -0.20285297580E+01 -0.14903912623E+02  0.15266295186E+02  0.51100000000E-03 0.  1.
        -12    1    3    3    0    0 -0.25447712667E+02 -0.14065280672E+02 -0.80615649349E+01  0.30172951953E+02  0.00000000000E+00 0.  1.
</event>
<event>
 7    1  0.3509180E-013  0.7246159E+02  0.7816164E-02  0.1226708E+00
        -11   -1    0    0    0    0  0.00000000000E+00  0.00000000000E+00  0.45593999997E+02  0.45594000000E+02  0.51100000000E-03 0. -1.
         11   -1    0    0    0    0 -0.00000000000E+00 -0.00000000000E+00 -0.45593999997E+02  0.45594000000E+02  0.51100000000E-03 0.  1.
    9900012    2    1    2    0    0  0.79502572572E+01 -0.61646606182E+01  0.15794582189E+02  0.72461589305E+02  0.70000024764E+02 0.  0.
        -12    1    1    2    0    0 -0.79502572572E+01  0.61646606182E+01 -0.15794582189E+02  0.18726410695E+02  0.00000000000E+00 0.  1.
         11    1    3    3    0    0  0.18407214952E+02 -0.37873495358E+01 -0.41341622403E+01  0.19242164028E+02  0.51100000000E-03 0. -1.
        -11    1    3    3    0    0  0.12266201407E+02  0.14800019115E+02  0.14744919995E+01  0.19278858619E+02  0.51100000000E-03 0.  1.
        -12    1    3    3    0    0 -0.22723159101E+02 -0.17177330197E+02  0.18454252430E+02  0.33940566657E+02  0.00000000000E+00 0.  1.
</event>
<event>
 7    1  0.3509180E-013  0.7246155E+02  0.7816164E-02  0.1226708E+00
        -11   -1    0    0    0    0  0.00000000000E+00  0.00000000000E+00  0.45593999997E+02  0.45594000000E+02  0.51100000000E-03 0.  1.
         11   -1    0    0    0    0 -0.00000000000E+00 -0.00000000000E+00 -0.45593999997E+02  0.45594000000E+02  0.51100000000E-03 0. -1.
    9900012    2    1    2    0    0 -0.34291380837E-01 -0.18681850559E+02 -0.12911812946E+01  0.72461551716E+02  0.69999975798E+02 0.  0.
        -12    1    1    2    0    0  0.34291380837E-01  0.18681850559E+02  0.12911812946E+01  0.18726448284E+02  0.00000000000E+00 0.  1.
         11    1    3    3    0    0  0.46887618184E+01  0.19588501644E+01  0.37858112431E+01  0.63367143210E+01  0.51100000000E-03 0. -1.
        -11    1    3    3    0    0  0.21430188542E+02 -0.14058366135E+02  0.17432547440E+02  0.30996521577E+02  0.51100000000E-03 0.  1.
         12    1    3    3    0    0 -0.26153241741E+02 -0.65823345882E+01 -0.22509539978E+02  0.35128315818E+02  0.00000000000E+00 0. -1.
</event>
<event>
 7    1  0.3509180E-013  0.7246165E+02  0.7816164E-02  0.1226708E+00
        -11   -1    0    0    0    0  0.00000000000E+00  0.00000000000E+00  0.45593999997E+02  0.45594000000E+02  0.51100000000E-03 0. -1.
         11   -1    0    0    0    0 -0.00000000000E+00 -0.00000000000E+00 -0.45593999997E+02  0.45594000000E+02  0.51100000000E-03 0.  1.
    9900012    2    1    2    0    0 -0.25507398565E+01 -0.17821393774E+02  0.51543861695E+01  0.72461653676E+02  0.70000108620E+02 0.  0.
        -12    1    1    2    0    0  0.25507398565E+01  0.17821393774E+02 -0.51543861695E+01  0.18726346324E+02  0.00000000000E+00 0.  1.
         11    1    3    3    0    0 -0.65399079277E+01 -0.29243860645E+02  0.11432618840E+01  0.29988011423E+02  0.51100000000E-03 0. -1.
        -11    1    3    3    0    0 -0.16555475575E+02  0.52479839770E+00 -0.53469516282E+01  0.17405432394E+02  0.51100000000E-03 0.  1.
         12    1    3    3    0    0  0.20544643646E+02  0.10897668473E+02  0.93580759137E+01  0.25068209858E+02  0.00000000000E+00 0. -1.
</event>
<event>
 7    1  0.3509180E-013  0.7246156E+02  0.7816164E-02  0.1226708E+00
        -11   -1    0    0    0    0  0.00000000000E+00  0.00000000000E+00  0.45593999997E+02  0.45594000000E+02  0.51100000000E-03 0. -1.
         11   -1    0    0    0    0 -0.00000000000E+00 -0.00000000000E+00 -0.45593999997E+02  0.45594000000E+02  0.51100000000E-03 0.  1.
    9900012    2    1    2    0    0  0.10212782464E+02  0.10953313538E+01  0.15658188668E+02  0.72461560168E+02  0.69999986808E+02 0.  0.
        -12    1    1    2    0    0 -0.10212782464E+02 -0.10953313538E+01 -0.15658188668E+02  0.18726439832E+02  0.00000000000E+00 0.  1.
         11    1    3    3    0    0 -0.16564302366E+01  0.22566068330E+02  0.29849365501E+02  0.37456051875E+02  0.51100000000E-03 0. -1.
        -11    1    3    3    0    0  0.10045112087E+01 -0.94171119646E+00  0.48059391582E+01  0.49992913697E+01  0.51100000000E-03 0.  1.
        -12    1    3    3    0    0  0.10864701492E+02 -0.20529025780E+02 -0.18997115992E+02  0.30006216923E+02  0.00000000000E+00 0.  1.
</event>
<event>
 7    1  0.3509180E-013  0.7246088E+02  0.7816164E-02  0.1226710E+00
        -11   -1    0    0    0    0  0.00000000000E+00  0.00000000000E+00  0.45593999997E+02  0.45594000000E+02  0.51100000000E-03 0. -1.
         11   -1    0    0    0    0 -0.00000000000E+00 -0.00000000000E+00 -0.45593999997E+02  0.45594000000E+02  0.51100000000E-03 0.  1.
    9900012    2    1    2    0    0 -0.83935620405E+01  0.13879415712E+02  0.93602855507E+01  0.72460880365E+02  0.69999101233E+02 0.  0.
        -12    1    1    2    0    0  0.83935620405E+01 -0.13879415712E+02 -0.93602855507E+01  0.18727119635E+02  0.00000000000E+00 0.  1.
         11    1    3    3    0    0  0.20915749572E+01  0.19102142150E+01  0.66226601217E+01  0.72030015616E+01  0.51100000000E-03 0. -1.
        -11    1    3    3    0    0 -0.36685308180E+02  0.13025867824E+02  0.28850882420E+01  0.39035993688E+02  0.51100000000E-03 0.  1.
         12    1    3    3    0    0  0.26200171182E+02 -0.10566663269E+01 -0.14746281299E+00  0.26221885115E+02  0.00000000000E+00 0. -1.
</event>
<event>
 7    1  0.3509180E-013  0.7246167E+02  0.7816164E-02  0.1226708E+00
        -11   -1    0    0    0    0  0.00000000000E+00  0.00000000000E+00  0.45593999997E+02  0.45594000000E+02  0.51100000000E-03 0.  1.
         11   -1    0    0    0    0 -0.00000000000E+00 -0.00000000000E+00 -0.45593999997E+02  0.45594000000E+02  0.51100000000E-03 0. -1.
    9900012    2    1    2    0    0  0.73027933974E+01 -0.70658706134E+01 -0.15729524898E+02  0.72461674347E+02  0.70000135548E+02 0.  0.
        -12    1    1    2    0    0 -0.73027933974E+01  0.70658706134E+01  0.15729524898E+02  0.18726325653E+02  0.00000000000E+00 0.  1.
         11    1    3    3    0    0  0.28044923479E+01 -0.34020042788E+01 -0.27075077812E+02  0.27431708828E+02  0.51100000000E-03 0. -1.
        -11    1    3    3    0    0  0.24004935833E+01  0.19834081671E+02  0.47997874271E+01  0.20547289962E+02  0.51100000000E-03 0.  1.
        -12    1    3    3    0    0  0.20978074662E+01 -0.23497948006E+02  0.65457654864E+01  0.24482675557E+02  0.00000000000E+00 0.  1.
</event>
<event>
 7    1  0.3509180E-013  0.7246161E+02  0.7816164E-02  0.1226708E+00
        -11   -1    0    0    0    0  0.00000000000E+00  0.00000000000E+00  0.45593999997E+02  0.45594000000E+02  0.51100000000E-03 0. -1.
         11   -1    0    0    0    0 -0.00000000000E+00 -0.00000000000E+00 -0.45593999997E+02  0.45594000000E+02  0.51100000000E-03 0.  1.
    9900012    2    1    2    0    0  0.98515798041E+00  0.18660815909E+02  0.12170304823E+01  0.72461608200E+02  0.70000049380E+02 0.  0.
        -12    1    1    2    0    0 -0.98515798041E+00 -0.18660815909E+02 -0.12170304823E+01  0.18726391800E+02  0.00000000000E+00 0.  1.
         11    1    3    3    0    0 -0.19201332188E+00 -0.10543229292E+02  0.22760970136E+02  0.25085021722E+02  0.51100000000E-03 0. -1.
        -11    1    3    3    0    0 -0.71688907366E+01  0.34340201572E+01  0.50490306895E+01  0.94169103212E+01  0.51100000000E-03 0.  1.
        -12    1    3    3    0    0  0.83460620389E+01  0.25770025043E+02 -0.26592970343E+02  0.37959676157E+02  0.00000000000E+00 0.  1.
</event>
<event>
 7    1  0.3509180E-013  0.7246157E+02  0.7816164E-02  0.1226708E+00
        -11   -1    0    0    0    0  0.00000000000E+00  0.00000000000E+00  0.45593999997E+02  0.45594000000E+02  0.51100000000E-03 0.  1.
         11   -1    0    0    0    0 -0.00000000000E+00 -0.00000000000E+00 -0.45593999997E+02  0.45594000000E+02  0.51100000000E-03 0. -1.
    9900012    2    1    2    0    0 -0.14362719714E+02  0.79413998776E+01  0.90180640383E+01  0.72461574057E+02  0.70000004901E+02 0.  0.
        -12    1    1    2    0    0  0.14362719714E+02 -0.79413998776E+01 -0.90180640383E+01  0.18726425943E+02  0.00000000000E+00 0.  1.
         11    1    3    3    0    0 -0.37522386572E+01  0.14397459055E+02 -0.20198402574E+02  0.25086681506E+02  0.51100000000E-03 0. -1.
        -11    1    3    3    0    0 -0.54306750261E+01  0.12785831614E+02  0.26113628558E+01  0.14134671468E+02  0.51100000000E-03 0.  1.
        -12    1    3    3    0    0 -0.51798060309E+01 -0.19241890791E+02  0.26605103756E+02  0.33240221083E+02  0.00000000000E+00 0.  1.
</event>
<event>
 7    1  0.3509180E-013  0.7246155E+02  0.7816164E-02  0.1226708E+00
        -11   -1    0    0    0    0  0.00000000000E+00  0.00000000000E+00  0.45593999997E+02  0.45594000000E+02  0.51100000000E-03 0.  1.
         11   -1    0    0    0    0 -0.00000000000E+00 -0.00000000000E+00 -0.45593999997E+02  0.45594000000E+02  0.51100000000E-03 0. -1.
    9900012    2    1    2    0    0 -0.14993154553E+02  0.11161932027E+02 -0.11386758638E+01  0.72461548314E+02  0.69999971367E+02 0.  0.
        -12    1    1    2    0    0  0.14993154553E+02 -0.11161932027E+02  0.11386758638E+01  0.18726451686E+02  0.00000000000E+00 0.  1.
         11    1    3    3    0    0  0.81192010515E+00  0.29358571908E+01  0.25052002109E+02  0.25236506922E+02  0.51100000000E-03 0.  1.
        -11    1    3    3    0    0 -0.18826012163E+02 -0.58027769832E+01 -0.29625331125E+01  0.19921535016E+02  0.51100000000E-03 0. -1.
        -12    1    3    3    0    0  0.30209375044E+01  0.14028851819E+02 -0.23228144861E+02  0.27303506376E+02  0.00000000000E+00 0.  1.
</event>
<event>
 7    1  0.3509180E-013  0.7246157E+02  0.7816164E-02  0.1226708E+00
        -11   -1    0    0    0    0  0.00000000000E+00  0.00000000000E+00  0.45593999997E+02  0.45594000000E+02  0.51100000000E-03 0.  1.
         11   -1    0    0    0    0 -0.00000000000E+00 -0.00000000000E+00 -0.45593999997E+02  0.45594000000E+02  0.51100000000E-03 0. -1.
    9900012    2    1    2    0    0  0.10471349575E+02  0.81196073869E+00 -0.15503889265E+02  0.72461574166E+02  0.70000005044E+02 0.  0.
        -12    1    1    2    0    0 -0.10471349575E+02 -0.81196073869E+00  0.15503889265E+02  0.18726425834E+02  0.00000000000E+00 0.  1.
         11    1    3    3    0    0  0.97463618919E+01  0.20883876248E+02  0.61709215861E+00  0.23054471589E+02  0.51100000000E-03 0. -1.
        -11    1    3    3    0    0  0.88219223339E+01 -0.43668827527E+01  0.12414817340E+02  0.15843726471E+02  0.51100000000E-03 0.  1.
        -12    1    3    3    0    0 -0.80969346511E+01 -0.15705032756E+02 -0.28535798763E+02  0.33563376107E+02  0.00000000000E+00 0.  1.
</event>
<event>
 7    1  0.3509180E-013  0.7246123E+02  0.7816164E-02  0.1226709E+00
        -11   -1    0    0    0    0  0.00000000000E+00  0.00000000000E+00  0.45593999997E+02  0.45594000000E+02  0.51100000000E-03 0. -1.
         11   -1    0    0    0    0 -0.00000000000E+00 -0.00000000000E+00 -0.45593999997E+02  0.45594000000E+02  0.51100000000E-03 0.  1.
    9900012    2    1    2    0    0  0.13593008742E+01 -0.12934530900E+02  0.13473750378E+02  0.72461234724E+02  0.69999562856E+02 0.  0.
        -12    1    1    2    0    0 -0.13593008742E+01  0.12934530900E+02 -0.13473750378E+02  0.18726765276E+02  0.00000000000E+00 0.  1.
         11    1    3    3    0    0  0.12321659537E+02  0.11200147700E+02  0.14588157486E+02  0.22137771825E+02  0.51100000000E-03 0. -1.
        -11    1    3    3    0    0  0.14859923285E+02 -0.17309781468E+01 -0.53224048698E+01  0.15878967197E+02  0.51100000000E-03 0.  1.
         12    1    3    3    0    0 -0.25822281948E+02 -0.22403700453E+02  0.42079977610E+01  0.34444495702E+02  0.00000000000E+00 0. -1.
</event>
<event>
 7    1  0.3509180E-013  0.7246183E+02  0.7816164E-02  0.1226707E+00
        -11   -1    0    0    0    0  0.00000000000E+00  0.00000000000E+00  0.45593999997E+02  0.45594000000E+02  0.51100000000E-03 0.  1.
         11   -1    0    0    0    0 -0.00000000000E+00 -0.00000000000E+00 -0.45593999997E+02  0.45594000000E+02  0.51100000000E-03 0. -1.
    9900012    2    1    2    0    0 -0.89645562835E+01  0.14547174069E+02 -0.76606641229E+01  0.72461833346E+02  0.70000342672E+02 0.  0.
        -12    1    1    2    0    0  0.89645562835E+01 -0.14547174069E+02  0.76606641229E+01  0.18726166654E+02  0.00000000000E+00 0.  1.
         11    1    3    3    0    0  0.21206938572E+02  0.46072105490E+01 -0.24462290193E+02  0.32701135674E+02  0.51100000000E-03 0. -1.
        -11    1    3    3    0    0 -0.40983730705E+01 -0.83234909376E+00  0.98572980133E+01  0.10707744451E+02  0.51100000000E-03 0.  1.
        -12    1    3    3    0    0 -0.26073121785E+02  0.10772312614E+02  0.69443280566E+01  0.29052953221E+02  0.00000000000E+00 0.  1.
</event>
<event>
 7    1  0.3509180E-013  0.7246154E+02  0.7816164E-02  0.1226708E+00
        -11   -1    0    0    0    0  0.00000000000E+00  0.00000000000E+00  0.45593999997E+02  0.45594000000E+02  0.51100000000E-03 0.  1.
         11   -1    0    0    0    0 -0.00000000000E+00 -0.00000000000E+00 -0.45593999997E+02  0.45594000000E+02  0.51100000000E-03 0. -1.
    9900012    2    1    2    0    0  0.76852074299E+01  0.44357752956E+01 -0.16490661485E+02  0.72461536587E+02  0.69999956090E+02 0.  0.
        -12    1    1    2    0    0 -0.76852074299E+01 -0.44357752956E+01  0.16490661485E+02  0.18726463413E+02  0.00000000000E+00 0.  1.
         11    1    3    3    0    0 -0.70990251644E+00 -0.12146676710E+02  0.18290633243E+01  0.12304112710E+02  0.51100000000E-03 0. -1.
        -11    1    3    3    0    0 -0.13092540912E+02  0.19341707030E+01  0.13605622145E+02  0.18980742822E+02  0.51100000000E-03 0.  1.
         12    1    3    3    0    0  0.21487650859E+02  0.14648281303E+02 -0.31925346955E+02  0.41176681055E+02  0.00000000000E+00 0. -1.
</event>
<event>
 7    1  0.5083451E-013  0.7246155E+02  0.7816164E-02  0.1226708E+00
        -11   -1    0    0    0    0  0.00000000000E+00  0.00000000000E+00  0.45593999997E+02  0.45594000000E+02  0.51100000000E-03 0.  1.
         11   -1    0    0    0    0 -0.00000000000E+00 -0.00000000000E+00 -0.45593999997E+02  0.45594000000E+02  0.51100000000E-03 0. -1.
    9900012    2    1    2    0    0 -0.14164800345E+02  0.12036376189E+02  0.22724104708E+01  0.72461554263E+02  0.69999979117E+02 0.  0.
        -12    1    1    2    0    0  0.14164800345E+02 -0.12036376189E+02 -0.22724104708E+01  0.18726445737E+02  0.00000000000E+00 0.  1.
         11    1    3    3    0    0 -0.27780801070E+02  0.10337015066E+02  0.17766004302E+02  0.34558033765E+02  0.51100000000E-03 0. -1.
        -11    1    3    3    0    0 -0.86733007080E+01 -0.38415691049E+01 -0.10955817661E+02  0.14491850787E+02  0.51100000000E-03 0.  1.
        -12    1    3    3    0    0  0.22289301432E+02  0.55409302271E+01 -0.45377761706E+01  0.23411669712E+02  0.00000000000E+00 0.  1.
</event>
<event>
 7    1  0.3509180E-013  0.7246158E+02  0.7816164E-02  0.1226708E+00
        -11   -1    0    0    0    0  0.00000000000E+00  0.00000000000E+00  0.45593999997E+02  0.45594000000E+02  0.51100000000E-03 0.  1.
         11   -1    0    0    0    0 -0.00000000000E+00 -0.00000000000E+00 -0.45593999997E+02  0.45594000000E+02  0.51100000000E-03 0. -1.
    9900012    2    1    2    0    0 -0.15696048355E+02 -0.90613998040E-01 -0.10212960295E+02  0.72461582755E+02  0.70000016232E+02 0.  0.
        -12    1    1    2    0    0  0.15696048355E+02  0.90613998040E-01  0.10212960295E+02  0.18726417245E+02  0.00000000000E+00 0.  1.
         11    1    3    3    0    0 -0.12159693014E+02 -0.18522131817E+02 -0.12093347054E+02  0.25242356159E+02  0.51100000000E-03 0. -1.
        -11    1    3    3    0    0 -0.96716745795E+01  0.21309781895E+01  0.19856613876E+02  0.22189354927E+02  0.51100000000E-03 0.  1.
        -12    1    3    3    0    0  0.61353192382E+01  0.16300539629E+02 -0.17976227117E+02  0.25029871668E+02  0.00000000000E+00 0.  1.
</event>
<event>
 7    1  0.3509180E-013  0.7246158E+02  0.7816164E-02  0.1226708E+00
        -11   -1    0    0    0    0  0.00000000000E+00  0.00000000000E+00  0.45593999997E+02  0.45594000000E+02  0.51100000000E-03 0.  1.
         11   -1    0    0    0    0 -0.00000000000E+00 -0.00000000000E+00 -0.45593999997E+02  0.45594000000E+02  0.51100000000E-03 0. -1.
    9900012    2    1    2    0    0  0.54874379850E+00 -0.29624789562E+01 -0.18482459909E+02  0.72461582147E+02  0.70000015440E+02 0.  0.
        -12    1    1    2    0    0 -0.54874379850E+00  0.29624789562E+01  0.18482459909E+02  0.18726417853E+02  0.00000000000E+00 0.  1.
         11    1    3    3    0    0 -0.22229764765E+02  0.13166666350E+02 -0.28404782675E+02  0.38397333545E+02  0.51100000000E-03 0. -1.
        -11    1    3    3    0    0  0.55218991504E-01 -0.66695030223E+01 -0.16426061974E+01  0.68690228623E+01  0.51100000000E-03 0.  1.
        -12    1    3    3    0    0  0.22723289572E+02 -0.94596422837E+01  0.11564928963E+02  0.27195225740E+02  0.00000000000E+00 0.  1.
</event>
<event>
 7    1  0.3509180E-013  0.7246156E+02  0.7816164E-02  0.1226708E+00
        -11   -1    0    0    0    0  0.00000000000E+00  0.00000000000E+00  0.45593999997E+02  0.45594000000E+02  0.51100000000E-03 0.  1.
         11   -1    0    0    0    0 -0.00000000000E+00 -0.00000000000E+00 -0.45593999997E+02  0.45594000000E+02  0.51100000000E-03 0. -1.
    9900012    2    1    2    0    0 -0.16942652723E+02 -0.75807915630E+01 -0.24814857486E+01  0.72461557371E+02  0.69999983165E+02 0.  0.
        -12    1    1    2    0    0  0.16942652723E+02  0.75807915630E+01  0.24814857486E+01  0.18726442629E+02  0.00000000000E+00 0.  1.
         11    1    3    3    0    0 -0.90841294647E+01 -0.11851222349E+02 -0.33678681472E+02  0.36840554627E+02  0.51100000000E-03 0. -1.
        -11    1    3    3    0    0  0.20654384739E+01 -0.54071192657E+00 -0.38416523614E+00  0.21693290822E+01  0.51100000000E-03 0.  1.
        -12    1    3    3    0    0 -0.99239617325E+01  0.48111427122E+01  0.31581360960E+02  0.33451673661E+02  0.00000000000E+00 0.  1.
</event>
<event>
 7    1  0.3509180E-013  0.7246160E+02  0.7816164E-02  0.1226708E+00
        -11   -1    0    0    0    0  0.00000000000E+00  0.00000000000E+00  0.45593999997E+02  0.45594000000E+02  0.51100000000E-03 0. -1.
         11   -1    0    0    0    0 -0.00000000000E+00 -0.00000000000E+00 -0.45593999997E+02  0.45594000000E+02  0.51100000000E-03 0.  1.
    9900012    2    1    2    0    0  0.55108967683E+01 -0.54147293411E+01  0.17058391343E+02  0.72461601728E+02  0.70000040948E+02 0.  0.
        -12    1    1    2    0    0 -0.55108967683E+01  0.54147293411E+01 -0.17058391343E+02  0.18726398272E+02  0.00000000000E+00 0.  1.
         11    1    3    3    0    0 -0.75325602603E+00  0.20133525642E+02  0.39631338912E+01  0.20533696207E+02  0.51100000000E-03 0. -1.
        -11    1    3    3    0    0 -0.13631735848E+02  0.32263325871E+01  0.91294365545E+01  0.16720647603E+02  0.51100000000E-03 0.  1.
         12    1    3    3    0    0  0.19895888642E+02 -0.28774587570E+02  0.39658208978E+01  0.35207257918E+02  0.00000000000E+00 0. -1.
</event>
<event>
 7    1  0.3509180E-013  0.7246152E+02  0.7816164E-02  0.1226708E+00
        -11   -1    0    0    0    0  0.00000000000E+00  0.00000000000E+00  0.45593999997E+02  0.45594000000E+02  0.51100000000E-03 0. -1.
         11   -1    0    0    0    0 -0.00000000000E+00 -0.00000000000E+00 -0.45593999997E+02  0.45594000000E+02  0.51100000000E-03 0.  1.
    9900012    2    1    2    0    0 -0.60210442676E+01 -0.17440192191E+02  0.32043311514E+01  0.72461520996E+02  0.69999935780E+02 0.  0.
        -12    1    1    2    0    0  0.60210442676E+01  0.17440192191E+02 -0.32043311514E+01  0.18726479004E+02  0.00000000000E+00 0.  1.
         11    1    3    3    0    0  0.13974119907E+02 -0.28457122309E+01  0.41138215767E+01  0.14842426806E+02  0.51100000000E-03 0. -1.
        -11    1    3    3    0    0  0.14823734408E+02 -0.14046100720E+02 -0.82597514130E+01  0.22028607330E+02  0.51100000000E-03 0.  1.
         12    1    3    3    0    0 -0.34818898583E+02 -0.54837924036E+00  0.73502609877E+01  0.35590486860E+02  0.00000000000E+00 0. -1.
</event>
<event>
 7    1  0.3509180E-013  0.7246166E+02  0.7816164E-02  0.1226708E+00
        -11   -1    0    0    0    0  0.00000000000E+00  0.00000000000E+00  0.45593999997E+02  0.45594000000E+02  0.51100000000E-03 0. -1.
         11   -1    0    0    0    0 -0.00000000000E+00 -0.00000000000E+00 -0.45593999997E+02  0.45594000000E+02  0.51100000000E-03 0.  1.
    9900012    2    1    2    0    0  0.16627971960E+02  0.78298374756E+01  0.35888704487E+01  0.72461660329E+02  0.70000117286E+02 0.  0.
        -12    1    1    2    0    0 -0.16627971960E+02 -0.78298374756E+01 -0.35888704487E+01  0.18726339671E+02  0.00000000000E+00 0.  1.
         11    1    3    3    0    0  0.12959217868E+02  0.11038766855E+02  0.12612580027E+02  0.21186620226E+02  0.51100000000E-03 0. -1.
        -11    1    3    3    0    0  0.25293756841E+02  0.53424707048E+01 -0.10659426933E+02  0.27963181349E+02  0.51100000000E-03 0.  1.
         12    1    3    3    0    0 -0.21625002749E+02 -0.85514000840E+01  0.16357173549E+01  0.23311858753E+02  0.00000000000E+00 0. -1.
</event>
<event>
 7    1  0.3509180E-013  0.7246156E+02  0.7816164E-02  0.1226708E+00
        -11   -1    0    0    0    0  0.00000000000E+00  0.00000000000E+00  0.45593999997E+02  0.45594000000E+02  0.51100000000E-03 0.  1.
         11   -1    0    0    0    0 -0.00000000000E+00 -0.00000000000E+00 -0.45593999997E+02  0.45594000000E+02  0.51100000000E-03 0. -1.
    9900012    2    1    2    0    0 -0.55160669813E+01 -0.78295487946E+01 -0.16091943290E+02  0.72461562321E+02  0.69999989614E+02 0.  0.
        -12    1    1    2    0    0  0.55160669813E+01  0.78295487946E+01  0.16091943290E+02  0.18726437679E+02  0.00000000000E+00 0.  1.
         11    1    3    3    0    0  0.12310155850E+02  0.10811357363E+02 -0.53039198390E+01  0.17220828987E+02  0.51100000000E-03 0. -1.
        -11    1    3    3    0    0  0.44371085672E+01 -0.22051111116E+02  0.99767661608E+01  0.24606407644E+02  0.51100000000E-03 0.  1.
         12    1    3    3    0    0 -0.22263331399E+02  0.34102049579E+01 -0.20764789612E+02  0.30634325690E+02  0.00000000000E+00 0. -1.
</event>
<event>
 7    1  0.3509180E-013  0.7246150E+02  0.7816164E-02  0.1226708E+00
        -11   -1    0    0    0    0  0.00000000000E+00  0.00000000000E+00  0.45593999997E+02  0.45594000000E+02  0.51100000000E-03 0.  1.
         11   -1    0    0    0    0 -0.00000000000E+00 -0.00000000000E+00 -0.45593999997E+02  0.45594000000E+02  0.51100000000E-03 0. -1.
    9900012    2    1    2    0    0 -0.51031672616E+01 -0.17781623749E+02  0.29074811454E+01  0.72461497233E+02  0.69999904824E+02 0.  0.
        -12    1    1    2    0    0  0.51031672616E+01  0.17781623749E+02 -0.29074811454E+01  0.18726502767E+02  0.00000000000E+00 0.  1.
         11    1    3    3    0    0 -0.17410950150E+02  0.58529388271E+01  0.44052737819E+01  0.18889269848E+02  0.51100000000E-03 0.  1.
        -11    1    3    3    0    0 -0.10265728020E+02 -0.27180265598E+02 -0.73800953415E+01  0.29976954770E+02  0.51100000000E-03 0. -1.
        -12    1    3    3    0    0  0.22573510909E+02  0.35457030215E+01  0.58823027051E+01  0.23595272615E+02  0.00000000000E+00 0.  1.
</event>
<event>
 7    1  0.3509180E-013  0.7246139E+02  0.7816164E-02  0.1226708E+00
        -11   -1    0    0    0    0  0.00000000000E+00  0.00000000000E+00  0.45593999997E+02  0.45594000000E+02  0.51100000000E-03 0.  1.
         11   -1    0    0    0    0 -0.00000000000E+00 -0.00000000000E+00 -0.45593999997E+02  0.45594000000E+02  0.51100000000E-03 0. -1.
    9900012    2    1    2    0    0 -0.61545870667E+01  0.16504589471E+02 -0.63565239996E+01  0.72461392915E+02  0.69999768930E+02 0.  0.
        -12    1    1    2    0    0  0.61545870667E+01 -0.16504589471E+02  0.63565239996E+01  0.18726607085E+02  0.00000000000E+00 0.  1.
         11    1    3    3    0    0  0.56747590056E+01  0.13295794820E+02  0.54099920079E+01  0.15435318703E+02  0.51100000000E-03 0. -1.
        -11    1    3    3    0    0 -0.14766762103E+02 -0.13535712703E+02  0.15201622314E+02  0.25146810983E+02  0.51100000000E-03 0.  1.
         12    1    3    3    0    0  0.29374160305E+01  0.16744507354E+02 -0.26968138322E+02  0.31879263229E+02  0.00000000000E+00 0. -1.
</event>
<event>
 7    1  0.3509180E-013  0.7246156E+02  0.7816164E-02  0.1226708E+00
        -11   -1    0    0    0    0  0.00000000000E+00  0.00000000000E+00  0.45593999997E+02  0.45594000000E+02  0.51100000000E-03 0. -1.
         11   -1    0    0    0    0 -0.00000000000E+00 -0.00000000000E+00 -0.45593999997E+02  0.45594000000E+02  0.51100000000E-03 0.  1.
    9900012    2    1    2    0    0  0.15145959869E+02 -0.16623508947E+01  0.10886500700E+02  0.72461563918E+02  0.69999991693E+02 0.  0.
        -12    1    1    2    0    0 -0.15145959869E+02  0.16623508947E+01 -0.10886500700E+02  0.18726436082E+02  0.00000000000E+00 0.  1.
         11    1    3    3    0    0  0.29618712092E+02  0.11618967860E+02 -0.14228860281E+02  0.34852962360E+02  0.51100000000E-03 0.  1.
        -11    1    3    3    0    0 -0.37666296942E+01 -0.15816680989E+02  0.10657815906E+02  0.19440780255E+02  0.51100000000E-03 0. -1.
        -12    1    3    3    0    0 -0.10706122529E+02  0.25353622348E+01  0.14457545075E+02  0.18167821302E+02  0.00000000000E+00 0.  1.
</event>
<event>
 7    1  0.3509180E-013  0.7246156E+02  0.7816164E-02  0.1226708E+00
        -11   -1    0    0    0    0  0.00000000000E+00  0.00000000000E+00  0.45593999997E+02  0.45594000000E+02  0.51100000000E-03 0.  1.
         11   -1    0    0    0    0 -0.00000000000E+00 -0.00000000000E+00 -0.45593999997E+02  0.45594000000E+02  0.51100000000E-03 0. -1.
    9900012    2    1    2    0    0  0.82936836903E+01  0.74751887878E-01 -0.16789547753E+02  0.72461556377E+02  0.69999981871E+02 0.  0.
        -12    1    1    2    0    0 -0.82936836903E+01 -0.74751887878E-01  0.16789547753E+02  0.18726443623E+02  0.00000000000E+00 0.  1.
         11    1    3    3    0    0  0.16634762822E+01 -0.10449555099E+02 -0.64750439450E+01  0.12405101752E+02  0.51100000000E-03 0. -1.
        -11    1    3    3    0    0  0.20383242748E+02 -0.15714440835E+02  0.57276751616E+01  0.26367148096E+02  0.51100000000E-03 0.  1.
        -12    1    3    3    0    0 -0.13753035340E+02  0.26238747822E+02 -0.16042178970E+02  0.33689306530E+02  0.00000000000E+00 0.  1.
</event>
<event>
 7    1  0.3509180E-013  0.7246159E+02  0.7816164E-02  0.1226708E+00
        -11   -1    0    0    0    0  0.00000000000E+00  0.00000000000E+00  0.45593999997E+02  0.45594000000E+02  0.51100000000E-03 0.  1.
         11   -1    0    0    0    0 -0.00000000000E+00 -0.00000000000E+00 -0.45593999997E+02  0.45594000000E+02  0.51100000000E-03 0. -1.
    9900012    2    1    2    0    0  0.14594936498E+02 -0.45956124877E+01 -0.10795683915E+02  0.72461585055E+02  0.70000019228E+02 0.  0.
        -12    1    1    2    0    0 -0.14594936498E+02  0.45956124877E+01  0.10795683915E+02  0.18726414945E+02  0.00000000000E+00 0.  1.
         11    1    3    3    0    0  0.21177568631E+02 -0.14201932217E+01  0.10429204956E+02  0.23648988946E+02  0.51100000000E-03 0. -1.
        -11    1    3    3    0    0  0.11834221019E+02  0.44591473411E+01  0.68473858197E+01  0.14381219523E+02  0.51100000000E-03 0.  1.
        -12    1    3    3    0    0 -0.18416853152E+02 -0.76345666071E+01 -0.28072274691E+02  0.34431376586E+02  0.00000000000E+00 0.  1.
</event>
<event>
 7    1  0.3509180E-013  0.7246124E+02  0.7816164E-02  0.1226709E+00
        -11   -1    0    0    0    0  0.00000000000E+00  0.00000000000E+00  0.45593999997E+02  0.45594000000E+02  0.51100000000E-03 0.  1.
         11   -1    0    0    0    0 -0.00000000000E+00 -0.00000000000E+00 -0.45593999997E+02  0.45594000000E+02  0.51100000000E-03 0. -1.
    9900012    2    1    2    0    0  0.66532192341E+00  0.50098754412E+01 -0.18031921714E+02  0.72461235573E+02  0.69999563962E+02 0.  0.
        -12    1    1    2    0    0 -0.66532192341E+00 -0.50098754412E+01  0.18031921714E+02  0.18726764427E+02  0.00000000000E+00 0.  1.
         11    1    3    3    0    0 -0.35487848014E+00  0.13367026106E+02 -0.25100152176E+01  0.13605274797E+02  0.51100000000E-03 0. -1.
        -11    1    3    3    0    0  0.21852868204E+02 -0.21264854330E+02 -0.12965067240E+01  0.30519220310E+02  0.51100000000E-03 0.  1.
         12    1    3    3    0    0 -0.20832667800E+02  0.12907703665E+02 -0.14225399772E+02  0.28336740466E+02  0.00000000000E+00 0. -1.
</event>
<event>
 7    1  0.3509180E-013  0.7246166E+02  0.7816164E-02  0.1226708E+00
        -11   -1    0    0    0    0  0.00000000000E+00  0.00000000000E+00  0.45593999997E+02  0.45594000000E+02  0.51100000000E-03 0. -1.
         11   -1    0    0    0    0 -0.00000000000E+00 -0.00000000000E+00 -0.45593999997E+02  0.45594000000E+02  0.51100000000E-03 0.  1.
    9900012    2    1    2    0    0 -0.11464695080E+02 -0.26752951769E+01  0.14562944623E+02  0.72461660431E+02  0.70000117420E+02 0.  0.
        -12    1    1    2    0    0  0.11464695080E+02  0.26752951769E+01 -0.14562944623E+02  0.18726339569E+02  0.00000000000E+00 0.  1.
         11    1    3    3    0    0  0.41140841361E+01 -0.16506182422E+02  0.45638978477E+01  0.17612748515E+02  0.51100000000E-03 0. -1.
        -11    1    3    3    0    0 -0.24601492804E+02  0.33567231902E+01  0.24452362961E+02  0.34848516373E+02  0.51100000000E-03 0.  1.
        -12    1    3    3    0    0  0.90227135883E+01  0.10474164054E+02 -0.14453316186E+02  0.20000395544E+02  0.00000000000E+00 0.  1.
</event>
<event>
 7    1  0.3509180E-013  0.7246159E+02  0.7816164E-02  0.1226708E+00
        -11   -1    0    0    0    0  0.00000000000E+00  0.00000000000E+00  0.45593999997E+02  0.45594000000E+02  0.51100000000E-03 0. -1.
         11   -1    0    0    0    0 -0.00000000000E+00 -0.00000000000E+00 -0.45593999997E+02  0.45594000000E+02  0.51100000000E-03 0.  1.
    9900012    2    1    2    0    0  0.10012340533E+02 -0.13283785108E+02 -0.86007245708E+01  0.72461591565E+02  0.70000027709E+02 0.  0.
        -12    1    1    2    0    0 -0.10012340533E+02  0.13283785108E+02  0.86007245708E+01  0.18726408435E+02  0.00000000000E+00 0.  1.
         11    1    3    3    0    0 -0.19120855690E+02 -0.94362428246E+01 -0.31983975146E+01  0.21561065555E+02  0.51100000000E-03 0. -1.
        -11    1    3    3    0    0  0.97177784851E-01  0.57228641653E+01 -0.17202486257E+02  0.18129703568E+02  0.51100000000E-03 0.  1.
         12    1    3    3    0    0  0.29036018438E+02 -0.95704064486E+01  0.11800159201E+02  0.32770822442E+02  0.00000000000E+00 0. -1.
</event>
<event>
 7    1  0.3509180E-013  0.7246159E+02  0.7816164E-02  0.1226708E+00
        -11   -1    0    0    0    0  0.00000000000E+00  0.00000000000E+00  0.45593999997E+02  0.45594000000E+02  0.51100000000E-03 0. -1.
         11   -1    0    0    0    0 -0.00000000000E+00 -0.00000000000E+00 -0.45593999997E+02  0.45594000000E+02  0.51100000000E-03 0.  1.
    9900012    2    1    2    0    0  0.11056518024E+02  0.13485486324E+02 -0.68244848285E+01  0.72461587493E+02  0.70000022404E+02 0.  0.
        -12    1    1    2    0    0 -0.11056518024E+02 -0.13485486324E+02  0.68244848285E+01  0.18726412507E+02  0.00000000000E+00 0.  1.
         11    1    3    3    0    0 -0.11034437053E+01  0.33128062558E+02  0.98570336822E+01  0.34581024133E+02  0.51100000000E-03 0. -1.
        -11    1    3    3    0    0 -0.59668763907E+01 -0.77164250691E+01  0.11146383144E+01  0.98178026331E+01  0.51100000000E-03 0.  1.
        -12    1    3    3    0    0  0.18126838120E+02 -0.11926151164E+02 -0.17796156825E+02  0.28062760726E+02  0.00000000000E+00 0.  1.
</event>
<event>
 7    1  0.3509180E-013  0.7246157E+02  0.7816164E-02  0.1226708E+00
        -11   -1    0    0    0    0  0.00000000000E+00  0.00000000000E+00  0.45593999997E+02  0.45594000000E+02  0.51100000000E-03 0. -1.
         11   -1    0    0    0    0 -0.00000000000E+00 -0.00000000000E+00 -0.45593999997E+02  0.45594000000E+02  0.51100000000E-03 0.  1.
    9900012    2    1    2    0    0  0.74205430249E+01  0.17088404089E+02  0.18976509666E+01  0.72461572356E+02  0.70000002686E+02 0.  0.
        -12    1    1    2    0    0 -0.74205430249E+01 -0.17088404089E+02 -0.18976509666E+01  0.18726427644E+02  0.00000000000E+00 0.  1.
         11    1    3    3    0    0  0.80155530581E+01 -0.35353822781E+01  0.20635680300E+02  0.22418280942E+02  0.51100000000E-03 0. -1.
        -11    1    3    3    0    0  0.78752468695E+01 -0.83903340324E+01 -0.15980582578E+02  0.19692542706E+02  0.51100000000E-03 0.  1.
         12    1    3    3    0    0 -0.84702569027E+01  0.29014120400E+02 -0.27574467553E+01  0.30350748709E+02  0.00000000000E+00 0. -1.
</event>
<event>
 7    1  0.3509180E-013  0.7246153E+02  0.7816164E-02  0.1226708E+00
        -11   -1    0    0    0    0  0.00000000000E+00  0.00000000000E+00  0.45593999997E+02  0.45594000000E+02  0.51100000000E-03 0. -1.
         11   -1    0    0    0    0 -0.00000000000E+00 -0.00000000000E+00 -0.45593999997E+02  0.45594000000E+02  0.51100000000E-03 0.  1.
    9900012    2    1    2    0    0 -0.42346945383E+01  0.17840877371E+02 -0.38014871636E+01  0.72461525482E+02  0.69999941624E+02 0.  0.
        -12    1    1    2    0    0  0.42346945383E+01 -0.17840877371E+02  0.38014871636E+01  0.18726474518E+02  0.00000000000E+00 0.  1.
         11    1    3    3    0    0 -0.14933477175E+02 -0.49358334620E+00 -0.68013053290E+01  0.16416763369E+02  0.51100000000E-03 0. -1.
        -11    1    3    3    0    0  0.13161332040E+02 -0.16464501218E+02  0.11351036606E+01  0.21108977285E+02  0.51100000000E-03 0.  1.
         12    1    3    3    0    0 -0.24625494034E+01  0.34798961936E+02  0.18647145048E+01  0.34935784828E+02  0.00000000000E+00 0. -1.
</event>
<event>
 7    1  0.3509180E-013  0.7246123E+02  0.7816164E-02  0.1226709E+00
        -11   -1    0    0    0    0  0.00000000000E+00  0.00000000000E+00  0.45593999997E+02  0.45594000000E+02  0.51100000000E-03 0. -1.
         11   -1    0    0    0    0 -0.00000000000E+00 -0.00000000000E+00 -0.45593999997E+02  0.45594000000E+02  0.51100000000E-03 0.  1.
    9900012    2    1    2    0    0  0.16994723611E+02 -0.16923972224E+01  0.76815979906E+01  0.72461233416E+02  0.69999561152E+02 0.  0.
        -12    1    1    2    0    0 -0.16994723611E+02  0.16923972224E+01 -0.76815979906E+01  0.18726766584E+02  0.00000000000E+00 0.  1.
         11    1    3    3    0    0  0.15826649957E+02 -0.90902157368E+01  0.13752427465E+02  0.22852661386E+02  0.51100000000E-03 0. -1.
        -11    1    3    3    0    0  0.11894480698E+02 -0.10114474470E+02 -0.19568195498E+02  0.25033887836E+02  0.51100000000E-03 0.  1.
        -12    1    3    3    0    0 -0.10726407043E+02  0.17512292985E+02  0.13497366024E+02  0.24574684194E+02  0.00000000000E+00 0.  1.
</event>
<event>
 7    1  0.3509180E-013  0.7246154E+02  0.7816164E-02  0.1226708E+00
        -11   -1    0    0    0    0  0.00000000000E+00  0.00000000000E+00  0.45593999997E+02  0.45594000000E+02  0.51100000000E-03 0. -1.
         11   -1    0    0    0    0 -0.00000000000E+00 -0.00000000000E+00 -0.45593999997E+02  0.45594000000E+02  0.51100000000E-03 0.  1.
    9900012    2    1    2    0    0  0.68999423165E+01 -0.13550671465E+02  0.10929343014E+02  0.72461536376E+02  0.69999955815E+02 0.  0.
        -12    1    1    2    0    0 -0.68999423165E+01  0.13550671465E+02 -0.10929343014E+02  0.18726463624E+02  0.00000000000E+00 0.  1.
         11    1    3    3    0    0  0.41768193644E+01 -0.11833170160E+02  0.12703330537E+02  0.17856213009E+02  0.51100000000E-03 0. -1.
        -11    1    3    3    0    0 -0.22204665628E+02  0.10569962296E+01 -0.14438838761E+02  0.26507442006E+02  0.51100000000E-03 0.  1.
         12    1    3    3    0    0  0.24927788580E+02 -0.27744975355E+01  0.12664851238E+02  0.28097881361E+02  0.00000000000E+00 0. -1.
</event>
<event>
 7    1  0.3509180E-013  0.7246158E+02  0.7816164E-02  0.1226708E+00
        -11   -1    0    0    0    0  0.00000000000E+00  0.00000000000E+00  0.45593999997E+02  0.45594000000E+02  0.51100000000E-03 0.  1.
         11   -1    0    0    0    0 -0.00000000000E+00 -0.00000000000E+00 -0.45593999997E+02  0.45594000000E+02  0.51100000000E-03 0. -1.
    9900012    2    1    2    0    0  0.38043387389E+01  0.12327744496E+02 -0.13573229783E+02  0.72461578977E+02  0.70000011310E+02 0.  0.
        -12    1    1    2    0    0 -0.38043387389E+01 -0.12327744496E+02  0.13573229783E+02  0.18726421023E+02  0.00000000000E+00 0.  1.
         11    1    3    3    0    0  0.12863623102E+02  0.29312507430E+01 -0.83436947744E+01  0.15610325845E+02  0.51100000000E-03 0. -1.
        -11    1    3    3    0    0 -0.80652353113E+01 -0.22907362592E+02 -0.26313471512E+01  0.24427838006E+02  0.51100000000E-03 0.  1.
         12    1    3    3    0    0 -0.99404905219E+00  0.32303856345E+02 -0.25981878576E+01  0.32423415126E+02  0.00000000000E+00 0. -1.
</event>
<event>
 7    1  0.3509180E-013  0.7246153E+02  0.7816164E-02  0.1226708E+00
        -11   -1    0    0    0    0  0.00000000000E+00  0.00000000000E+00  0.45593999997E+02  0.45594000000E+02  0.51100000000E-03 0.  1.
         11   -1    0    0    0    0 -0.00000000000E+00 -0.00000000000E+00 -0.45593999997E+02  0.45594000000E+02  0.51100000000E-03 0. -1.
    9900012    2    1    2    0    0  0.10432909814E+02 -0.11191087413E+02 -0.10797900430E+02  0.72461529473E+02  0.69999946823E+02 0.  0.
        -12    1    1    2    0    0 -0.10432909814E+02  0.11191087413E+02  0.10797900430E+02  0.18726470527E+02  0.00000000000E+00 0.  1.
         11    1    3    3    0    0  0.34721076025E+01 -0.32791712807E+01 -0.20106109795E+02  0.20665530403E+02  0.51100000000E-03 0. -1.
        -11    1    3    3    0    0  0.78870440978E+01 -0.26684870791E+02 -0.48743549970E+01  0.28249727974E+02  0.51100000000E-03 0.  1.
        -12    1    3    3    0    0 -0.92624188585E+00  0.18772954658E+02  0.14182564362E+02  0.23546271096E+02  0.00000000000E+00 0.  1.
</event>
<event>
 7    1  0.3509180E-013  0.7246154E+02  0.7816164E-02  0.1226708E+00
        -11   -1    0    0    0    0  0.00000000000E+00  0.00000000000E+00  0.45593999997E+02  0.45594000000E+02  0.51100000000E-03 0. -1.
         11   -1    0    0    0    0 -0.00000000000E+00 -0.00000000000E+00 -0.45593999997E+02  0.45594000000E+02  0.51100000000E-03 0.  1.
    9900012    2    1    2    0    0  0.96687744731E+01 -0.15141379026E+02 -0.52852342555E+01  0.72461541185E+02  0.69999962080E+02 0.  0.
        -12    1    1    2    0    0 -0.96687744731E+01  0.15141379026E+02  0.52852342555E+01  0.18726458815E+02  0.00000000000E+00 0.  1.
         11    1    3    3    0    0  0.10262425386E+02  0.16411262815E+02 -0.21388428746E+02  0.28846348235E+02  0.51100000000E-03 0. -1.
        -11    1    3    3    0    0  0.87284060777E+01 -0.12686441523E+01  0.28532298105E+01  0.92701376071E+01  0.51100000000E-03 0.  1.
        -12    1    3    3    0    0 -0.93220569910E+01 -0.30283997688E+02  0.13249964680E+02  0.34345055343E+02  0.00000000000E+00 0.  1.
</event>
<event>
 7    1  0.3509180E-013  0.7246168E+02  0.7816164E-02  0.1226708E+00
        -11   -1    0    0    0    0  0.00000000000E+00  0.00000000000E+00  0.45593999997E+02  0.45594000000E+02  0.51100000000E-03 0. -1.
         11   -1    0    0    0    0 -0.00000000000E+00 -0.00000000000E+00 -0.45593999997E+02  0.45594000000E+02  0.51100000000E-03 0.  1.
    9900012    2    1    2    0    0 -0.16641092256E+02  0.78826090575E+01 -0.34078516453E+01  0.72461683495E+02  0.70000147465E+02 0.  0.
        -12    1    1    2    0    0  0.16641092256E+02 -0.78826090575E+01  0.34078516453E+01  0.18726316505E+02  0.00000000000E+00 0.  1.
         11    1    3    3    0    0  0.83128922703E+01  0.87140765239E+01 -0.50240777004E+01  0.13049163366E+02  0.51100000000E-03 0. -1.
        -11    1    3    3    0    0  0.93161476935E+01  0.17708549294E+02  0.38830957418E+01  0.20382879059E+02  0.51100000000E-03 0.  1.
         12    1    3    3    0    0 -0.34270132219E+02 -0.18540016760E+02 -0.22668696867E+01  0.39029641069E+02  0.00000000000E+00 0. -1.
</event>
<event>
 7    1  0.3509180E-013  0.7246152E+02  0.7816164E-02  0.1226708E+00
        -11   -1    0    0    0    0  0.00000000000E+00  0.00000000000E+00  0.45593999997E+02  0.45594000000E+02  0.51100000000E-03 0.  1.
         11   -1    0    0    0    0 -0.00000000000E+00 -0.00000000000E+00 -0.45593999997E+02  0.45594000000E+02  0.51100000000E-03 0. -1.
    9900012    2    1    2    0    0 -0.13907631819E+02  0.77207551048E+01  0.98817382861E+01  0.72461520519E+02  0.69999935158E+02 0.  0.
        -12    1    1    2    0    0  0.13907631819E+02 -0.77207551048E+01 -0.98817382861E+01  0.18726479481E+02  0.00000000000E+00 0.  1.
         11    1    3    3    0    0  0.10663335091E+02  0.23565212732E+01  0.85860437756E+00  0.10954319217E+02  0.51100000000E-03 0. -1.
        -11    1    3    3    0    0 -0.43283992497E+01 -0.15017629551E+02  0.24360610417E+02  0.28943109328E+02  0.51100000000E-03 0.  1.
         12    1    3    3    0    0 -0.20242567660E+02  0.20381863383E+02 -0.15337476509E+02  0.32564091974E+02  0.00000000000E+00 0. -1.
</event>
<event>
 7    1  0.3509180E-013  0.7246155E+02  0.7816164E-02  0.1226708E+00
        -11   -1    0    0    0    0  0.00000000000E+00  0.00000000000E+00  0.45593999997E+02  0.45594000000E+02  0.51100000000E-03 0.  1.
         11   -1    0    0    0    0 -0.00000000000E+00 -0.00000000000E+00 -0.45593999997E+02  0.45594000000E+02  0.51100000000E-03 0. -1.
    9900012    2    1    2    0    0  0.60689831591E+01  0.12363313919E+02 -0.12688407885E+02  0.72461553933E+02  0.69999978686E+02 0.  0.
        -12    1    1    2    0    0 -0.60689831591E+01 -0.12363313919E+02  0.12688407885E+02  0.18726446067E+02  0.00000000000E+00 0.  1.
         11    1    3    3    0    0  0.12629010094E+02  0.91939534178E+01 -0.52227972160E+01  0.16471134947E+02  0.51100000000E-03 0. -1.
        -11    1    3    3    0    0  0.96140874319E+01  0.22899906810E+02 -0.15459600996E+02  0.29254669239E+02  0.51100000000E-03 0.  1.
         12    1    3    3    0    0 -0.16174114367E+02 -0.19730546309E+02  0.79939903277E+01  0.26735749747E+02  0.00000000000E+00 0. -1.
</event>
<event>
 7    1  0.3509180E-013  0.7246146E+02  0.7816164E-02  0.1226708E+00
        -11   -1    0    0    0    0  0.00000000000E+00  0.00000000000E+00  0.45593999997E+02  0.45594000000E+02  0.51100000000E-03 0.  1.
         11   -1    0    0    0    0 -0.00000000000E+00 -0.00000000000E+00 -0.45593999997E+02  0.45594000000E+02  0.51100000000E-03 0. -1.
    9900012    2    1    2    0    0 -0.15837338261E+02  0.80859838189E+01 -0.58718635601E+01  0.72461462702E+02  0.69999859841E+02 0.  0.
        -12    1    1    2    0    0  0.15837338261E+02 -0.80859838189E+01  0.58718635601E+01  0.18726537298E+02  0.00000000000E+00 0.  1.
         11    1    3    3    0    0  0.21837180259E+02  0.14548248424E+02  0.85230432206E+01  0.27589060148E+02  0.51100000000E-03 0. -1.
        -11    1    3    3    0    0 -0.17361865866E+01  0.38092696576E+01  0.12260630124E+01  0.43621221853E+01  0.51100000000E-03 0.  1.
        -12    1    3    3    0    0 -0.35938331933E+02 -0.10271534263E+02 -0.15620969793E+02  0.40510280368E+02  0.00000000000E+00 0.  1.
</event>
<event>
 7    1  0.3509180E-013  0.7246160E+02  0.7816164E-02  0.1226708E+00
        -11   -1    0    0    0    0  0.00000000000E+00  0.00000000000E+00  0.45593999997E+02  0.45594000000E+02  0.51100000000E-03 0. -1.
         11   -1    0    0    0    0 -0.00000000000E+00 -0.00000000000E+00 -0.45593999997E+02  0.45594000000E+02  0.51100000000E-03 0.  1.
    9900012    2    1    2    0    0 -0.11306127441E+02 -0.14918517011E+02 -0.53610116883E+00  0.72461599599E+02  0.70000038175E+02 0.  0.
        -12    1    1    2    0    0  0.11306127441E+02  0.14918517011E+02  0.53610116883E+00  0.18726400401E+02  0.00000000000E+00 0.  1.
         11    1    3    3    0    0 -0.13966857191E+02 -0.18714176931E+02 -0.22692207142E+00  0.23352623233E+02  0.51100000000E-03 0. -1.
        -11    1    3    3    0    0 -0.14378217494E+02  0.90299336559E+01  0.17167884417E+02  0.24145581288E+02  0.51100000000E-03 0.  1.
         12    1    3    3    0    0  0.17038947244E+02 -0.52342737359E+01 -0.17477063515E+02  0.24963395078E+02  0.00000000000E+00 0. -1.
</event>
<event>
 7    1  0.3509180E-013  0.7246160E+02  0.7816164E-02  0.1226708E+00
        -11   -1    0    0    0    0  0.00000000000E+00  0.00000000000E+00  0.45593999997E+02  0.45594000000E+02  0.51100000000E-03 0.  1.
         11   -1    0    0    0    0 -0.00000000000E+00 -0.00000000000E+00 -0.45593999997E+02  0.45594000000E+02  0.51100000000E-03 0. -1.
    9900012    2    1    2    0    0  0.79249004407E+01  0.34813691271E+01 -0.16605847082E+02  0.72461597908E+02  0.70000035972E+02 0.  0.
        -12    1    1    2    0    0 -0.79249004407E+01 -0.34813691271E+01  0.16605847082E+02  0.18726402092E+02  0.00000000000E+00 0.  1.
         11    1    3    3    0    0 -0.72349467871E+01  0.16085438032E+02 -0.24267287552E+02  0.29999783618E+02  0.51100000000E-03 0. -1.
        -11    1    3    3    0    0 -0.55738059754E+01  0.45500186944E+01  0.13157487956E+02  0.14996315305E+02  0.51100000000E-03 0.  1.
         12    1    3    3    0    0  0.20733653203E+02 -0.17154087600E+02 -0.54960474855E+01  0.27465498985E+02  0.00000000000E+00 0. -1.
</event>
<event>
 7    1  0.3509180E-013  0.7246152E+02  0.7816164E-02  0.1226708E+00
        -11   -1    0    0    0    0  0.00000000000E+00  0.00000000000E+00  0.45593999997E+02  0.45594000000E+02  0.51100000000E-03 0.  1.
         11   -1    0    0    0    0 -0.00000000000E+00 -0.00000000000E+00 -0.45593999997E+02  0.45594000000E+02  0.51100000000E-03 0. -1.
    9900012    2    1    2    0    0 -0.61836015337E+01  0.95773075465E+00 -0.17650122013E+02  0.72461521869E+02  0.69999936917E+02 0.  0.
        -12    1    1    2    0    0  0.61836015337E+01 -0.95773075465E+00  0.17650122013E+02  0.18726478131E+02  0.00000000000E+00 0.  1.
         11    1    3    3    0    0 -0.27753726572E+01 -0.52208416116E+01 -0.25241739705E+01  0.64289450934E+01  0.51100000000E-03 0. -1.
        -11    1    3    3    0    0  0.17825325056E+02 -0.12078061757E+02  0.13956840332E+02  0.25659602130E+02  0.51100000000E-03 0.  1.
         12    1    3    3    0    0 -0.21233553933E+02  0.18256634124E+02 -0.29082788374E+02  0.40372974646E+02  0.00000000000E+00 0. -1.
</event>
<event>
 7    1  0.3509180E-013  0.7246155E+02  0.7816164E-02  0.1226708E+00
        -11   -1    0    0    0    0  0.00000000000E+00  0.00000000000E+00  0.45593999997E+02  0.45594000000E+02  0.51100000000E-03 0.  1.
         11   -1    0    0    0    0 -0.00000000000E+00 -0.00000000000E+00 -0.45593999997E+02  0.45594000000E+02  0.51100000000E-03 0. -1.
    9900012    2    1    2    0    0  0.89530732084E+01 -0.52906234396E+01 -0.15573427397E+02  0.72461551935E+02  0.69999976083E+02 0.  0.
        -12    1    1    2    0    0 -0.89530732084E+01  0.52906234396E+01  0.15573427397E+02  0.18726448065E+02  0.00000000000E+00 0.  1.
         11    1    3    3    0    0  0.30367441595E+01  0.91309451375E+01 -0.35056881025E+02  0.36353553906E+02  0.51100000000E-03 0. -1.
        -11    1    3    3    0    0 -0.90417191701E+00  0.60579690138E+01 -0.11671685989E+01  0.62352865393E+01  0.51100000000E-03 0.  1.
        -12    1    3    3    0    0  0.68205009659E+01 -0.20479537591E+02  0.20650622227E+02  0.29872711489E+02  0.00000000000E+00 0.  1.
</event>
<event>
 7    1  0.3509180E-013  0.7246148E+02  0.7816164E-02  0.1226708E+00
        -11   -1    0    0    0    0  0.00000000000E+00  0.00000000000E+00  0.45593999997E+02  0.45594000000E+02  0.51100000000E-03 0. -1.
         11   -1    0    0    0    0 -0.00000000000E+00 -0.00000000000E+00 -0.45593999997E+02  0.45594000000E+02  0.51100000000E-03 0.  1.
    9900012    2    1    2    0    0 -0.86334447108E+01  0.16559228686E+02  0.13921825108E+01  0.72461478850E+02  0.69999880877E+02 0.  0.
        -12    1    1    2    0    0  0.86334447108E+01 -0.16559228686E+02 -0.13921825108E+01  0.18726521150E+02  0.00000000000E+00 0.  1.
         11    1    3    3    0    0  0.23140766250E+01  0.22285290125E+02  0.20221562907E+01  0.22496182407E+02  0.51100000000E-03 0. -1.
        -11    1    3    3    0    0 -0.32897241426E+01  0.19329861031E+02 -0.10162658409E+02  0.22084959556E+02  0.51100000000E-03 0.  1.
         12    1    3    3    0    0 -0.76577971932E+01 -0.25055922470E+02  0.95326846290E+01  0.27880336887E+02  0.00000000000E+00 0. -1.
</event>
<event>
 7    1  0.3509180E-013  0.7246156E+02  0.7816164E-02  0.1226708E+00
        -11   -1    0    0    0    0  0.00000000000E+00  0.00000000000E+00  0.45593999997E+02  0.45594000000E+02  0.51100000000E-03 0.  1.
         11   -1    0    0    0    0 -0.00000000000E+00 -0.00000000000E+00 -0.45593999997E+02  0.45594000000E+02  0.51100000000E-03 0. -1.
    9900012    2    1    2    0    0 -0.99373378871E+01  0.10850843254E+02 -0.11583954349E+02  0.72461561952E+02  0.69999989133E+02 0.  0.
        -12    1    1    2    0    0  0.99373378871E+01 -0.10850843254E+02  0.11583954349E+02  0.18726438048E+02  0.00000000000E+00 0.  1.
         11    1    3    3    0    0 -0.68651652403E+01 -0.23756903189E+01 -0.25259956519E+02  0.26283831567E+02  0.51100000000E-03 0. -1.
        -11    1    3    3    0    0 -0.21716119325E+02  0.54542418863E+01  0.11713201252E+01  0.22421208358E+02  0.51100000000E-03 0.  1.
         12    1    3    3    0    0  0.18643946679E+02  0.77722916861E+01  0.12504682044E+02  0.23756522027E+02  0.00000000000E+00 0. -1.
</event>
<event>
 7    1  0.3509180E-013  0.7246158E+02  0.7816164E-02  0.1226708E+00
        -11   -1    0    0    0    0  0.00000000000E+00  0.00000000000E+00  0.45593999997E+02  0.45594000000E+02  0.51100000000E-03 0.  1.
         11   -1    0    0    0    0 -0.00000000000E+00 -0.00000000000E+00 -0.45593999997E+02  0.45594000000E+02  0.51100000000E-03 0. -1.
    9900012    2    1    2    0    0 -0.94889987381E+00  0.14997560372E+02 -0.11173705703E+02  0.72461576764E+02  0.70000008428E+02 0.  0.
        -12    1    1    2    0    0  0.94889987381E+00 -0.14997560372E+02  0.11173705703E+02  0.18726423236E+02  0.00000000000E+00 0.  1.
         11    1    3    3    0    0 -0.11136038493E+02  0.25043805503E+02 -0.18936607618E+02  0.33313640686E+02  0.51100000000E-03 0. -1.
        -11    1    3    3    0    0 -0.85393928562E+01  0.27515016979E+01  0.13070499842E+02  0.15853389490E+02  0.51100000000E-03 0.  1.
        -12    1    3    3    0    0  0.18726531476E+02 -0.12797746829E+02 -0.53075979264E+01  0.23294546588E+02  0.00000000000E+00 0.  1.
</event>
<event>
 7    1  0.3509180E-013  0.7246158E+02  0.7816164E-02  0.1226708E+00
        -11   -1    0    0    0    0  0.00000000000E+00  0.00000000000E+00  0.45593999997E+02  0.45594000000E+02  0.51100000000E-03 0.  1.
         11   -1    0    0    0    0 -0.00000000000E+00 -0.00000000000E+00 -0.45593999997E+02  0.45594000000E+02  0.51100000000E-03 0. -1.
    9900012    2    1    2    0    0 -0.15536128908E+02  0.88419100179E+01 -0.55792625436E+01  0.72461578966E+02  0.70000011297E+02 0.  0.
        -12    1    1    2    0    0  0.15536128908E+02 -0.88419100179E+01  0.55792625436E+01  0.18726421034E+02  0.00000000000E+00 0.  1.
         11    1    3    3    0    0  0.24958688579E+01  0.32639839181E+02 -0.39382135355E+01  0.32971169061E+02  0.51100000000E-03 0. -1.
        -11    1    3    3    0    0  0.37820206146E+01 -0.12951392025E+01  0.60206513083E+01  0.72269847046E+01  0.51100000000E-03 0.  1.
        -12    1    3    3    0    0 -0.21814018380E+02 -0.22502789961E+02 -0.76617003164E+01  0.32263425200E+02  0.00000000000E+00 0.  1.
</event>
<event>
 7    1  0.3509180E-013  0.7246153E+02  0.7816164E-02  0.1226708E+00
        -11   -1    0    0    0    0  0.00000000000E+00  0.00000000000E+00  0.45593999997E+02  0.45594000000E+02  0.51100000000E-03 0. -1.
         11   -1    0    0    0    0 -0.00000000000E+00 -0.00000000000E+00 -0.45593999997E+02  0.45594000000E+02  0.51100000000E-03 0.  1.
    9900012    2    1    2    0    0  0.16690267914E+02 -0.71648194504E+01  0.45586018599E+01  0.72461533924E+02  0.69999952621E+02 0.  0.
        -12    1    1    2    0    0 -0.16690267914E+02  0.71648194504E+01 -0.45586018599E+01  0.18726466076E+02  0.00000000000E+00 0.  1.
         11    1    3    3    0    0  0.88587280087E+01 -0.63200400973E+01  0.29943784654E+02  0.31859852612E+02  0.51100000000E-03 0. -1.
        -11    1    3    3    0    0 -0.53585007309E+01 -0.96927409943E+01 -0.50841277503E+00  0.11086985247E+02  0.51100000000E-03 0.  1.
         12    1    3    3    0    0  0.13190040636E+02  0.88479616412E+01 -0.24876770019E+02  0.29514696064E+02  0.00000000000E+00 0. -1.
</event>
<event>
 7    1  0.3509180E-013  0.7246157E+02  0.7816164E-02  0.1226708E+00
        -11   -1    0    0    0    0  0.00000000000E+00  0.00000000000E+00  0.45593999997E+02  0.45594000000E+02  0.51100000000E-03 0. -1.
         11   -1    0    0    0    0 -0.00000000000E+00 -0.00000000000E+00 -0.45593999997E+02  0.45594000000E+02  0.51100000000E-03 0.  1.
    9900012    2    1    2    0    0 -0.17000203220E+02 -0.63216151246E+00  0.78276762938E+01  0.72461573382E+02  0.70000004022E+02 0.  0.
        -12    1    1    2    0    0  0.17000203220E+02  0.63216151246E+00 -0.78276762938E+01  0.18726426618E+02  0.00000000000E+00 0.  1.
         11    1    3    3    0    0  0.28087543043E+01 -0.16004407383E+02 -0.17443077489E+02  0.23838857124E+02  0.51100000000E-03 0. -1.
        -11    1    3    3    0    0 -0.74390272644E+01 -0.74171564399E+01 -0.23215504004E+01  0.10758388951E+02  0.51100000000E-03 0.  1.
         12    1    3    3    0    0 -0.12369930260E+02  0.22789402311E+02  0.27592304183E+02  0.37864327307E+02  0.00000000000E+00 0. -1.
</event>
<event>
 7    1  0.3509180E-013  0.7246138E+02  0.7816164E-02  0.1226709E+00
        -11   -1    0    0    0    0  0.00000000000E+00  0.00000000000E+00  0.45593999997E+02  0.45594000000E+02  0.51100000000E-03 0. -1.
         11   -1    0    0    0    0 -0.00000000000E+00 -0.00000000000E+00 -0.45593999997E+02  0.45594000000E+02  0.51100000000E-03 0.  1.
    9900012    2    1    2    0    0 -0.18096200928E+02  0.42924404784E+01  0.21883490788E+01  0.72461377107E+02  0.69999748338E+02 0.  0.
        -12    1    1    2    0    0  0.18096200928E+02 -0.42924404784E+01 -0.21883490788E+01  0.18726622893E+02  0.00000000000E+00 0.  1.
         11    1    3    3    0    0 -0.22555403075E+02  0.50022014234E+01  0.13548514312E+02  0.26783025730E+02  0.51100000000E-03 0. -1.
        -11    1    3    3    0    0 -0.14357665401E+02 -0.14369054876E+02 -0.13330777442E+01  0.20356556446E+02  0.51100000000E-03 0.  1.
         12    1    3    3    0    0  0.18816867548E+02  0.13659293931E+02 -0.10027087489E+02  0.25321794931E+02  0.00000000000E+00 0. -1.
</event>
<event>
 7    1  0.3509180E-013  0.7246154E+02  0.7816164E-02  0.1226708E+00
        -11   -1    0    0    0    0  0.00000000000E+00  0.00000000000E+00  0.45593999997E+02  0.45594000000E+02  0.51100000000E-03 0.  1.
         11   -1    0    0    0    0 -0.00000000000E+00 -0.00000000000E+00 -0.45593999997E+02  0.45594000000E+02  0.51100000000E-03 0. -1.
    9900012    2    1    2    0    0  0.13239467249E+02  0.12879932490E+02 -0.30828703705E+01  0.72461541613E+02  0.69999962637E+02 0.  0.
        -12    1    1    2    0    0 -0.13239467249E+02 -0.12879932490E+02  0.30828703705E+01  0.18726458387E+02  0.00000000000E+00 0.  1.
         11    1    3    3    0    0  0.60354050088E+01  0.20505377296E+02 -0.79519686705E+01  0.22806367919E+02  0.51100000000E-03 0. -1.
        -11    1    3    3    0    0 -0.52052475531E+01  0.19123861216E+02  0.34521127534E+00  0.19822609339E+02  0.51100000000E-03 0.  1.
        -12    1    3    3    0    0  0.12409309793E+02 -0.26749306022E+02  0.45238870247E+01  0.29832564355E+02  0.00000000000E+00 0.  1.
</event>
<event>
 7    1  0.3509180E-013  0.7246155E+02  0.7816164E-02  0.1226708E+00
        -11   -1    0    0    0    0  0.00000000000E+00  0.00000000000E+00  0.45593999997E+02  0.45594000000E+02  0.51100000000E-03 0.  1.
         11   -1    0    0    0    0 -0.00000000000E+00 -0.00000000000E+00 -0.45593999997E+02  0.45594000000E+02  0.51100000000E-03 0. -1.
    9900012    2    1    2    0    0 -0.57926419827E+01 -0.91583657394E+01 -0.15272510587E+02  0.72461549621E+02  0.69999973070E+02 0.  0.
        -12    1    1    2    0    0  0.57926419827E+01  0.91583657394E+01  0.15272510587E+02  0.18726450379E+02  0.00000000000E+00 0.  1.
         11    1    3    3    0    0  0.89122114413E+01 -0.19859665440E+02 -0.62989935613E+01  0.22660784282E+02  0.51100000000E-03 0.  1.
        -11    1    3    3    0    0 -0.79717533595E+01 -0.10537968817E+02 -0.20749269167E+02  0.24599386367E+02  0.51100000000E-03 0. -1.
         12    1    3    3    0    0 -0.67331000645E+01  0.21239268517E+02  0.11775752141E+02  0.25201378972E+02  0.00000000000E+00 0. -1.
</event>
<event>
 7    1  0.3509180E-013  0.7246155E+02  0.7816164E-02  0.1226708E+00
        -11   -1    0    0    0    0  0.00000000000E+00  0.00000000000E+00  0.45593999997E+02  0.45594000000E+02  0.51100000000E-03 0. -1.
         11   -1    0    0    0    0 -0.00000000000E+00 -0.00000000000E+00 -0.45593999997E+02  0.45594000000E+02  0.51100000000E-03 0.  1.
    9900012    2    1    2    0    0  0.12770707397E+02  0.59976805003E+01 -0.12313274738E+02  0.72461551496E+02  0.69999975512E+02 0.  0.
        -12    1    1    2    0    0 -0.12770707397E+02 -0.59976805003E+01  0.12313274738E+02  0.18726448504E+02  0.00000000000E+00 0.  1.
         11    1    3    3    0    0  0.34242637366E+01  0.12242563269E+01 -0.42316775446E+01  0.55795591936E+01  0.51100000000E-03 0. -1.
        -11    1    3    3    0    0 -0.22517276152E+02  0.50556345394E+01 -0.22206439775E+02  0.32026756527E+02  0.51100000000E-03 0.  1.
         12    1    3    3    0    0  0.31863719813E+02 -0.28221036593E+00  0.14124842582E+02  0.34855235775E+02  0.00000000000E+00 0. -1.
</event>
<event>
 7    1  0.3509180E-013  0.7246145E+02  0.7816164E-02  0.1226708E+00
        -11   -1    0    0    0    0  0.00000000000E+00  0.00000000000E+00  0.45593999997E+02  0.45594000000E+02  0.51100000000E-03 0.  1.
         11   -1    0    0    0    0 -0.00000000000E+00 -0.00000000000E+00 -0.45593999997E+02  0.45594000000E+02  0.51100000000E-03 0. -1.
    9900012    2    1    2    0    0  0.32073340885E+01 -0.41628042117E+01 -0.17974080869E+02  0.72461454297E+02  0.69999848892E+02 0.  0.
        -12    1    1    2    0    0 -0.32073340885E+01  0.41628042117E+01  0.17974080869E+02  0.18726545703E+02  0.00000000000E+00 0.  1.
         11    1    3    3    0    0  0.96610068390E+01 -0.30432307042E+02 -0.87233842939E+01  0.33099211453E+02  0.51100000000E-03 0. -1.
        -11    1    3    3    0    0 -0.68534043053E+01 -0.20247187811E+01  0.39193982131E+01  0.81504796993E+01  0.51100000000E-03 0.  1.
         12    1    3    3    0    0  0.39973155481E+00  0.28294221611E+02 -0.13170094788E+02  0.31211763145E+02  0.00000000000E+00 0. -1.
</event>
<event>
 7    1  0.3509180E-013  0.7246157E+02  0.7816164E-02  0.1226708E+00
        -11   -1    0    0    0    0  0.00000000000E+00  0.00000000000E+00  0.45593999997E+02  0.45594000000E+02  0.51100000000E-03 0.  1.
         11   -1    0    0    0    0 -0.00000000000E+00 -0.00000000000E+00 -0.45593999997E+02  0.45594000000E+02  0.51100000000E-03 0. -1.
    9900012    2    1    2    0    0 -0.14233615591E+01  0.12665653391E+02 -0.13719856505E+02  0.72461569575E+02  0.69999999062E+02 0.  0.
        -12    1    1    2    0    0  0.14233615591E+01 -0.12665653391E+02  0.13719856505E+02  0.18726430425E+02  0.00000000000E+00 0.  1.
         11    1    3    3    0    0  0.94312907511E+01  0.15935650169E+00  0.81342291383E+01  0.12455533857E+02  0.51100000000E-03 0. -1.
        -11    1    3    3    0    0  0.48277589580E+01  0.13123436896E+02  0.14661451874E+02  0.20260553394E+02  0.51100000000E-03 0.  1.
         12    1    3    3    0    0 -0.15682411268E+02 -0.61714000691E+00 -0.36515537517E+02  0.39745482324E+02  0.00000000000E+00 0. -1.
</event>
<event>
 7    1  0.3509180E-013  0.7246156E+02  0.7816164E-02  0.1226708E+00
        -11   -1    0    0    0    0  0.00000000000E+00  0.00000000000E+00  0.45593999997E+02  0.45594000000E+02  0.51100000000E-03 0.  1.
         11   -1    0    0    0    0 -0.00000000000E+00 -0.00000000000E+00 -0.45593999997E+02  0.45594000000E+02  0.51100000000E-03 0. -1.
    9900012    2    1    2    0    0 -0.36079328006E+01  0.86754633193E+01 -0.16198721528E+02  0.72461563552E+02  0.69999991217E+02 0.  0.
        -12    1    1    2    0    0  0.36079328006E+01 -0.86754633193E+01  0.16198721528E+02  0.18726436448E+02  0.00000000000E+00 0.  1.
         11    1    3    3    0    0 -0.66508429921E+00  0.31422216961E+01  0.52343759374E+01  0.61412202393E+01  0.51100000000E-03 0. -1.
        -11    1    3    3    0    0  0.68114726099E+01 -0.16953569510E+02  0.14151849005E+02  0.23110484824E+02  0.51100000000E-03 0.  1.
         12    1    3    3    0    0 -0.97543211113E+01  0.22486811133E+02 -0.35584946471E+02  0.43209858489E+02  0.00000000000E+00 0. -1.
</event>
<event>
 7    1  0.3509180E-013  0.7246156E+02  0.7816164E-02  0.1226708E+00
        -11   -1    0    0    0    0  0.00000000000E+00  0.00000000000E+00  0.45593999997E+02  0.45594000000E+02  0.51100000000E-03 0.  1.
         11   -1    0    0    0    0 -0.00000000000E+00 -0.00000000000E+00 -0.45593999997E+02  0.45594000000E+02  0.51100000000E-03 0. -1.
    9900012    2    1    2    0    0  0.78649762078E+00 -0.15000609133E+02  0.11182248713E+02  0.72461560425E+02  0.69999987144E+02 0.  0.
        -12    1    1    2    0    0 -0.78649762078E+00  0.15000609133E+02 -0.11182248713E+02  0.18726439575E+02  0.00000000000E+00 0.  1.
         11    1    3    3    0    0  0.98046223560E+01 -0.17259155228E+02 -0.43013278169E+01  0.20310354009E+02  0.51100000000E-03 0.  1.
        -11    1    3    3    0    0  0.51165621270E+01 -0.14799947672E+02  0.23798697510E+02  0.28488518082E+02  0.51100000000E-03 0. -1.
         12    1    3    3    0    0 -0.14134686862E+02  0.17058493766E+02 -0.83151209807E+01  0.23662688334E+02  0.00000000000E+00 0. -1.
</event>
<event>
 7    1  0.3509180E-013  0.7246158E+02  0.7816164E-02  0.1226708E+00
        -11   -1    0    0    0    0  0.00000000000E+00  0.00000000000E+00  0.45593999997E+02  0.45594000000E+02  0.51100000000E-03 0. -1.
         11   -1    0    0    0    0 -0.00000000000E+00 -0.00000000000E+00 -0.45593999997E+02  0.45594000000E+02  0.51100000000E-03 0.  1.
    9900012    2    1    2    0    0 -0.71336065740E+01 -0.17257783612E+02 -0.13997475054E+01  0.72461582002E+02  0.70000015252E+02 0.  0.
        -12    1    1    2    0    0  0.71336065740E+01  0.17257783612E+02  0.13997475054E+01  0.18726417998E+02  0.00000000000E+00 0.  1.
         11    1    3    3    0    0 -0.17240154474E+01 -0.36059714659E+01 -0.48919752065E+01  0.63171735102E+01  0.51100000000E-03 0. -1.
        -11    1    3    3    0    0 -0.11264090146E+02  0.24334562753E+02  0.65010970883E+01  0.27591936046E+02  0.51100000000E-03 0.  1.
         12    1    3    3    0    0  0.58544990190E+01 -0.37986374899E+02 -0.30088693872E+01  0.38552472446E+02  0.00000000000E+00 0. -1.
</event>
<event>
 7    1  0.3509180E-013  0.7246156E+02  0.7816164E-02  0.1226708E+00
        -11   -1    0    0    0    0  0.00000000000E+00  0.00000000000E+00  0.45593999997E+02  0.45594000000E+02  0.51100000000E-03 0.  1.
         11   -1    0    0    0    0 -0.00000000000E+00 -0.00000000000E+00 -0.45593999997E+02  0.45594000000E+02  0.51100000000E-03 0. -1.
    9900012    2    1    2    0    0  0.13591949607E+02  0.39052787513E+01 -0.12275478786E+02  0.72461556780E+02  0.69999982396E+02 0.  0.
        -12    1    1    2    0    0 -0.13591949607E+02 -0.39052787513E+01  0.12275478786E+02  0.18726443220E+02  0.00000000000E+00 0.  1.
         11    1    3    3    0    0  0.11864513264E+02 -0.89756088675E+01  0.74307340343E+01  0.16629613287E+02  0.51100000000E-03 0. -1.
        -11    1    3    3    0    0  0.22286072389E+02 -0.45092423346E+01 -0.47532432997E+00  0.22742652054E+02  0.51100000000E-03 0.  1.
         12    1    3    3    0    0 -0.20558636046E+02  0.17390129953E+02 -0.19230888490E+02  0.33089291440E+02  0.00000000000E+00 0. -1.
</event>
<event>
 7    1  0.3509180E-013  0.7246157E+02  0.7816164E-02  0.1226708E+00
        -11   -1    0    0    0    0  0.00000000000E+00  0.00000000000E+00  0.45593999997E+02  0.45594000000E+02  0.51100000000E-03 0. -1.
         11   -1    0    0    0    0 -0.00000000000E+00 -0.00000000000E+00 -0.45593999997E+02  0.45594000000E+02  0.51100000000E-03 0.  1.
    9900012    2    1    2    0    0  0.19497373049E+01 -0.93709180986E+01  0.16095450295E+02  0.72461572104E+02  0.70000002357E+02 0.  0.
        -12    1    1    2    0    0 -0.19497373049E+01  0.93709180986E+01 -0.16095450295E+02  0.18726427896E+02  0.00000000000E+00 0.  1.
         11    1    3    3    0    0 -0.63451997217E+01 -0.73700674830E+01 -0.16820000646E+02  0.19429150167E+02  0.51100000000E-03 0. -1.
        -11    1    3    3    0    0  0.25668333557E+01  0.51519310004E+01 -0.86935155685E+01  0.10426324362E+02  0.51100000000E-03 0.  1.
         12    1    3    3    0    0  0.57281036709E+01 -0.71527816159E+01  0.41608966510E+02  0.42606097574E+02  0.00000000000E+00 0. -1.
</event>
<event>
 7    1  0.3509180E-013  0.7246157E+02  0.7816164E-02  0.1226708E+00
        -11   -1    0    0    0    0  0.00000000000E+00  0.00000000000E+00  0.45593999997E+02  0.45594000000E+02  0.51100000000E-03 0. -1.
         11   -1    0    0    0    0 -0.00000000000E+00 -0.00000000000E+00 -0.45593999997E+02  0.45594000000E+02  0.51100000000E-03 0.  1.
    9900012    2    1    2    0    0  0.13411863216E+02 -0.12855197826E+01  0.13005715873E+02  0.72461567307E+02  0.69999996108E+02 0.  0.
        -12    1    1    2    0    0 -0.13411863216E+02  0.12855197826E+01 -0.13005715873E+02  0.18726432693E+02  0.00000000000E+00 0.  1.
         11    1    3    3    0    0  0.55371317520E+01 -0.11314185802E+02  0.68914432626E+01  0.14358364074E+02  0.51100000000E-03 0. -1.
        -11    1    3    3    0    0 -0.10016610475E+02 -0.19302199911E+02 -0.43720689903E+01  0.22181577814E+02  0.51100000000E-03 0.  1.
         12    1    3    3    0    0  0.17891341939E+02  0.29330865930E+02  0.10486341600E+02  0.35921625419E+02  0.00000000000E+00 0. -1.
</event>
<event>
 7    1  0.3509180E-013  0.7246159E+02  0.7816164E-02  0.1226708E+00
        -11   -1    0    0    0    0  0.00000000000E+00  0.00000000000E+00  0.45593999997E+02  0.45594000000E+02  0.51100000000E-03 0. -1.
         11   -1    0    0    0    0 -0.00000000000E+00 -0.00000000000E+00 -0.45593999997E+02  0.45594000000E+02  0.51100000000E-03 0.  1.
    9900012    2    1    2    0    0  0.48846209378E+00  0.48643756131E+01  0.18076992965E+02  0.72461590307E+02  0.70000026071E+02 0.  0.
        -12    1    1    2    0    0 -0.48846209378E+00 -0.48643756131E+01 -0.18076992965E+02  0.18726409693E+02  0.00000000000E+00 0.  1.
         11    1    3    3    0    0 -0.21608166835E+02  0.81055755817E+01  0.20678447334E+01  0.23170869893E+02  0.51100000000E-03 0. -1.
        -11    1    3    3    0    0 -0.47749265123E+01 -0.12602620380E+02 -0.45068594839E+01  0.14210480157E+02  0.51100000000E-03 0.  1.
         12    1    3    3    0    0  0.26871555441E+02  0.93614204110E+01  0.20516007715E+02  0.35080240257E+02  0.00000000000E+00 0. -1.
</event>
<event>
 7    1  0.3509180E-013  0.7246156E+02  0.7816164E-02  0.1226708E+00
        -11   -1    0    0    0    0  0.00000000000E+00  0.00000000000E+00  0.45593999997E+02  0.45594000000E+02  0.51100000000E-03 0.  1.
         11   -1    0    0    0    0 -0.00000000000E+00 -0.00000000000E+00 -0.45593999997E+02  0.45594000000E+02  0.51100000000E-03 0. -1.
    9900012    2    1    2    0    0 -0.90713159144E+01  0.91891960211E+01 -0.13562800239E+02  0.72461557565E+02  0.69999983418E+02 0.  0.
        -12    1    1    2    0    0  0.90713159144E+01 -0.91891960211E+01  0.13562800239E+02  0.18726442435E+02  0.00000000000E+00 0.  1.
         11    1    3    3    0    0 -0.32549315216E+02  0.77266607194E+01 -0.20952697415E+01  0.33519387859E+02  0.51100000000E-03 0. -1.
        -11    1    3    3    0    0 -0.40453538011E+01  0.64511948932E+01  0.20350369992E+01  0.78818892897E+01  0.51100000000E-03 0.  1.
        -12    1    3    3    0    0  0.27523353103E+02 -0.49886595915E+01 -0.13502567497E+02  0.31060280416E+02  0.00000000000E+00 0.  1.
</event>
<event>
 7    1  0.3509180E-013  0.7246153E+02  0.7816164E-02  0.1226708E+00
        -11   -1    0    0    0    0  0.00000000000E+00  0.00000000000E+00  0.45593999997E+02  0.45594000000E+02  0.51100000000E-03 0. -1.
         11   -1    0    0    0    0 -0.00000000000E+00 -0.00000000000E+00 -0.45593999997E+02  0.45594000000E+02  0.51100000000E-03 0.  1.
    9900012    2    1    2    0    0 -0.12284020484E+02 -0.19191106390E+01  0.14003584784E+02  0.72461533924E+02  0.69999952621E+02 0.  0.
        -12    1    1    2    0    0  0.12284020484E+02  0.19191106390E+01 -0.14003584784E+02  0.18726466076E+02  0.00000000000E+00 0.  1.
         11    1    3    3    0    0  0.10489100671E+01 -0.14685880849E+02  0.27452099998E+01  0.14977031977E+02  0.51100000000E-03 0. -1.
        -11    1    3    3    0    0 -0.20939227976E+02  0.30328537860E+02  0.10542242716E+02  0.38332888734E+02  0.51100000000E-03 0.  1.
         12    1    3    3    0    0  0.76062974250E+01 -0.17561767650E+02  0.71613206817E+00  0.19151613212E+02  0.00000000000E+00 0. -1.
</event>
<event>
 7    1  0.3509180E-013  0.7246156E+02  0.7816164E-02  0.1226708E+00
        -11   -1    0    0    0    0  0.00000000000E+00  0.00000000000E+00  0.45593999997E+02  0.45594000000E+02  0.51100000000E-03 0.  1.
         11   -1    0    0    0    0 -0.00000000000E+00 -0.00000000000E+00 -0.45593999997E+02  0.45594000000E+02  0.51100000000E-03 0. -1.
    9900012    2    1    2    0    0  0.17106098342E+02  0.31211642915E+01 -0.69512037010E+01  0.72461561473E+02  0.69999988508E+02 0.  0.
        -12    1    1    2    0    0 -0.17106098342E+02 -0.31211642915E+01  0.69512037010E+01  0.18726438527E+02  0.00000000000E+00 0.  1.
         11    1    3    3    0    0  0.18960409968E+02  0.28028761059E+02 -0.10168375659E+02  0.35334182549E+02  0.51100000000E-03 0. -1.
        -11    1    3    3    0    0  0.34206038968E+01 -0.25426982746E+01 -0.98221169866E+01  0.10706999014E+02  0.51100000000E-03 0.  1.
        -12    1    3    3    0    0 -0.52749155223E+01 -0.22364898492E+02  0.13039288945E+02  0.26420379909E+02  0.00000000000E+00 0.  1.
</event>
<event>
 7    1  0.3509180E-013  0.7246176E+02  0.7816164E-02  0.1226707E+00
        -11   -1    0    0    0    0  0.00000000000E+00  0.00000000000E+00  0.45593999997E+02  0.45594000000E+02  0.51100000000E-03 0.  1.
         11   -1    0    0    0    0 -0.00000000000E+00 -0.00000000000E+00 -0.45593999997E+02  0.45594000000E+02  0.51100000000E-03 0. -1.
    9900012    2    1    2    0    0  0.32740263569E+01 -0.15831853000E+02 -0.94501363932E+01  0.72461764504E+02  0.70000252994E+02 0.  0.
        -12    1    1    2    0    0 -0.32740263569E+01  0.15831853000E+02  0.94501363932E+01  0.18726235496E+02  0.00000000000E+00 0.  1.
         11    1    3    3    0    0  0.16215215081E+02 -0.27657245830E+01 -0.19588799709E+02  0.25579357046E+02  0.51100000000E-03 0. -1.
        -11    1    3    3    0    0  0.13612410901E+02  0.20259096305E+01 -0.22082351488E+01  0.13938376630E+02  0.51100000000E-03 0.  1.
        -12    1    3    3    0    0 -0.26553599625E+02 -0.15092038048E+02  0.12346898464E+02  0.32944030827E+02  0.00000000000E+00 0.  1.
</event>
<event>
 7    1  0.3509180E-013  0.7246169E+02  0.7816164E-02  0.1226708E+00
        -11   -1    0    0    0    0  0.00000000000E+00  0.00000000000E+00  0.45593999997E+02  0.45594000000E+02  0.51100000000E-03 0. -1.
         11   -1    0    0    0    0 -0.00000000000E+00 -0.00000000000E+00 -0.45593999997E+02  0.45594000000E+02  0.51100000000E-03 0.  1.
    9900012    2    1    2    0    0 -0.12420903828E+02  0.27497728262E+01  0.13741708255E+02  0.72461691013E+02  0.70000157259E+02 0.  0.
        -12    1    1    2    0    0  0.12420903828E+02 -0.27497728262E+01 -0.13741708255E+02  0.18726308987E+02  0.00000000000E+00 0.  1.
         11    1    3    3    0    0 -0.49974159961E+01 -0.32749481669E+01  0.17476200562E+02  0.18469354035E+02  0.51100000000E-03 0. -1.
        -11    1    3    3    0    0  0.17754872896E+02  0.86249208697E+01  0.13011945691E+02  0.23641816819E+02  0.51100000000E-03 0.  1.
        -12    1    3    3    0    0 -0.25178360728E+02 -0.26001998766E+01 -0.16746437998E+02  0.30350520159E+02  0.00000000000E+00 0.  1.
</event>
<event>
 7    1  0.3509180E-013  0.7246162E+02  0.7816164E-02  0.1226708E+00
        -11   -1    0    0    0    0  0.00000000000E+00  0.00000000000E+00  0.45593999997E+02  0.45594000000E+02  0.51100000000E-03 0.  1.
         11   -1    0    0    0    0 -0.00000000000E+00 -0.00000000000E+00 -0.45593999997E+02  0.45594000000E+02  0.51100000000E-03 0. -1.
    9900012    2    1    2    0    0 -0.15144222496E+02 -0.10097739723E+02  0.44006075455E+01  0.72461623701E+02  0.70000069572E+02 0.  0.
        -12    1    1    2    0    0  0.15144222496E+02  0.10097739723E+02 -0.44006075455E+01  0.18726376299E+02  0.00000000000E+00 0.  1.
         11    1    3    3    0    0 -0.18593755210E+02  0.17123101065E+02 -0.53917993733E+01  0.25845692554E+02  0.51100000000E-03 0. -1.
        -11    1    3    3    0    0 -0.19869809838E+00  0.60603479792E+01 -0.69160370481E+01  0.91977642542E+01  0.51100000000E-03 0.  1.
        -12    1    3    3    0    0  0.36482308114E+01 -0.33281188767E+02  0.16708443967E+02  0.37418166892E+02  0.00000000000E+00 0.  1.
</event>
<event>
 7    1  0.3509180E-013  0.7246158E+02  0.7816164E-02  0.1226708E+00
        -11   -1    0    0    0    0  0.00000000000E+00  0.00000000000E+00  0.45593999997E+02  0.45594000000E+02  0.51100000000E-03 0.  1.
         11   -1    0    0    0    0 -0.00000000000E+00 -0.00000000000E+00 -0.45593999997E+02  0.45594000000E+02  0.51100000000E-03 0. -1.
    9900012    2    1    2    0    0 -0.11571367684E+02 -0.28309254913E+01 -0.14448808036E+02  0.72461581686E+02  0.70000014839E+02 0.  0.
        -12    1    1    2    0    0  0.11571367684E+02  0.28309254913E+01  0.14448808036E+02  0.18726418314E+02  0.00000000000E+00 0.  1.
         11    1    3    3    0    0 -0.40716840337E+00  0.25805673090E+02 -0.86163894191E+01  0.27209202793E+02  0.51100000000E-03 0. -1.
        -11    1    3    3    0    0 -0.42503202380E+01  0.30481193469E+01  0.83529672499E+01  0.98553698975E+01  0.51100000000E-03 0.  1.
        -12    1    3    3    0    0 -0.69138790426E+01 -0.31684717928E+02 -0.14185385867E+02  0.35397008995E+02  0.00000000000E+00 0.  1.
</event>
<event>
 7    1  0.3509180E-013  0.7246158E+02  0.7816164E-02  0.1226708E+00
        -11   -1    0    0    0    0  0.00000000000E+00  0.00000000000E+00  0.45593999997E+02  0.45594000000E+02  0.51100000000E-03 0.  1.
         11   -1    0    0    0    0 -0.00000000000E+00 -0.00000000000E+00 -0.45593999997E+02  0.45594000000E+02  0.51100000000E-03 0. -1.
    9900012    2    1    2    0    0  0.13265498383E+02 -0.13086227646E+02  0.18590238355E+01  0.72461580935E+02  0.70000013862E+02 0.  0.
        -12    1    1    2    0    0 -0.13265498383E+02  0.13086227646E+02 -0.18590238355E+01  0.18726419065E+02  0.00000000000E+00 0.  1.
         11    1    3    3    0    0 -0.18949318934E+02 -0.84370567248E+01 -0.10456003791E+02  0.23229047113E+02  0.51100000000E-03 0. -1.
        -11    1    3    3    0    0  0.93042523286E+01 -0.15394364871E+02 -0.48802311727E+01  0.18637924717E+02  0.51100000000E-03 0.  1.
        -12    1    3    3    0    0  0.22910564989E+02  0.10745193950E+02  0.17195258799E+02  0.30594609105E+02  0.00000000000E+00 0.  1.
</event>
<event>
 7    1  0.3509180E-013  0.7246157E+02  0.7816164E-02  0.1226708E+00
        -11   -1    0    0    0    0  0.00000000000E+00  0.00000000000E+00  0.45593999997E+02  0.45594000000E+02  0.51100000000E-03 0. -1.
         11   -1    0    0    0    0 -0.00000000000E+00 -0.00000000000E+00 -0.45593999997E+02  0.45594000000E+02  0.51100000000E-03 0.  1.
    9900012    2    1    2    0    0  0.70731939317E+01 -0.17226520469E+02 -0.19738196101E+01  0.72461573654E+02  0.70000004376E+02 0.  0.
        -12    1    1    2    0    0 -0.70731939317E+01  0.17226520469E+02  0.19738196101E+01  0.18726426346E+02  0.00000000000E+00 0.  1.
         11    1    3    3    0    0  0.16053843261E+01 -0.16631829109E+02  0.26680825439E+02  0.31481128390E+02  0.51100000000E-03 0. -1.
        -11    1    3    3    0    0  0.42389642684E+01  0.29637789903E+01  0.49537390624E+01  0.71618667212E+01  0.51100000000E-03 0.  1.
        -12    1    3    3    0    0  0.12288453372E+01 -0.35584703499E+01 -0.33608384111E+02  0.33818578543E+02  0.00000000000E+00 0.  1.
</event>
<event>
 7    1  0.3509180E-013  0.7246157E+02  0.7816164E-02  0.1226708E+00
        -11   -1    0    0    0    0  0.00000000000E+00  0.00000000000E+00  0.45593999997E+02  0.45594000000E+02  0.51100000000E-03 0. -1.
         11   -1    0    0    0    0 -0.00000000000E+00 -0.00000000000E+00 -0.45593999997E+02  0.45594000000E+02  0.51100000000E-03 0.  1.
    9900012    2    1    2    0    0 -0.10747812055E+02  0.15280880178E+02 -0.12877583549E+01  0.72461572562E+02  0.70000002954E+02 0.  0.
        -12    1    1    2    0    0  0.10747812055E+02 -0.15280880178E+02  0.12877583549E+01  0.18726427438E+02  0.00000000000E+00 0.  1.
         11    1    3    3    0    0  0.22995673678E+01 -0.94216258807E+00 -0.12478250280E+00  0.24882225293E+01  0.51100000000E-03 0. -1.
        -11    1    3    3    0    0  0.21373960420E+02 -0.50752421299E+01  0.14770969551E+02  0.26472359329E+02  0.51100000000E-03 0.  1.
         12    1    3    3    0    0 -0.34421339843E+02  0.21298284896E+02 -0.15933945403E+02  0.43500990704E+02  0.00000000000E+00 0. -1.
</event>
<event>
 7    1  0.3509180E-013  0.7246158E+02  0.7816164E-02  0.1226708E+00
        -11   -1    0    0    0    0  0.00000000000E+00  0.00000000000E+00  0.45593999997E+02  0.45594000000E+02  0.51100000000E-03 0. -1.
         11   -1    0    0    0    0 -0.00000000000E+00 -0.00000000000E+00 -0.45593999997E+02  0.45594000000E+02  0.51100000000E-03 0.  1.
    9900012    2    1    2    0    0 -0.15306106096E+02 -0.75927276808E+01 -0.76650168711E+01  0.72461577996E+02  0.70000010032E+02 0.  0.
        -12    1    1    2    0    0  0.15306106096E+02  0.75927276808E+01  0.76650168711E+01  0.18726422004E+02  0.00000000000E+00 0.  1.
         11    1    3    3    0    0  0.18488924582E+02  0.34052133469E+00  0.15045752417E+02  0.23839692805E+02  0.51100000000E-03 0. -1.
        -11    1    3    3    0    0 -0.20960600648E+02 -0.13159749492E+02 -0.35912777563E+01  0.25008459816E+02  0.51100000000E-03 0.  1.
        -12    1    3    3    0    0 -0.12834430030E+02  0.52265004765E+01 -0.19119491532E+02  0.23613425374E+02  0.00000000000E+00 0.  1.
</event>
<event>
 7    1  0.3509180E-013  0.7246156E+02  0.7816164E-02  0.1226708E+00
        -11   -1    0    0    0    0  0.00000000000E+00  0.00000000000E+00  0.45593999997E+02  0.45594000000E+02  0.51100000000E-03 0. -1.
         11   -1    0    0    0    0 -0.00000000000E+00 -0.00000000000E+00 -0.45593999997E+02  0.45594000000E+02  0.51100000000E-03 0.  1.
    9900012    2    1    2    0    0 -0.17108314889E+02  0.76136642871E+01 -0.13168582009E+00  0.72461557108E+02  0.69999982823E+02 0.  0.
        -12    1    1    2    0    0  0.17108314889E+02 -0.76136642871E+01  0.13168582009E+00  0.18726442892E+02  0.00000000000E+00 0.  1.
         11    1    3    3    0    0 -0.19514006724E+02  0.14915916024E+02  0.21127152606E+02  0.32398110852E+02  0.51100000000E-03 0. -1.
        -11    1    3    3    0    0 -0.69309562914E+01 -0.35536970057E+01  0.67472664931E+01  0.10304975639E+02  0.51100000000E-03 0.  1.
        -12    1    3    3    0    0  0.93366481270E+01 -0.37485547311E+01 -0.28006104919E+02  0.29758470618E+02  0.00000000000E+00 0.  1.
</event>
<event>
 7    1  0.3509180E-013  0.7246153E+02  0.7816164E-02  0.1226708E+00
        -11   -1    0    0    0    0  0.00000000000E+00  0.00000000000E+00  0.45593999997E+02  0.45594000000E+02  0.51100000000E-03 0. -1.
         11   -1    0    0    0    0 -0.00000000000E+00 -0.00000000000E+00 -0.45593999997E+02  0.45594000000E+02  0.51100000000E-03 0.  1.
    9900012    2    1    2    0    0  0.91163582931E+01  0.99218674441E+01  0.13004971135E+02  0.72461528994E+02  0.69999946199E+02 0.  0.
        -12    1    1    2    0    0 -0.91163582931E+01 -0.99218674441E+01 -0.13004971135E+02  0.18726471006E+02  0.00000000000E+00 0.  1.
         11    1    3    3    0    0 -0.12239825876E+00  0.29997007777E+01 -0.11998173410E+02  0.12368077923E+02  0.51100000000E-03 0. -1.
        -11    1    3    3    0    0  0.47902869744E+01 -0.67303771301E+01 -0.15256656640E+02  0.17349651227E+02  0.51100000000E-03 0.  1.
         12    1    3    3    0    0  0.44484695775E+01  0.13652543797E+02  0.40259801184E+02  0.42743799844E+02  0.00000000000E+00 0. -1.
</event>
<event>
 7    1  0.3509180E-013  0.7246158E+02  0.7816164E-02  0.1226708E+00
        -11   -1    0    0    0    0  0.00000000000E+00  0.00000000000E+00  0.45593999997E+02  0.45594000000E+02  0.51100000000E-03 0. -1.
         11   -1    0    0    0    0 -0.00000000000E+00 -0.00000000000E+00 -0.45593999997E+02  0.45594000000E+02  0.51100000000E-03 0.  1.
    9900012    2    1    2    0    0  0.16983232030E+02 -0.14635160558E+01  0.77528505727E+01  0.72461581724E+02  0.70000014890E+02 0.  0.
        -12    1    1    2    0    0 -0.16983232030E+02  0.14635160558E+01 -0.77528505727E+01  0.18726418276E+02  0.00000000000E+00 0.  1.
         11    1    3    3    0    0 -0.99805845796E+01 -0.10703159680E+02 -0.95753683624E+01  0.17488778552E+02  0.51100000000E-03 0. -1.
        -11    1    3    3    0    0  0.15471829641E+02 -0.16774640694E+02  0.26642678462E+01  0.22975299917E+02  0.51100000000E-03 0.  1.
        -12    1    3    3    0    0  0.11491986969E+02  0.26014284318E+02  0.14663951089E+02  0.31997503256E+02  0.00000000000E+00 0.  1.
</event>
<event>
 7    1  0.3509180E-013  0.7246148E+02  0.7816164E-02  0.1226708E+00
        -11   -1    0    0    0    0  0.00000000000E+00  0.00000000000E+00  0.45593999997E+02  0.45594000000E+02  0.51100000000E-03 0. -1.
         11   -1    0    0    0    0 -0.00000000000E+00 -0.00000000000E+00 -0.45593999997E+02  0.45594000000E+02  0.51100000000E-03 0.  1.
    9900012    2    1    2    0    0  0.48501684532E+01 -0.15037068662E+02 -0.10052106320E+02  0.72461483788E+02  0.69999887309E+02 0.  0.
        -12    1    1    2    0    0 -0.48501684532E+01  0.15037068662E+02  0.10052106320E+02  0.18726516212E+02  0.00000000000E+00 0.  1.
         11    1    3    3    0    0 -0.25533997420E+00 -0.28945981775E+01  0.15379375139E+02  0.15651488014E+02  0.51100000000E-03 0. -1.
        -11    1    3    3    0    0 -0.23709391278E+01  0.18808609370E+02 -0.93159270525E+01  0.21122775288E+02  0.51100000000E-03 0.  1.
         12    1    3    3    0    0  0.74764475553E+01 -0.30951079854E+02 -0.16115554407E+02  0.35687220486E+02  0.00000000000E+00 0. -1.
</event>
<event>
 7    1  0.3509180E-013  0.7246158E+02  0.7816164E-02  0.1226708E+00
        -11   -1    0    0    0    0  0.00000000000E+00  0.00000000000E+00  0.45593999997E+02  0.45594000000E+02  0.51100000000E-03 0.  1.
         11   -1    0    0    0    0 -0.00000000000E+00 -0.00000000000E+00 -0.45593999997E+02  0.45594000000E+02  0.51100000000E-03 0. -1.
    9900012    2    1    2    0    0  0.39889788773E+01 -0.92003281469E+01 -0.15815209862E+02  0.72461578733E+02  0.70000010993E+02 0.  0.
        -12    1    1    2    0    0 -0.39889788773E+01  0.92003281469E+01  0.15815209862E+02  0.18726421267E+02  0.00000000000E+00 0.  1.
         11    1    3    3    0    0  0.20289019828E+02 -0.13672443316E+02 -0.15667259391E+02  0.29052418985E+02  0.51100000000E-03 0. -1.
        -11    1    3    3    0    0  0.88098215123E+01  0.11422206210E+01 -0.12414505311E+02  0.15265567969E+02  0.51100000000E-03 0.  1.
        -12    1    3    3    0    0 -0.25109862463E+02  0.33298945483E+01  0.12266554840E+02  0.28143591779E+02  0.00000000000E+00 0.  1.
</event>
<event>
 7    1  0.3509180E-013  0.7246154E+02  0.7816164E-02  0.1226708E+00
        -11   -1    0    0    0    0  0.00000000000E+00  0.00000000000E+00  0.45593999997E+02  0.45594000000E+02  0.51100000000E-03 0.  1.
         11   -1    0    0    0    0 -0.00000000000E+00 -0.00000000000E+00 -0.45593999997E+02  0.45594000000E+02  0.51100000000E-03 0. -1.
    9900012    2    1    2    0    0 -0.73890349675E+01  0.17164041403E+02  0.12157886360E+01  0.72461540189E+02  0.69999960783E+02 0.  0.
        -12    1    1    2    0    0  0.73890349675E+01 -0.17164041403E+02 -0.12157886360E+01  0.18726459811E+02  0.00000000000E+00 0.  1.
         11    1    3    3    0    0 -0.18949348322E+02  0.22065864327E+02 -0.11882469430E+02  0.31419313333E+02  0.51100000000E-03 0. -1.
        -11    1    3    3    0    0  0.13809695364E+02 -0.81716455174E+00 -0.10259834156E+02  0.17223229695E+02  0.51100000000E-03 0.  1.
        -12    1    3    3    0    0 -0.22493820096E+01 -0.40846583719E+01  0.23358092223E+02  0.23818997160E+02  0.00000000000E+00 0.  1.
</event>
<event>
 7    1  0.3509180E-013  0.7246155E+02  0.7816164E-02  0.1226708E+00
        -11   -1    0    0    0    0  0.00000000000E+00  0.00000000000E+00  0.45593999997E+02  0.45594000000E+02  0.51100000000E-03 0.  1.
         11   -1    0    0    0    0 -0.00000000000E+00 -0.00000000000E+00 -0.45593999997E+02  0.45594000000E+02  0.51100000000E-03 0. -1.
    9900012    2    1    2    0    0  0.63322919821E+01  0.17623130435E+02  0.85625135456E-01  0.72461548662E+02  0.69999971819E+02 0.  0.
        -12    1    1    2    0    0 -0.63322919821E+01 -0.17623130435E+02 -0.85625135456E-01  0.18726451338E+02  0.00000000000E+00 0.  1.
         11    1    3    3    0    0  0.46325018924E+01  0.39107635798E+01 -0.13653997679E+02  0.14939404220E+02  0.51100000000E-03 0. -1.
        -11    1    3    3    0    0 -0.19122575396E+01  0.25580623495E+02 -0.12471797940E+02  0.28523162016E+02  0.51100000000E-03 0.  1.
        -12    1    3    3    0    0  0.36120476293E+01 -0.11868256640E+02  0.26211420755E+02  0.28998982426E+02  0.00000000000E+00 0.  1.
</event>
<event>
 7    1  0.3509180E-013  0.7246156E+02  0.7816164E-02  0.1226708E+00
        -11   -1    0    0    0    0  0.00000000000E+00  0.00000000000E+00  0.45593999997E+02  0.45594000000E+02  0.51100000000E-03 0. -1.
         11   -1    0    0    0    0 -0.00000000000E+00 -0.00000000000E+00 -0.45593999997E+02  0.45594000000E+02  0.51100000000E-03 0.  1.
    9900012    2    1    2    0    0  0.16900701367E+02  0.75567982806E+01 -0.28178918386E+01  0.72461563570E+02  0.69999991240E+02 0.  0.
        -12    1    1    2    0    0 -0.16900701367E+02 -0.75567982806E+01  0.28178918386E+01  0.18726436430E+02  0.00000000000E+00 0.  1.
         11    1    3    3    0    0 -0.12112760980E+01 -0.62618215588E+01  0.15092804191E+02  0.16385064468E+02  0.51100000000E-03 0. -1.
        -11    1    3    3    0    0  0.15813200469E+02 -0.89828480161E+01  0.93610739166E+01  0.20454304503E+02  0.51100000000E-03 0.  1.
        -12    1    3    3    0    0  0.22987769960E+01  0.22801467856E+02 -0.27271769946E+02  0.35622194599E+02  0.00000000000E+00 0.  1.
</event>
<event>
 7    1  0.3509180E-013  0.7246150E+02  0.7816164E-02  0.1226708E+00
        -11   -1    0    0    0    0  0.00000000000E+00  0.00000000000E+00  0.45593999997E+02  0.45594000000E+02  0.51100000000E-03 0. -1.
         11   -1    0    0    0    0 -0.00000000000E+00 -0.00000000000E+00 -0.45593999997E+02  0.45594000000E+02  0.51100000000E-03 0.  1.
    9900012    2    1    2    0    0  0.79744346999E+01  0.34517717026E+01  0.16588417400E+02  0.72461496629E+02  0.69999904037E+02 0.  0.
        -12    1    1    2    0    0 -0.79744346999E+01 -0.34517717026E+01 -0.16588417400E+02  0.18726503371E+02  0.00000000000E+00 0.  1.
         11    1    3    3    0    0  0.69367039531E+01  0.15707341513E+02  0.13442063759E+02  0.21806593441E+02  0.51100000000E-03 0. -1.
        -11    1    3    3    0    0  0.13441165574E+00  0.10779770756E+02  0.19574716867E+02  0.22347059421E+02  0.51100000000E-03 0.  1.
        -12    1    3    3    0    0  0.90331909103E+00 -0.23035340567E+02 -0.16428363227E+02  0.28307843767E+02  0.00000000000E+00 0.  1.
</event>
<event>
 7    1  0.3509180E-013  0.7246157E+02  0.7816164E-02  0.1226708E+00
        -11   -1    0    0    0    0  0.00000000000E+00  0.00000000000E+00  0.45593999997E+02  0.45594000000E+02  0.51100000000E-03 0.  1.
         11   -1    0    0    0    0 -0.00000000000E+00 -0.00000000000E+00 -0.45593999997E+02  0.45594000000E+02  0.51100000000E-03 0. -1.
    9900012    2    1    2    0    0  0.25254608461E+01  0.86941356613E+01 -0.16392472603E+02  0.72461572006E+02  0.70000002229E+02 0.  0.
        -12    1    1    2    0    0 -0.25254608461E+01 -0.86941356613E+01  0.16392472603E+02  0.18726427994E+02  0.00000000000E+00 0.  1.
         11    1    3    3    0    0 -0.90031269948E+01  0.13994621185E+02 -0.33175884685E+02  0.37115293919E+02  0.51100000000E-03 0. -1.
        -11    1    3    3    0    0  0.13519993071E+02 -0.39262880164E+01 -0.38308940912E+01  0.14590466066E+02  0.51100000000E-03 0.  1.
        -12    1    3    3    0    0 -0.19914052304E+01 -0.13741975074E+01  0.20614306174E+02  0.20755812020E+02  0.00000000000E+00 0.  1.
</event>
<event>
 7    1  0.3509180E-013  0.7246154E+02  0.7816164E-02  0.1226708E+00
        -11   -1    0    0    0    0  0.00000000000E+00  0.00000000000E+00  0.45593999997E+02  0.45594000000E+02  0.51100000000E-03 0.  1.
         11   -1    0    0    0    0 -0.00000000000E+00 -0.00000000000E+00 -0.45593999997E+02  0.45594000000E+02  0.51100000000E-03 0. -1.
    9900012    2    1    2    0    0 -0.18717908433E+02 -0.50764735566E+00 -0.25006540780E+00  0.72461539185E+02  0.69999959474E+02 0.  0.
        -12    1    1    2    0    0  0.18717908433E+02  0.50764735566E+00  0.25006540780E+00  0.18726460815E+02  0.00000000000E+00 0.  1.
         11    1    3    3    0    0 -0.13965743383E+02  0.13117002005E+02 -0.14321590297E+02  0.23920821030E+02  0.51100000000E-03 0. -1.
        -11    1    3    3    0    0 -0.67183832772E+01 -0.35321867459E+01 -0.15485824546E+02  0.17245978639E+02  0.51100000000E-03 0.  1.
        -12    1    3    3    0    0  0.19662182269E+01 -0.10092462615E+02  0.29557349436E+02  0.31294739517E+02  0.00000000000E+00 0.  1.
</event>
<event>
 7    1  0.3509180E-013  0.7246162E+02  0.7816164E-02  0.1226708E+00
        -11   -1    0    0    0    0  0.00000000000E+00  0.00000000000E+00  0.45593999997E+02  0.45594000000E+02  0.51100000000E-03 0.  1.
         11   -1    0    0    0    0 -0.00000000000E+00 -0.00000000000E+00 -0.45593999997E+02  0.45594000000E+02  0.51100000000E-03 0. -1.
    9900012    2    1    2    0    0  0.96193208632E+01 -0.13063126383E+02 -0.93541743037E+01  0.72461623371E+02  0.70000069142E+02 0.  0.
        -12    1    1    2    0    0 -0.96193208632E+01  0.13063126383E+02  0.93541743037E+01  0.18726376629E+02  0.00000000000E+00 0.  1.
         11    1    3    3    0    0  0.69167034916E+01 -0.23954768336E+02 -0.32434788376E+02  0.40910722439E+02  0.51100000000E-03 0. -1.
        -11    1    3    3    0    0 -0.58888490052E+01  0.28123650750E+00  0.16172960405E+01  0.61133692284E+01  0.51100000000E-03 0.  1.
        -12    1    3    3    0    0  0.85914663767E+01  0.10610405446E+02  0.21463318032E+02  0.25437531703E+02  0.00000000000E+00 0.  1.
</event>
<event>
 7    1  0.3509180E-013  0.7246215E+02  0.7816164E-02  0.1226706E+00
        -11   -1    0    0    0    0  0.00000000000E+00  0.00000000000E+00  0.45593999997E+02  0.45594000000E+02  0.51100000000E-03 0.  1.
         11   -1    0    0    0    0 -0.00000000000E+00 -0.00000000000E+00 -0.45593999997E+02  0.45594000000E+02  0.51100000000E-03 0. -1.
    9900012    2    1    2    0    0  0.16182806297E+02  0.55754638594E+01  0.75952914122E+01  0.72462149725E+02  0.70000754811E+02 0.  0.
        -12    1    1    2    0    0 -0.16182806297E+02 -0.55754638594E+01 -0.75952914122E+01  0.18725850275E+02  0.00000000000E+00 0.  1.
         11    1    3    3    0    0  0.25425900664E+02 -0.37034813043E+01  0.12749102025E+02  0.28683301781E+02  0.51100000000E-03 0. -1.
        -11    1    3    3    0    0  0.92187176658E+01  0.14877323996E+02  0.91624000059E+01  0.19755229658E+02  0.51100000000E-03 0.  1.
        -12    1    3    3    0    0 -0.18461812033E+02 -0.55983788327E+01 -0.14316210618E+02  0.24023618286E+02  0.00000000000E+00 0.  1.
</event>
<event>
 7    1  0.3509180E-013  0.7246158E+02  0.7816164E-02  0.1226708E+00
        -11   -1    0    0    0    0  0.00000000000E+00  0.00000000000E+00  0.45593999997E+02  0.45594000000E+02  0.51100000000E-03 0. -1.
         11   -1    0    0    0    0 -0.00000000000E+00 -0.00000000000E+00 -0.45593999997E+02  0.45594000000E+02  0.51100000000E-03 0.  1.
    9900012    2    1    2    0    0 -0.87835500435E+01  0.16446402936E+02  0.17446277062E+01  0.72461584253E+02  0.70000018184E+02 0.  0.
        -12    1    1    2    0    0  0.87835500435E+01 -0.16446402936E+02 -0.17446277062E+01  0.18726415747E+02  0.00000000000E+00 0.  1.
         11    1    3    3    0    0  0.18165176134E+02 -0.27398618856E+01 -0.10560045919E+02  0.21189502995E+02  0.51100000000E-03 0. -1.
        -11    1    3    3    0    0  0.25562614159E+01 -0.13356635068E+01  0.14958574130E+02  0.15234087098E+02  0.51100000000E-03 0.  1.
        -12    1    3    3    0    0 -0.29504987593E+02  0.20521928328E+02 -0.26539005051E+01  0.36037994160E+02  0.00000000000E+00 0.  1.
</event>
<event>
 7    1  0.3509180E-013  0.7246159E+02  0.7816164E-02  0.1226708E+00
        -11   -1    0    0    0    0  0.00000000000E+00  0.00000000000E+00  0.45593999997E+02  0.45594000000E+02  0.51100000000E-03 0.  1.
         11   -1    0    0    0    0 -0.00000000000E+00 -0.00000000000E+00 -0.45593999997E+02  0.45594000000E+02  0.51100000000E-03 0. -1.
    9900012    2    1    2    0    0 -0.70944103788E+01 -0.17330371303E+02  0.77185808089E-01  0.72461591221E+02  0.70000027261E+02 0.  0.
        -12    1    1    2    0    0  0.70944103788E+01  0.17330371303E+02 -0.77185808089E-01  0.18726408779E+02  0.00000000000E+00 0.  1.
         11    1    3    3    0    0 -0.19584243282E+02 -0.63320154094E+01  0.17889304250E+01  0.20660040571E+02  0.51100000000E-03 0. -1.
        -11    1    3    3    0    0  0.59454062667E+01 -0.74660120309E+00 -0.24903391371E+02  0.25614140061E+02  0.51100000000E-03 0.  1.
        -12    1    3    3    0    0  0.65444266361E+01 -0.10251754690E+02  0.23191646754E+02  0.26187410589E+02  0.00000000000E+00 0.  1.
</event>
<event>
 7    1  0.3509180E-013  0.7246152E+02  0.7816164E-02  0.1226708E+00
        -11   -1    0    0    0    0  0.00000000000E+00  0.00000000000E+00  0.45593999997E+02  0.45594000000E+02  0.51100000000E-03 0. -1.
         11   -1    0    0    0    0 -0.00000000000E+00 -0.00000000000E+00 -0.45593999997E+02  0.45594000000E+02  0.51100000000E-03 0.  1.
    9900012    2    1    2    0    0 -0.13135044267E+02  0.11926467395E+02  0.59925808242E+01  0.72461520423E+02  0.69999935033E+02 0.  0.
        -12    1    1    2    0    0  0.13135044267E+02 -0.11926467395E+02 -0.59925808242E+01  0.18726479577E+02  0.00000000000E+00 0.  1.
         11    1    3    3    0    0 -0.25158381317E+02  0.83364721417E+01  0.18079997751E+02  0.32083130103E+02  0.51100000000E-03 0. -1.
        -11    1    3    3    0    0 -0.75977649640E+01  0.45867111323E+01  0.82386711688E+01  0.12109486131E+02  0.51100000000E-03 0.  1.
        -12    1    3    3    0    0  0.19621102014E+02 -0.99671587878E+00 -0.20326088095E+02  0.28268904189E+02  0.00000000000E+00 0.  1.
</event>
<event>
 7    1  0.3509180E-013  0.7246127E+02  0.7816164E-02  0.1226709E+00
        -11   -1    0    0    0    0  0.00000000000E+00  0.00000000000E+00  0.45593999997E+02  0.45594000000E+02  0.51100000000E-03 0. -1.
         11   -1    0    0    0    0 -0.00000000000E+00 -0.00000000000E+00 -0.45593999997E+02  0.45594000000E+02  0.51100000000E-03 0.  1.
    9900012    2    1    2    0    0 -0.13509842260E+02  0.11438340727E+01  0.12917666126E+02  0.72461273313E+02  0.69999613125E+02 0.  0.
        -12    1    1    2    0    0  0.13509842260E+02 -0.11438340727E+01 -0.12917666126E+02  0.18726726687E+02  0.00000000000E+00 0.  1.
         11    1    3    3    0    0  0.47712170100E+00 -0.13249929314E+01  0.10556460875E+02  0.10649982059E+02  0.51100000000E-03 0. -1.
        -11    1    3    3    0    0 -0.22943729295E+02  0.19458482462E+02  0.19680503743E+02  0.35949540769E+02  0.51100000000E-03 0.  1.
         12    1    3    3    0    0  0.89567653344E+01 -0.16989655458E+02 -0.17319298493E+02  0.25861750484E+02  0.00000000000E+00 0. -1.
</event>
<event>
 7    1  0.3509180E-013  0.7246156E+02  0.7816164E-02  0.1226708E+00
        -11   -1    0    0    0    0  0.00000000000E+00  0.00000000000E+00  0.45593999997E+02  0.45594000000E+02  0.51100000000E-03 0.  1.
         11   -1    0    0    0    0 -0.00000000000E+00 -0.00000000000E+00 -0.45593999997E+02  0.45594000000E+02  0.51100000000E-03 0. -1.
    9900012    2    1    2    0    0 -0.16399330631E+01  0.10447638647E+00 -0.18654204162E+02  0.72461558034E+02  0.69999984029E+02 0.  0.
        -12    1    1    2    0    0  0.16399330631E+01 -0.10447638647E+00  0.18654204162E+02  0.18726441966E+02  0.00000000000E+00 0.  1.
         11    1    3    3    0    0  0.88338947742E+01  0.84804707215E+01 -0.18400105474E+02  0.22102487694E+02  0.51100000000E-03 0. -1.
        -11    1    3    3    0    0  0.84564781428E+01 -0.12007143802E+00  0.19825740561E+02  0.21554267067E+02  0.51100000000E-03 0.  1.
         12    1    3    3    0    0 -0.18930305980E+02 -0.82559228970E+01 -0.20079839249E+02  0.28804803274E+02  0.00000000000E+00 0. -1.
</event>
<event>
 7    1  0.3509180E-013  0.7246097E+02  0.7816164E-02  0.1226710E+00
        -11   -1    0    0    0    0  0.00000000000E+00  0.00000000000E+00  0.45593999997E+02  0.45594000000E+02  0.51100000000E-03 0.  1.
         11   -1    0    0    0    0 -0.00000000000E+00 -0.00000000000E+00 -0.45593999997E+02  0.45594000000E+02  0.51100000000E-03 0. -1.
    9900012    2    1    2    0    0  0.39427567864E+01 -0.63206095842E+01 -0.17181565566E+02  0.72460970554E+02  0.69999218722E+02 0.  0.
        -12    1    1    2    0    0 -0.39427567864E+01  0.63206095842E+01  0.17181565566E+02  0.18727029446E+02  0.00000000000E+00 0.  1.
         11    1    3    3    0    0  0.62732716874E+01 -0.71853188219E+01  0.93443079353E+01  0.13352858693E+02  0.51100000000E-03 0.  1.
        -11    1    3    3    0    0 -0.19859851878E+02  0.19050656576E+02 -0.12635975960E+02  0.30282158465E+02  0.51100000000E-03 0. -1.
         12    1    3    3    0    0  0.17529336977E+02 -0.18185947338E+02 -0.13889897541E+02  0.28825953395E+02  0.00000000000E+00 0. -1.
</event>
<event>
 7    1  0.3509180E-013  0.7246159E+02  0.7816164E-02  0.1226708E+00
        -11   -1    0    0    0    0  0.00000000000E+00  0.00000000000E+00  0.45593999997E+02  0.45594000000E+02  0.51100000000E-03 0.  1.
         11   -1    0    0    0    0 -0.00000000000E+00 -0.00000000000E+00 -0.45593999997E+02  0.45594000000E+02  0.51100000000E-03 0. -1.
    9900012    2    1    2    0    0 -0.13020100061E+02  0.12779746156E+02  0.42229664952E+01  0.72461591817E+02  0.70000028037E+02 0.  0.
        -12    1    1    2    0    0  0.13020100061E+02 -0.12779746156E+02 -0.42229664952E+01  0.18726408183E+02  0.00000000000E+00 0.  1.
         11    1    3    3    0    0 -0.20265654343E+02  0.17354270857E+01  0.55871101101E+01  0.21093227652E+02  0.51100000000E-03 0. -1.
        -11    1    3    3    0    0  0.62443450110E+01 -0.78516364378E+00  0.23225386962E+02  0.24062978336E+02  0.51100000000E-03 0.  1.
         12    1    3    3    0    0  0.10012092708E+01  0.11829482714E+02 -0.24589530577E+02  0.27305385830E+02  0.00000000000E+00 0. -1.
</event>
<event>
 7    1  0.3509180E-013  0.7246159E+02  0.7816164E-02  0.1226708E+00
        -11   -1    0    0    0    0  0.00000000000E+00  0.00000000000E+00  0.45593999997E+02  0.45594000000E+02  0.51100000000E-03 0.  1.
         11   -1    0    0    0    0 -0.00000000000E+00 -0.00000000000E+00 -0.45593999997E+02  0.45594000000E+02  0.51100000000E-03 0. -1.
    9900012    2    1    2    0    0 -0.12647390367E+02 -0.13688931863E+02  0.18262446744E+01  0.72461587950E+02  0.70000023000E+02 0.  0.
        -12    1    1    2    0    0  0.12647390367E+02  0.13688931863E+02 -0.18262446744E+01  0.18726412050E+02  0.00000000000E+00 0.  1.
         11    1    3    3    0    0 -0.11353761824E+02 -0.25636452001E+01 -0.79360419569E+01  0.14087616778E+02  0.51100000000E-03 0. -1.
        -11    1    3    3    0    0  0.46810189027E+01 -0.17124353625E+02  0.30881652983E+02  0.35620666982E+02  0.51100000000E-03 0.  1.
         12    1    3    3    0    0 -0.59746474457E+01  0.59990669615E+01 -0.21119366351E+02  0.22753304191E+02  0.00000000000E+00 0. -1.
</event>
<event>
 7    1  0.3509180E-013  0.7246163E+02  0.7816164E-02  0.1226708E+00
        -11   -1    0    0    0    0  0.00000000000E+00  0.00000000000E+00  0.45593999997E+02  0.45594000000E+02  0.51100000000E-03 0.  1.
         11   -1    0    0    0    0 -0.00000000000E+00 -0.00000000000E+00 -0.45593999997E+02  0.45594000000E+02  0.51100000000E-03 0. -1.
    9900012    2    1    2    0    0  0.10346672281E+02 -0.14314803213E+02 -0.62217133650E+01  0.72461629943E+02  0.70000077703E+02 0.  0.
        -12    1    1    2    0    0 -0.10346672281E+02  0.14314803213E+02  0.62217133650E+01  0.18726370057E+02  0.00000000000E+00 0.  1.
         11    1    3    3    0    0  0.29899841561E+01  0.13100350885E+02 -0.16719613949E+02  0.21450051035E+02  0.51100000000E-03 0. -1.
        -11    1    3    3    0    0  0.74453501982E+01 -0.51641531617E+00  0.20883776225E+02  0.22177286444E+02  0.51100000000E-03 0.  1.
         12    1    3    3    0    0 -0.88662073621E-01 -0.26898738782E+02 -0.10385875641E+02  0.28834292463E+02  0.00000000000E+00 0. -1.
</event>
<event>
 7    1  0.3509180E-013  0.7246163E+02  0.7816164E-02  0.1226708E+00
        -11   -1    0    0    0    0  0.00000000000E+00  0.00000000000E+00  0.45593999997E+02  0.45594000000E+02  0.51100000000E-03 0.  1.
         11   -1    0    0    0    0 -0.00000000000E+00 -0.00000000000E+00 -0.45593999997E+02  0.45594000000E+02  0.51100000000E-03 0. -1.
    9900012    2    1    2    0    0 -0.40128281796E+00  0.16831727779E+01 -0.18646257270E+02  0.72461627989E+02  0.70000075158E+02 0.  0.
        -12    1    1    2    0    0  0.40128281796E+00 -0.16831727779E+01  0.18646257270E+02  0.18726372011E+02  0.00000000000E+00 0.  1.
         11    1    3    3    0    0  0.87095306543E+01 -0.18305632739E+02 -0.23722339004E+02  0.31204190140E+02  0.51100000000E-03 0. -1.
        -11    1    3    3    0    0 -0.18708764836E+02  0.19184386975E+01 -0.33971606657E+01  0.19111226794E+02  0.51100000000E-03 0.  1.
        -12    1    3    3    0    0  0.95979513635E+01  0.18070366820E+02  0.84732423993E+01  0.22146211056E+02  0.00000000000E+00 0.  1.
</event>
<event>
 7    1  0.3509180E-013  0.7246151E+02  0.7816164E-02  0.1226708E+00
        -11   -1    0    0    0    0  0.00000000000E+00  0.00000000000E+00  0.45593999997E+02  0.45594000000E+02  0.51100000000E-03 0. -1.
         11   -1    0    0    0    0 -0.00000000000E+00 -0.00000000000E+00 -0.45593999997E+02  0.45594000000E+02  0.51100000000E-03 0.  1.
    9900012    2    1    2    0    0  0.11853820643E+02 -0.99257727319E+01  0.10566329109E+02  0.72461512369E+02  0.69999924542E+02 0.  0.
        -12    1    1    2    0    0 -0.11853820643E+02  0.99257727319E+01 -0.10566329109E+02  0.18726487631E+02  0.00000000000E+00 0.  1.
         11    1    3    3    0    0  0.24504796474E+02  0.89371223998E+01 -0.56570456300E+01  0.26690061306E+02  0.51100000000E-03 0. -1.
        -11    1    3    3    0    0  0.36345328220E+01 -0.48162772530E+01 -0.10108916552E+02  0.11772703578E+02  0.51100000000E-03 0.  1.
         12    1    3    3    0    0 -0.16285508653E+02 -0.14046617879E+02  0.26332291291E+02  0.33998747485E+02  0.00000000000E+00 0. -1.
</event>
<event>
 7    1  0.3509180E-013  0.7246165E+02  0.7816164E-02  0.1226708E+00
        -11   -1    0    0    0    0  0.00000000000E+00  0.00000000000E+00  0.45593999997E+02  0.45594000000E+02  0.51100000000E-03 0.  1.
         11   -1    0    0    0    0 -0.00000000000E+00 -0.00000000000E+00 -0.45593999997E+02  0.45594000000E+02  0.51100000000E-03 0. -1.
    9900012    2    1    2    0    0  0.13587984583E+02 -0.77314314942E+01 -0.10308629045E+02  0.72461649828E+02  0.70000103608E+02 0.  0.
        -12    1    1    2    0    0 -0.13587984583E+02  0.77314314942E+01  0.10308629045E+02  0.18726350172E+02  0.00000000000E+00 0.  1.
         11    1    3    3    0    0 -0.60630070414E+01 -0.11613647902E+02 -0.43394199071E+01  0.13800994072E+02  0.51100000000E-03 0. -1.
        -11    1    3    3    0    0 -0.14111081876E+02 -0.13104914145E+02 -0.79034493168E+01  0.20816481879E+02  0.51100000000E-03 0.  1.
         12    1    3    3    0    0  0.33762073500E+02  0.16987130553E+02  0.19342401793E+01  0.37844173878E+02  0.00000000000E+00 0. -1.
</event>
<event>
 7    1  0.3509180E-013  0.7246158E+02  0.7816164E-02  0.1226708E+00
        -11   -1    0    0    0    0  0.00000000000E+00  0.00000000000E+00  0.45593999997E+02  0.45594000000E+02  0.51100000000E-03 0.  1.
         11   -1    0    0    0    0 -0.00000000000E+00 -0.00000000000E+00 -0.45593999997E+02  0.45594000000E+02  0.51100000000E-03 0. -1.
    9900012    2    1    2    0    0  0.36764886956E+01  0.14633703472E+02 -0.11091293728E+02  0.72461584353E+02  0.70000018314E+02 0.  0.
        -12    1    1    2    0    0 -0.36764886956E+01 -0.14633703472E+02  0.11091293728E+02  0.18726415647E+02  0.00000000000E+00 0.  1.
         11    1    3    3    0    0 -0.18077030633E+01 -0.65642094548E+01 -0.29602836499E+01  0.74242787987E+01  0.51100000000E-03 0. -1.
        -11    1    3    3    0    0  0.62181117095E+00  0.68988927074E+01  0.26428792216E+02  0.27321464601E+02  0.51100000000E-03 0.  1.
         12    1    3    3    0    0  0.48623805880E+01  0.14299020220E+02 -0.34559802293E+02  0.37715840953E+02  0.00000000000E+00 0. -1.
</event>
<event>
 7    1  0.3509180E-013  0.7246157E+02  0.7816164E-02  0.1226708E+00
        -11   -1    0    0    0    0  0.00000000000E+00  0.00000000000E+00  0.45593999997E+02  0.45594000000E+02  0.51100000000E-03 0. -1.
         11   -1    0    0    0    0 -0.00000000000E+00 -0.00000000000E+00 -0.45593999997E+02  0.45594000000E+02  0.51100000000E-03 0.  1.
    9900012    2    1    2    0    0  0.10374368507E+02  0.15419670983E+02  0.22990209352E+01  0.72461567547E+02  0.69999996421E+02 0.  0.
        -12    1    1    2    0    0 -0.10374368507E+02 -0.15419670983E+02 -0.22990209352E+01  0.18726432453E+02  0.00000000000E+00 0.  1.
         11    1    3    3    0    0 -0.48385718864E+01  0.91170770522E+01  0.11597757701E+02  0.15525490518E+02  0.51100000000E-03 0. -1.
        -11    1    3    3    0    0 -0.12144737490E+02  0.80088585270E+01  0.14570141553E+02  0.20589450910E+02  0.51100000000E-03 0.  1.
        -12    1    3    3    0    0  0.27357677884E+02 -0.17062645962E+01 -0.23868878319E+02  0.36346626120E+02  0.00000000000E+00 0.  1.
</event>
<event>
 7    1  0.3509180E-013  0.7246156E+02  0.7816164E-02  0.1226708E+00
        -11   -1    0    0    0    0  0.00000000000E+00  0.00000000000E+00  0.45593999997E+02  0.45594000000E+02  0.51100000000E-03 0. -1.
         11   -1    0    0    0    0 -0.00000000000E+00 -0.00000000000E+00 -0.45593999997E+02  0.45594000000E+02  0.51100000000E-03 0.  1.
    9900012    2    1    2    0    0 -0.29047667545E+01 -0.11341037439E+02 -0.14615834763E+02  0.72461563449E+02  0.69999991082E+02 0.  0.
        -12    1    1    2    0    0  0.29047667545E+01  0.11341037439E+02  0.14615834763E+02  0.18726436551E+02  0.00000000000E+00 0.  1.
         11    1    3    3    0    0 -0.12128290216E+02 -0.11215424897E+02  0.18239927260E+02  0.24608456390E+02  0.51100000000E-03 0. -1.
        -11    1    3    3    0    0  0.11400856369E+02 -0.15051757436E+02 -0.13030612347E+02  0.22941922026E+02  0.51100000000E-03 0.  1.
        -12    1    3    3    0    0 -0.21773329073E+01  0.14926144894E+02 -0.19825149677E+02  0.24911185032E+02  0.00000000000E+00 0.  1.
</event>
<event>
 7    1  0.3509180E-013  0.7246156E+02  0.7816164E-02  0.1226708E+00
        -11   -1    0    0    0    0  0.00000000000E+00  0.00000000000E+00  0.45593999997E+02  0.45594000000E+02  0.51100000000E-03 0. -1.
         11   -1    0    0    0    0 -0.00000000000E+00 -0.00000000000E+00 -0.45593999997E+02  0.45594000000E+02  0.51100000000E-03 0.  1.
    9900012    2    1    2    0    0 -0.19306817709E+01  0.16984228975E+02 -0.76477366645E+01  0.72461563017E+02  0.69999990520E+02 0.  0.
        -12    1    1    2    0    0  0.19306817709E+01 -0.16984228975E+02  0.76477366645E+01  0.18726436983E+02  0.00000000000E+00 0.  1.
         11    1    3    3    0    0  0.15413510480E+02  0.69846839416E+01  0.54453109702E+01  0.17776769304E+02  0.51100000000E-03 0. -1.
        -11    1    3    3    0    0 -0.22825543219E+01  0.38767923176E+01 -0.30520821357E+02  0.30850609548E+02  0.51100000000E-03 0.  1.
         12    1    3    3    0    0 -0.15061637929E+02  0.61227527160E+01  0.17427773722E+02  0.23834184165E+02  0.00000000000E+00 0. -1.
</event>
<event>
 7    1  0.3509180E-013  0.7246158E+02  0.7816164E-02  0.1226708E+00
        -11   -1    0    0    0    0  0.00000000000E+00  0.00000000000E+00  0.45593999997E+02  0.45594000000E+02  0.51100000000E-03 0.  1.
         11   -1    0    0    0    0 -0.00000000000E+00 -0.00000000000E+00 -0.45593999997E+02  0.45594000000E+02  0.51100000000E-03 0. -1.
    9900012    2    1    2    0    0 -0.92894438785E+01  0.77414621921E+01 -0.14298772473E+02  0.72461577526E+02  0.70000009420E+02 0.  0.
        -12    1    1    2    0    0  0.92894438785E+01 -0.77414621921E+01  0.14298772473E+02  0.18726422474E+02  0.00000000000E+00 0.  1.
         11    1    3    3    0    0  0.23249793405E+02  0.20460160273E+02  0.14887439844E+01  0.31006247930E+02  0.51100000000E-03 0. -1.
        -11    1    3    3    0    0 -0.98514437439E+01 -0.28896174582E+00  0.20052518182E+01  0.10057607958E+02  0.51100000000E-03 0.  1.
        -12    1    3    3    0    0 -0.22687793540E+02 -0.12429736335E+02 -0.17792768276E+02  0.31397721637E+02  0.00000000000E+00 0.  1.
</event>
<event>
 7    1  0.3509180E-013  0.7246154E+02  0.7816164E-02  0.1226708E+00
        -11   -1    0    0    0    0  0.00000000000E+00  0.00000000000E+00  0.45593999997E+02  0.45594000000E+02  0.51100000000E-03 0.  1.
         11   -1    0    0    0    0 -0.00000000000E+00 -0.00000000000E+00 -0.45593999997E+02  0.45594000000E+02  0.51100000000E-03 0. -1.
    9900012    2    1    2    0    0  0.13438011405E+02  0.12386779724E+02  0.40826210757E+01  0.72461541250E+02  0.69999962165E+02 0.  0.
        -12    1    1    2    0    0 -0.13438011405E+02 -0.12386779724E+02 -0.40826210757E+01  0.18726458750E+02  0.00000000000E+00 0.  1.
         11    1    3    3    0    0  0.97272852744E+01  0.26439757956E+02 -0.33050477382E+01  0.28365546362E+02  0.51100000000E-03 0. -1.
        -11    1    3    3    0    0  0.17656310637E+02  0.59978495544E+01  0.61719120205E+01  0.19642097720E+02  0.51100000000E-03 0.  1.
        -12    1    3    3    0    0 -0.13945584506E+02 -0.20050827786E+02  0.12157567934E+01  0.24453897169E+02  0.00000000000E+00 0.  1.
</event>
<event>
 7    1  0.3509180E-013  0.7246163E+02  0.7816164E-02  0.1226708E+00
        -11   -1    0    0    0    0  0.00000000000E+00  0.00000000000E+00  0.45593999997E+02  0.45594000000E+02  0.51100000000E-03 0. -1.
         11   -1    0    0    0    0 -0.00000000000E+00 -0.00000000000E+00 -0.45593999997E+02  0.45594000000E+02  0.51100000000E-03 0.  1.
    9900012    2    1    2    0    0  0.66587030500E+01 -0.28339443017E+01  0.17271582126E+02  0.72461625131E+02  0.70000071434E+02 0.  0.
        -12    1    1    2    0    0 -0.66587030500E+01  0.28339443017E+01 -0.17271582126E+02  0.18726374869E+02  0.00000000000E+00 0.  1.
         11    1    3    3    0    0  0.11954525229E+01 -0.14434502632E+01 -0.99505809318E+00  0.21219793276E+01  0.51100000000E-03 0. -1.
        -11    1    3    3    0    0  0.15662268114E+02  0.23539309383E+02 -0.11205395829E+02  0.30413263959E+02  0.51100000000E-03 0.  1.
         12    1    3    3    0    0 -0.10199017587E+02 -0.24929803421E+02  0.29472036048E+02  0.39926381844E+02  0.00000000000E+00 0. -1.
</event>
<event>
 7    1  0.3509180E-013  0.7246158E+02  0.7816164E-02  0.1226708E+00
        -11   -1    0    0    0    0  0.00000000000E+00  0.00000000000E+00  0.45593999997E+02  0.45594000000E+02  0.51100000000E-03 0. -1.
         11   -1    0    0    0    0 -0.00000000000E+00 -0.00000000000E+00 -0.45593999997E+02  0.45594000000E+02  0.51100000000E-03 0.  1.
    9900012    2    1    2    0    0  0.16460355255E+02  0.36538276981E+00  0.89219880561E+01  0.72461583617E+02  0.70000017355E+02 0.  0.
        -12    1    1    2    0    0 -0.16460355255E+02 -0.36538276981E+00 -0.89219880561E+01  0.18726416383E+02  0.00000000000E+00 0.  1.
         11    1    3    3    0    0  0.18058481527E+02  0.20545178419E+02  0.37763459469E+01  0.27612929948E+02  0.51100000000E-03 0. -1.
        -11    1    3    3    0    0  0.15143336037E+02 -0.23003879650E+02  0.40287401396E+01  0.27833969402E+02  0.51100000000E-03 0.  1.
         12    1    3    3    0    0 -0.16741462310E+02  0.28240840013E+01  0.11169019697E+01  0.17014684268E+02  0.00000000000E+00 0. -1.
</event>
<event>
 7    1  0.3509180E-013  0.7246156E+02  0.7816164E-02  0.1226708E+00
        -11   -1    0    0    0    0  0.00000000000E+00  0.00000000000E+00  0.45593999997E+02  0.45594000000E+02  0.51100000000E-03 0. -1.
         11   -1    0    0    0    0 -0.00000000000E+00 -0.00000000000E+00 -0.45593999997E+02  0.45594000000E+02  0.51100000000E-03 0.  1.
    9900012    2    1    2    0    0  0.19485558307E+01 -0.80656690735E+01  0.16787718792E+02  0.72461564416E+02  0.69999992342E+02 0.  0.
        -12    1    1    2    0    0 -0.19485558307E+01  0.80656690735E+01 -0.16787718792E+02  0.18726435584E+02  0.00000000000E+00 0.  1.
         11    1    3    3    0    0  0.24549097242E+02  0.33441388846E+01  0.14444432566E+02  0.28678965683E+02  0.51100000000E-03 0. -1.
        -11    1    3    3    0    0  0.10318195331E+01 -0.15834482208E+02 -0.78072657202E+01  0.17684707423E+02  0.51100000000E-03 0.  1.
        -12    1    3    3    0    0 -0.23632360944E+02  0.44246742497E+01  0.10150551947E+02  0.26097891310E+02  0.00000000000E+00 0.  1.
</event>
<event>
 7    1  0.3509180E-013  0.7246160E+02  0.7816164E-02  0.1226708E+00
        -11   -1    0    0    0    0  0.00000000000E+00  0.00000000000E+00  0.45593999997E+02  0.45594000000E+02  0.51100000000E-03 0.  1.
         11   -1    0    0    0    0 -0.00000000000E+00 -0.00000000000E+00 -0.45593999997E+02  0.45594000000E+02  0.51100000000E-03 0. -1.
    9900012    2    1    2    0    0  0.18344142898E+01 -0.27531286915E+01 -0.18431856711E+02  0.72461597911E+02  0.70000035976E+02 0.  0.
        -12    1    1    2    0    0 -0.18344142898E+01  0.27531286915E+01  0.18431856711E+02  0.18726402089E+02  0.00000000000E+00 0.  1.
         11    1    3    3    0    0  0.75510227671E+00 -0.17382003113E+02 -0.36046642485E+02  0.40025799759E+02  0.51100000000E-03 0. -1.
        -11    1    3    3    0    0 -0.10555290680E+01  0.86658169527E+01 -0.42233035766E+01  0.96977738905E+01  0.51100000000E-03 0.  1.
        -12    1    3    3    0    0  0.21348410811E+01  0.59630574684E+01  0.21838089351E+02  0.22738024261E+02  0.00000000000E+00 0.  1.
</event>
<event>
 7    1  0.3509180E-013  0.7246155E+02  0.7816164E-02  0.1226708E+00
        -11   -1    0    0    0    0  0.00000000000E+00  0.00000000000E+00  0.45593999997E+02  0.45594000000E+02  0.51100000000E-03 0.  1.
         11   -1    0    0    0    0 -0.00000000000E+00 -0.00000000000E+00 -0.45593999997E+02  0.45594000000E+02  0.51100000000E-03 0. -1.
    9900012    2    1    2    0    0  0.12371389221E+02  0.13281293651E+02  0.46082426324E+01  0.72461549924E+02  0.69999973464E+02 0.  0.
        -12    1    1    2    0    0 -0.12371389221E+02 -0.13281293651E+02 -0.46082426324E+01  0.18726450076E+02  0.00000000000E+00 0.  1.
         11    1    3    3    0    0 -0.64472804009E+01  0.26648538105E+02 -0.18550756430E+02  0.33103512987E+02  0.51100000000E-03 0. -1.
        -11    1    3    3    0    0 -0.24994950184E+01 -0.23635294395E+01 -0.24834440817E+01  0.42427869999E+01  0.51100000000E-03 0.  1.
        -12    1    3    3    0    0  0.21318164640E+02 -0.11003715015E+02  0.25642443144E+02  0.35115249937E+02  0.00000000000E+00 0.  1.
</event>
<event>
 7    1  0.3509180E-013  0.7246157E+02  0.7816164E-02  0.1226708E+00
        -11   -1    0    0    0    0  0.00000000000E+00  0.00000000000E+00  0.45593999997E+02  0.45594000000E+02  0.51100000000E-03 0.  1.
         11   -1    0    0    0    0 -0.00000000000E+00 -0.00000000000E+00 -0.45593999997E+02  0.45594000000E+02  0.51100000000E-03 0. -1.
    9900012    2    1    2    0    0 -0.83485889836E+00 -0.17821326182E+02 -0.56905747950E+01  0.72461566870E+02  0.69999995539E+02 0.  0.
        -12    1    1    2    0    0  0.83485889836E+00  0.17821326182E+02  0.56905747950E+01  0.18726433130E+02  0.00000000000E+00 0.  1.
         11    1    3    3    0    0 -0.12305963285E+02  0.11510465881E+02 -0.74431855790E+01  0.18420873187E+02  0.51100000000E-03 0. -1.
        -11    1    3    3    0    0 -0.10945092814E+02 -0.26806413884E+02 -0.70921384239E+01  0.29810691198E+02  0.51100000000E-03 0.  1.
        -12    1    3    3    0    0  0.22416197200E+02 -0.25253781795E+01  0.88447492080E+01  0.24230002485E+02  0.00000000000E+00 0.  1.
</event>
<event>
 7    1  0.3509180E-013  0.7246165E+02  0.7816164E-02  0.1226708E+00
        -11   -1    0    0    0    0  0.00000000000E+00  0.00000000000E+00  0.45593999997E+02  0.45594000000E+02  0.51100000000E-03 0.  1.
         11   -1    0    0    0    0 -0.00000000000E+00 -0.00000000000E+00 -0.45593999997E+02  0.45594000000E+02  0.51100000000E-03 0. -1.
    9900012    2    1    2    0    0 -0.51769100493E+01 -0.45444041426E+01 -0.17413333483E+02  0.72461649857E+02  0.70000103646E+02 0.  0.
        -12    1    1    2    0    0  0.51769100493E+01  0.45444041426E+01  0.17413333483E+02  0.18726350143E+02  0.00000000000E+00 0.  1.
         11    1    3    3    0    0  0.83884941418E+00  0.12664063065E+02 -0.17517387886E+02  0.21631944903E+02  0.51100000000E-03 0. -1.
        -11    1    3    3    0    0  0.13397455351E+02 -0.19443707007E+02  0.13441745299E+02  0.27170389563E+02  0.51100000000E-03 0.  1.
         12    1    3    3    0    0 -0.19413214814E+02  0.22352397995E+01 -0.13337690895E+02  0.23659315392E+02  0.00000000000E+00 0. -1.
</event>
<event>
 7    1  0.3509180E-013  0.7246159E+02  0.7816164E-02  0.1226708E+00
        -11   -1    0    0    0    0  0.00000000000E+00  0.00000000000E+00  0.45593999997E+02  0.45594000000E+02  0.51100000000E-03 0.  1.
         11   -1    0    0    0    0 -0.00000000000E+00 -0.00000000000E+00 -0.45593999997E+02  0.45594000000E+02  0.51100000000E-03 0. -1.
    9900012    2    1    2    0    0 -0.12738486014E+02 -0.13704153837E+02 -0.77827145542E+00  0.72461586441E+02  0.70000021034E+02 0.  0.
        -12    1    1    2    0    0  0.12738486014E+02  0.13704153837E+02  0.77827145542E+00  0.18726413559E+02  0.00000000000E+00 0.  1.
         11    1    3    3    0    0 -0.11292012710E+02 -0.59215051801E+01 -0.60924200547E+01  0.14131219233E+02  0.51100000000E-03 0. -1.
        -11    1    3    3    0    0  0.27536786066E+01  0.22834504977E+02  0.13088884974E+02  0.26463489444E+02  0.51100000000E-03 0.  1.
         12    1    3    3    0    0 -0.42001519111E+01 -0.30617153634E+02 -0.77747363746E+01  0.31866877764E+02  0.00000000000E+00 0. -1.
</event>
<event>
 7    1  0.3509180E-013  0.7246157E+02  0.7816164E-02  0.1226708E+00
        -11   -1    0    0    0    0  0.00000000000E+00  0.00000000000E+00  0.45593999997E+02  0.45594000000E+02  0.51100000000E-03 0. -1.
         11   -1    0    0    0    0 -0.00000000000E+00 -0.00000000000E+00 -0.45593999997E+02  0.45594000000E+02  0.51100000000E-03 0.  1.
    9900012    2    1    2    0    0 -0.67539400567E+01 -0.85118643007E+01  0.15251615878E+02  0.72461566088E+02  0.69999994521E+02 0.  0.
        -12    1    1    2    0    0  0.67539400567E+01  0.85118643007E+01 -0.15251615878E+02  0.18726433912E+02  0.00000000000E+00 0.  1.
         11    1    3    3    0    0  0.17400882974E+02  0.69253571889E+00  0.81234111815E+00  0.17433594935E+02  0.51100000000E-03 0.  1.
        -11    1    3    3    0    0 -0.97623466813E+01 -0.11067061895E+02 -0.15718210073E+02  0.21560273650E+02  0.51100000000E-03 0. -1.
         12    1    3    3    0    0 -0.14392476349E+02  0.18626618754E+01  0.30157484833E+02  0.33467697503E+02  0.00000000000E+00 0. -1.
</event>
<event>
 7    1  0.3509180E-013  0.7246159E+02  0.7816164E-02  0.1226708E+00
        -11   -1    0    0    0    0  0.00000000000E+00  0.00000000000E+00  0.45593999997E+02  0.45594000000E+02  0.51100000000E-03 0.  1.
         11   -1    0    0    0    0 -0.00000000000E+00 -0.00000000000E+00 -0.45593999997E+02  0.45594000000E+02  0.51100000000E-03 0. -1.
    9900012    2    1    2    0    0  0.11672054283E+01  0.13302232180E+02 -0.13128844903E+02  0.72461593031E+02  0.70000029618E+02 0.  0.
        -12    1    1    2    0    0 -0.11672054283E+01 -0.13302232180E+02  0.13128844903E+02  0.18726406969E+02  0.00000000000E+00 0.  1.
         11    1    3    3    0    0  0.65552198744E+01 -0.10406993647E+02 -0.54256384655E+01  0.13442989898E+02  0.51100000000E-03 0. -1.
        -11    1    3    3    0    0 -0.15248231049E+02 -0.51900944804E+01  0.14173608771E+02  0.21455461233E+02  0.51100000000E-03 0.  1.
         12    1    3    3    0    0  0.98602166032E+01  0.28899320308E+02 -0.21876815209E+02  0.37563141900E+02  0.00000000000E+00 0. -1.
</event>
<event>
 7    1  0.3509180E-013  0.7246158E+02  0.7816164E-02  0.1226708E+00
        -11   -1    0    0    0    0  0.00000000000E+00  0.00000000000E+00  0.45593999997E+02  0.45594000000E+02  0.51100000000E-03 0.  1.
         11   -1    0    0    0    0 -0.00000000000E+00 -0.00000000000E+00 -0.45593999997E+02  0.45594000000E+02  0.51100000000E-03 0. -1.
    9900012    2    1    2    0    0  0.66365194943E+01  0.17463425105E+02 -0.12900108189E+01  0.72461581888E+02  0.70000015103E+02 0.  0.
        -12    1    1    2    0    0 -0.66365194943E+01 -0.17463425105E+02  0.12900108189E+01  0.18726418112E+02  0.00000000000E+00 0.  1.
         11    1    3    3    0    0  0.12160719254E+02 -0.25780517929E+01  0.25286898243E+02  0.28177236679E+02  0.51100000000E-03 0. -1.
        -11    1    3    3    0    0  0.86828847033E+00 -0.47202630897E+01  0.26225120709E+01  0.54692209981E+01  0.51100000000E-03 0.  1.
         12    1    3    3    0    0 -0.63924882299E+01  0.24761739988E+02 -0.29199421133E+02  0.38815124211E+02  0.00000000000E+00 0. -1.
</event>
<event>
 7    1  0.3509180E-013  0.7246169E+02  0.7816164E-02  0.1226708E+00
        -11   -1    0    0    0    0  0.00000000000E+00  0.00000000000E+00  0.45593999997E+02  0.45594000000E+02  0.51100000000E-03 0.  1.
         11   -1    0    0    0    0 -0.00000000000E+00 -0.00000000000E+00 -0.45593999997E+02  0.45594000000E+02  0.51100000000E-03 0. -1.
    9900012    2    1    2    0    0 -0.50899314704E+00  0.18522277385E+01 -0.18627525204E+02  0.72461694523E+02  0.70000161830E+02 0.  0.
        -12    1    1    2    0    0  0.50899314704E+00 -0.18522277385E+01  0.18627525204E+02  0.18726305477E+02  0.00000000000E+00 0.  1.
         11    1    3    3    0    0  0.24295131099E+01 -0.81009929513E+00  0.20772119602E+01  0.32975149140E+01  0.51100000000E-03 0. -1.
        -11    1    3    3    0    0  0.21577828576E+02 -0.22272750228E+02 -0.10411176935E+02  0.32711935042E+02  0.51100000000E-03 0.  1.
         12    1    3    3    0    0 -0.24516334833E+02  0.24935077262E+02 -0.10293560229E+02  0.36452244566E+02  0.00000000000E+00 0. -1.
</event>
<event>
 7    1  0.3509180E-013  0.7246154E+02  0.7816164E-02  0.1226708E+00
        -11   -1    0    0    0    0  0.00000000000E+00  0.00000000000E+00  0.45593999997E+02  0.45594000000E+02  0.51100000000E-03 0.  1.
         11   -1    0    0    0    0 -0.00000000000E+00 -0.00000000000E+00 -0.45593999997E+02  0.45594000000E+02  0.51100000000E-03 0. -1.
    9900012    2    1    2    0    0  0.14851565333E+02 -0.94779054452E-01 -0.11406238237E+02  0.72461541535E+02  0.69999962536E+02 0.  0.
        -12    1    1    2    0    0 -0.14851565333E+02  0.94779054452E-01  0.11406238237E+02  0.18726458465E+02  0.00000000000E+00 0.  1.
         11    1    3    3    0    0  0.15036183959E+02 -0.21636872679E+02 -0.24478914074E+01  0.26461920943E+02  0.51100000000E-03 0.  1.
        -11    1    3    3    0    0  0.11407319421E+02 -0.75773858366E+01 -0.14526646412E+01  0.13771490381E+02  0.51100000000E-03 0. -1.
         12    1    3    3    0    0 -0.11591938047E+02  0.29119479462E+02 -0.75056821887E+01  0.32228130211E+02  0.00000000000E+00 0. -1.
</event>
<event>
 7    1  0.3509180E-013  0.7246145E+02  0.7816164E-02  0.1226708E+00
        -11   -1    0    0    0    0  0.00000000000E+00  0.00000000000E+00  0.45593999997E+02  0.45594000000E+02  0.51100000000E-03 0. -1.
         11   -1    0    0    0    0 -0.00000000000E+00 -0.00000000000E+00 -0.45593999997E+02  0.45594000000E+02  0.51100000000E-03 0.  1.
    9900012    2    1    2    0    0 -0.11308799227E+01 -0.18464736170E+02  0.29082893626E+01  0.72461454183E+02  0.69999848744E+02 0.  0.
        -12    1    1    2    0    0  0.11308799227E+01  0.18464736170E+02 -0.29082893626E+01  0.18726545817E+02  0.00000000000E+00 0.  1.
         11    1    3    3    0    0 -0.12324400284E+02  0.10771900000E+02 -0.14262849761E+01  0.16430427903E+02  0.51100000000E-03 0. -1.
        -11    1    3    3    0    0  0.23254899008E+02 -0.11018493312E+02 -0.12346893214E+02  0.28541956748E+02  0.51100000000E-03 0.  1.
         12    1    3    3    0    0 -0.12061378646E+02 -0.18218142858E+02  0.16681467552E+02  0.27489069532E+02  0.00000000000E+00 0. -1.
</event>
<event>
 7    1  0.3509180E-013  0.7246147E+02  0.7816164E-02  0.1226708E+00
        -11   -1    0    0    0    0  0.00000000000E+00  0.00000000000E+00  0.45593999997E+02  0.45594000000E+02  0.51100000000E-03 0.  1.
         11   -1    0    0    0    0 -0.00000000000E+00 -0.00000000000E+00 -0.45593999997E+02  0.45594000000E+02  0.51100000000E-03 0. -1.
    9900012    2    1    2    0    0 -0.15287410326E+02  0.13204237657E+01 -0.10734735367E+02  0.72461468639E+02  0.69999867575E+02 0.  0.
        -12    1    1    2    0    0  0.15287410326E+02 -0.13204237657E+01  0.10734735367E+02  0.18726531361E+02  0.00000000000E+00 0.  1.
         11    1    3    3    0    0 -0.14697266399E+02  0.79806516686E+01  0.12911573470E+01  0.16774013480E+02  0.51100000000E-03 0. -1.
        -11    1    3    3    0    0 -0.27218663428E+02 -0.51080737120E+01 -0.65355336181E+01  0.28454547190E+02  0.51100000000E-03 0.  1.
         12    1    3    3    0    0  0.26628519501E+02 -0.15521541910E+01 -0.54903590961E+01  0.27232907969E+02  0.00000000000E+00 0. -1.
</event>
<event>
 7    1  0.3838092E-013  0.7246159E+02  0.7816164E-02  0.1226708E+00
        -11   -1    0    0    0    0  0.00000000000E+00  0.00000000000E+00  0.45593999997E+02  0.45594000000E+02  0.51100000000E-03 0. -1.
         11   -1    0    0    0    0 -0.00000000000E+00 -0.00000000000E+00 -0.45593999997E+02  0.45594000000E+02  0.51100000000E-03 0.  1.
    9900012    2    1    2    0    0  0.33299500172E+01 -0.14718887574E+02  0.11088023404E+02  0.72461588664E+02  0.70000023930E+02 0.  0.
        -12    1    1    2    0    0 -0.33299500172E+01  0.14718887574E+02 -0.11088023404E+02  0.18726411336E+02  0.00000000000E+00 0.  1.
         11    1    3    3    0    0  0.79343049627E+01 -0.41780862116E+01  0.24569116006E+01  0.92976348878E+01  0.51100000000E-03 0. -1.
        -11    1    3    3    0    0  0.15715177887E+02  0.89333417554E+01 -0.17207354547E+02  0.24957252688E+02  0.51100000000E-03 0.  1.
         12    1    3    3    0    0 -0.20319532832E+02 -0.19474143118E+02  0.25838466351E+02  0.38206701088E+02  0.00000000000E+00 0. -1.
</event>
<event>
 7    1  0.3509180E-013  0.7246153E+02  0.7816164E-02  0.1226708E+00
        -11   -1    0    0    0    0  0.00000000000E+00  0.00000000000E+00  0.45593999997E+02  0.45594000000E+02  0.51100000000E-03 0.  1.
         11   -1    0    0    0    0 -0.00000000000E+00 -0.00000000000E+00 -0.45593999997E+02  0.45594000000E+02  0.51100000000E-03 0. -1.
    9900012    2    1    2    0    0 -0.45198540415E+01 -0.15135434738E+02  0.10058347549E+02  0.72461526208E+02  0.69999942570E+02 0.  0.
        -12    1    1    2    0    0  0.45198540415E+01  0.15135434738E+02 -0.10058347549E+02  0.18726473792E+02  0.00000000000E+00 0.  1.
         11    1    3    3    0    0 -0.61787521051E+01 -0.13446979270E+02  0.14419339066E+02  0.20661935254E+02  0.51100000000E-03 0. -1.
        -11    1    3    3    0    0 -0.53208311182E+01 -0.11086250315E+01  0.22960328719E+02  0.23594850887E+02  0.51100000000E-03 0.  1.
         12    1    3    3    0    0  0.69797291818E+01 -0.57983043603E+00 -0.27321320236E+02  0.28204740067E+02  0.00000000000E+00 0. -1.
</event>
<event>
 7    1  0.3509180E-013  0.7246156E+02  0.7816164E-02  0.1226708E+00
        -11   -1    0    0    0    0  0.00000000000E+00  0.00000000000E+00  0.45593999997E+02  0.45594000000E+02  0.51100000000E-03 0. -1.
         11   -1    0    0    0    0 -0.00000000000E+00 -0.00000000000E+00 -0.45593999997E+02  0.45594000000E+02  0.51100000000E-03 0.  1.
    9900012    2    1    2    0    0 -0.13533052524E+02  0.12676469916E+02  0.26159380183E+01  0.72461560620E+02  0.69999987397E+02 0.  0.
        -12    1    1    2    0    0  0.13533052524E+02 -0.12676469916E+02 -0.26159380183E+01  0.18726439380E+02  0.00000000000E+00 0.  1.
         11    1    3    3    0    0 -0.14473699489E+02 -0.12246135750E+00  0.13952064304E+02  0.20103807408E+02  0.51100000000E-03 0. -1.
        -11    1    3    3    0    0 -0.71017547649E+01 -0.94307542354E+01  0.13591825240E+02  0.18003104172E+02  0.51100000000E-03 0.  1.
         12    1    3    3    0    0  0.80424017295E+01  0.22229685509E+02 -0.24927951526E+02  0.34354649040E+02  0.00000000000E+00 0. -1.
</event>
<event>
 7    1  0.3509180E-013  0.7246157E+02  0.7816164E-02  0.1226708E+00
        -11   -1    0    0    0    0  0.00000000000E+00  0.00000000000E+00  0.45593999997E+02  0.45594000000E+02  0.51100000000E-03 0.  1.
         11   -1    0    0    0    0 -0.00000000000E+00 -0.00000000000E+00 -0.45593999997E+02  0.45594000000E+02  0.51100000000E-03 0. -1.
    9900012    2    1    2    0    0  0.16744531444E+02 -0.75445883977E+01 -0.36577290079E+01  0.72461571380E+02  0.70000001415E+02 0.  0.
        -12    1    1    2    0    0 -0.16744531444E+02  0.75445883977E+01  0.36577290079E+01  0.18726428620E+02  0.00000000000E+00 0.  1.
         11    1    3    3    0    0  0.14893686964E+02  0.25235492139E+01 -0.58155188107E+01  0.16186737513E+02  0.51100000000E-03 0. -1.
        -11    1    3    3    0    0  0.21429065197E+02 -0.23543294067E+00  0.19000353957E+02  0.28640420993E+02  0.51100000000E-03 0.  1.
         12    1    3    3    0    0 -0.19578220718E+02 -0.98327046709E+01 -0.16842564154E+02  0.27634412874E+02  0.00000000000E+00 0. -1.
</event>
<event>
 7    1  0.3509180E-013  0.7246155E+02  0.7816164E-02  0.1226708E+00
        -11   -1    0    0    0    0  0.00000000000E+00  0.00000000000E+00  0.45593999997E+02  0.45594000000E+02  0.51100000000E-03 0. -1.
         11   -1    0    0    0    0 -0.00000000000E+00 -0.00000000000E+00 -0.45593999997E+02  0.45594000000E+02  0.51100000000E-03 0.  1.
    9900012    2    1    2    0    0  0.18677906041E+01 -0.16277893668E+02  0.90676085050E+01  0.72461548441E+02  0.69999971532E+02 0.  0.
        -12    1    1    2    0    0 -0.18677906041E+01  0.16277893668E+02 -0.90676085050E+01  0.18726451559E+02  0.00000000000E+00 0.  1.
         11    1    3    3    0    0  0.15983133662E+02 -0.11691540482E+01 -0.97958821779E+01  0.18782619380E+02  0.51100000000E-03 0. -1.
        -11    1    3    3    0    0 -0.54962058761E+01  0.22950250486E+01 -0.14163515804E+02  0.15364914552E+02  0.51100000000E-03 0.  1.
        -12    1    3    3    0    0 -0.86191371820E+01 -0.17403764668E+02  0.33027006486E+02  0.38314014510E+02  0.00000000000E+00 0.  1.
</event>
<event>
 7    1  0.3509180E-013  0.7246158E+02  0.7816164E-02  0.1226708E+00
        -11   -1    0    0    0    0  0.00000000000E+00  0.00000000000E+00  0.45593999997E+02  0.45594000000E+02  0.51100000000E-03 0. -1.
         11   -1    0    0    0    0 -0.00000000000E+00 -0.00000000000E+00 -0.45593999997E+02  0.45594000000E+02  0.51100000000E-03 0.  1.
    9900012    2    1    2    0    0  0.17350180278E+02  0.68068934002E+01 -0.18210500257E+01  0.72461580784E+02  0.70000013665E+02 0.  0.
        -12    1    1    2    0    0 -0.17350180278E+02 -0.68068934002E+01  0.18210500257E+01  0.18726419216E+02  0.00000000000E+00 0.  1.
         11    1    3    3    0    0  0.33430629196E+02 -0.91976848653E+01 -0.18450816929E+02  0.39276418127E+02  0.51100000000E-03 0. -1.
        -11    1    3    3    0    0 -0.12234372206E+02  0.59309005427E+01  0.27905636287E+00  0.13599018981E+02  0.51100000000E-03 0.  1.
        -12    1    3    3    0    0 -0.38460767119E+01  0.10073677723E+02  0.16350710540E+02  0.19586143676E+02  0.00000000000E+00 0.  1.
</event>
<event>
 7    1  0.3509180E-013  0.7246163E+02  0.7816164E-02  0.1226708E+00
        -11   -1    0    0    0    0  0.00000000000E+00  0.00000000000E+00  0.45593999997E+02  0.45594000000E+02  0.51100000000E-03 0. -1.
         11   -1    0    0    0    0 -0.00000000000E+00 -0.00000000000E+00 -0.45593999997E+02  0.45594000000E+02  0.51100000000E-03 0.  1.
    9900012    2    1    2    0    0  0.17400525349E+02  0.46689846394E+01  0.51087460782E+01  0.72461628582E+02  0.70000075931E+02 0.  0.
        -12    1    1    2    0    0 -0.17400525349E+02 -0.46689846394E+01 -0.51087460782E+01  0.18726371418E+02  0.00000000000E+00 0.  1.
         11    1    3    3    0    0 -0.38410211509E+01 -0.54405002494E+01  0.13120113364E+02  0.14713594442E+02  0.51100000000E-03 0. -1.
        -11    1    3    3    0    0 -0.72019301417E+01 -0.16469848684E+02  0.13187193753E+00  0.17976125943E+02  0.51100000000E-03 0.  1.
         12    1    3    3    0    0  0.28443476641E+02  0.26579333573E+02 -0.81432392235E+01  0.39771908198E+02  0.00000000000E+00 0. -1.
</event>
<event>
 7    1  0.3509180E-013  0.7246154E+02  0.7816164E-02  0.1226708E+00
        -11   -1    0    0    0    0  0.00000000000E+00  0.00000000000E+00  0.45593999997E+02  0.45594000000E+02  0.51100000000E-03 0.  1.
         11   -1    0    0    0    0 -0.00000000000E+00 -0.00000000000E+00 -0.45593999997E+02  0.45594000000E+02  0.51100000000E-03 0. -1.
    9900012    2    1    2    0    0 -0.13872382410E+02  0.11129809832E+02 -0.58621411533E+01  0.72461538521E+02  0.69999958609E+02 0.  0.
        -12    1    1    2    0    0  0.13872382410E+02 -0.11129809832E+02  0.58621411533E+01  0.18726461479E+02  0.00000000000E+00 0.  1.
         11    1    3    3    0    0 -0.81438974315E+01  0.47754161250E+01 -0.64097100977E+01  0.11411049397E+02  0.51100000000E-03 0. -1.
        -11    1    3    3    0    0 -0.21349711493E+02 -0.20355610343E+02 -0.40249595468E+01  0.29771821457E+02  0.51100000000E-03 0.  1.
         12    1    3    3    0    0  0.15621226515E+02  0.26710004050E+02  0.45725284913E+01  0.31278667667E+02  0.00000000000E+00 0. -1.
</event>
<event>
 7    1  0.3509180E-013  0.7246156E+02  0.7816164E-02  0.1226708E+00
        -11   -1    0    0    0    0  0.00000000000E+00  0.00000000000E+00  0.45593999997E+02  0.45594000000E+02  0.51100000000E-03 0. -1.
         11   -1    0    0    0    0 -0.00000000000E+00 -0.00000000000E+00 -0.45593999997E+02  0.45594000000E+02  0.51100000000E-03 0.  1.
    9900012    2    1    2    0    0  0.10931911336E+02  0.12045751955E+01  0.15156578554E+02  0.72461559860E+02  0.69999986407E+02 0.  0.
        -12    1    1    2    0    0 -0.10931911336E+02 -0.12045751955E+01 -0.15156578554E+02  0.18726440140E+02  0.00000000000E+00 0.  1.
         11    1    3    3    0    0 -0.14245594934E+02  0.10670091640E+02  0.21427087799E+02  0.27855123809E+02  0.51100000000E-03 0. -1.
        -11    1    3    3    0    0 -0.65329108144E+01 -0.70666997581E+01 -0.83447811979E+01  0.12737839011E+02  0.51100000000E-03 0.  1.
         12    1    3    3    0    0  0.31710417084E+02 -0.23988166859E+01  0.20742719531E+01  0.31868597039E+02  0.00000000000E+00 0. -1.
</event>
<event>
 7    1  0.3509180E-013  0.7246156E+02  0.7816164E-02  0.1226708E+00
        -11   -1    0    0    0    0  0.00000000000E+00  0.00000000000E+00  0.45593999997E+02  0.45594000000E+02  0.51100000000E-03 0.  1.
         11   -1    0    0    0    0 -0.00000000000E+00 -0.00000000000E+00 -0.45593999997E+02  0.45594000000E+02  0.51100000000E-03 0. -1.
    9900012    2    1    2    0    0 -0.10900597862E+02 -0.14862260101E+02 -0.33120707738E+01  0.72461558217E+02  0.69999984267E+02 0.  0.
        -12    1    1    2    0    0  0.10900597862E+02  0.14862260101E+02  0.33120707738E+01  0.18726441783E+02  0.00000000000E+00 0.  1.
         11    1    3    3    0    0 -0.11845843745E+02 -0.20760727756E+02 -0.18831944135E+02  0.30429820097E+02  0.51100000000E-03 0. -1.
        -11    1    3    3    0    0  0.12431285187E+02  0.55336131593E+01 -0.80496148292E+01  0.15809934382E+02  0.51100000000E-03 0.  1.
        -12    1    3    3    0    0 -0.11486039304E+02  0.36485449572E+00  0.23569488191E+02  0.26221803738E+02  0.00000000000E+00 0.  1.
</event>
<event>
 7    1  0.3509180E-013  0.7246156E+02  0.7816164E-02  0.1226708E+00
        -11   -1    0    0    0    0  0.00000000000E+00  0.00000000000E+00  0.45593999997E+02  0.45594000000E+02  0.51100000000E-03 0. -1.
         11   -1    0    0    0    0 -0.00000000000E+00 -0.00000000000E+00 -0.45593999997E+02  0.45594000000E+02  0.51100000000E-03 0.  1.
    9900012    2    1    2    0    0  0.27932479514E+01 -0.12320202905E+02  0.13823525154E+02  0.72461561966E+02  0.69999989151E+02 0.  0.
        -12    1    1    2    0    0 -0.27932479514E+01  0.12320202905E+02 -0.13823525154E+02  0.18726438034E+02  0.00000000000E+00 0.  1.
         11    1    3    3    0    0  0.61083205909E+01  0.16230025076E+02  0.29881368028E+02  0.34548827041E+02  0.51100000000E-03 0. -1.
        -11    1    3    3    0    0 -0.87469422021E-01 -0.56021652251E+01  0.43032074638E+01  0.70646656571E+01  0.51100000000E-03 0.  1.
        -12    1    3    3    0    0 -0.32276032174E+01 -0.22948062755E+02 -0.20361050338E+02  0.30848069269E+02  0.00000000000E+00 0.  1.
</event>
<event>
 7    1  0.3509180E-013  0.7246156E+02  0.7816164E-02  0.1226708E+00
        -11   -1    0    0    0    0  0.00000000000E+00  0.00000000000E+00  0.45593999997E+02  0.45594000000E+02  0.51100000000E-03 0.  1.
         11   -1    0    0    0    0 -0.00000000000E+00 -0.00000000000E+00 -0.45593999997E+02  0.45594000000E+02  0.51100000000E-03 0. -1.
    9900012    2    1    2    0    0  0.10730952106E+02 -0.15339244546E+02  0.48355793224E+00  0.72461559211E+02  0.69999985562E+02 0.  0.
        -12    1    1    2    0    0 -0.10730952106E+02  0.15339244546E+02 -0.48355793224E+00  0.18726440789E+02  0.00000000000E+00 0.  1.
         11    1    3    3    0    0 -0.19192780400E+02 -0.12825099485E+02 -0.11711899032E+02  0.25884639760E+02  0.51100000000E-03 0. -1.
        -11    1    3    3    0    0  0.14000029775E+01 -0.49421359652E+01  0.16812886085E+02  0.17580041382E+02  0.51100000000E-03 0.  1.
        -12    1    3    3    0    0  0.28523729529E+02  0.24279909045E+01 -0.46174291207E+01  0.28996878069E+02  0.00000000000E+00 0.  1.
</event>
<event>
 7    1  0.3509180E-013  0.7246158E+02  0.7816164E-02  0.1226708E+00
        -11   -1    0    0    0    0  0.00000000000E+00  0.00000000000E+00  0.45593999997E+02  0.45594000000E+02  0.51100000000E-03 0. -1.
         11   -1    0    0    0    0 -0.00000000000E+00 -0.00000000000E+00 -0.45593999997E+02  0.45594000000E+02  0.51100000000E-03 0.  1.
    9900012    2    1    2    0    0  0.12859428281E+02 -0.10994546374E+02  0.80270738040E+01  0.72461578571E+02  0.70000010782E+02 0.  0.
        -12    1    1    2    0    0 -0.12859428281E+02  0.10994546374E+02 -0.80270738040E+01  0.18726421429E+02  0.00000000000E+00 0.  1.
         11    1    3    3    0    0 -0.19565331578E+01 -0.31257525491E+01  0.26454264964E+02  0.26710044665E+02  0.51100000000E-03 0. -1.
        -11    1    3    3    0    0 -0.50746665905E+00 -0.16609859252E+02  0.41222675211E+01  0.17121274384E+02  0.51100000000E-03 0.  1.
        -12    1    3    3    0    0  0.15323428098E+02  0.87410654263E+01 -0.22549458681E+02  0.28630259521E+02  0.00000000000E+00 0.  1.
</event>
<event>
 7    1  0.3509180E-013  0.7246183E+02  0.7816164E-02  0.1226707E+00
        -11   -1    0    0    0    0  0.00000000000E+00  0.00000000000E+00  0.45593999997E+02  0.45594000000E+02  0.51100000000E-03 0.  1.
         11   -1    0    0    0    0 -0.00000000000E+00 -0.00000000000E+00 -0.45593999997E+02  0.45594000000E+02  0.51100000000E-03 0. -1.
    9900012    2    1    2    0    0 -0.17833733824E+02 -0.13644105016E+01 -0.55466918969E+01  0.72461829299E+02  0.70000337401E+02 0.  0.
        -12    1    1    2    0    0  0.17833733824E+02  0.13644105016E+01  0.55466918969E+01  0.18726170701E+02  0.00000000000E+00 0.  1.
         11    1    3    3    0    0 -0.15933402055E+02 -0.53565919433E+01 -0.30057555102E+02  0.34438684604E+02  0.51100000000E-03 0. -1.
        -11    1    3    3    0    0 -0.54735224265E+01 -0.96331651287E+01  0.16938246967E+01  0.11208316578E+02  0.51100000000E-03 0.  1.
        -12    1    3    3    0    0  0.35731906571E+01  0.13625346570E+02  0.22817038508E+02  0.26814828117E+02  0.00000000000E+00 0.  1.
</event>
<event>
 7    1  0.3509180E-013  0.7246158E+02  0.7816164E-02  0.1226708E+00
        -11   -1    0    0    0    0  0.00000000000E+00  0.00000000000E+00  0.45593999997E+02  0.45594000000E+02  0.51100000000E-03 0. -1.
         11   -1    0    0    0    0 -0.00000000000E+00 -0.00000000000E+00 -0.45593999997E+02  0.45594000000E+02  0.51100000000E-03 0.  1.
    9900012    2    1    2    0    0  0.58050981960E+01  0.74603974099E+01  0.16165462784E+02  0.72461577982E+02  0.70000010015E+02 0.  0.
        -12    1    1    2    0    0 -0.58050981960E+01 -0.74603974099E+01 -0.16165462784E+02  0.18726422018E+02  0.00000000000E+00 0.  1.
         11    1    3    3    0    0  0.21928878024E+02  0.81435391987E+01  0.88292744491E+00  0.23408812084E+02  0.51100000000E-03 0. -1.
        -11    1    3    3    0    0  0.26143036391E+01 -0.18193707468E+02 -0.14387586626E+01  0.18436800202E+02  0.51100000000E-03 0.  1.
        -12    1    3    3    0    0 -0.18738083467E+02  0.17510565679E+02  0.16721294001E+02  0.30615965696E+02  0.00000000000E+00 0.  1.
</event>
<event>
 7    1  0.3509180E-013  0.7246157E+02  0.7816164E-02  0.1226708E+00
        -11   -1    0    0    0    0  0.00000000000E+00  0.00000000000E+00  0.45593999997E+02  0.45594000000E+02  0.51100000000E-03 0. -1.
         11   -1    0    0    0    0 -0.00000000000E+00 -0.00000000000E+00 -0.45593999997E+02  0.45594000000E+02  0.51100000000E-03 0.  1.
    9900012    2    1    2    0    0 -0.44440891525E+01 -0.38060080542E+01  0.17788861678E+02  0.72461568799E+02  0.69999998052E+02 0.  0.
        -12    1    1    2    0    0  0.44440891525E+01  0.38060080542E+01 -0.17788861678E+02  0.18726431201E+02  0.00000000000E+00 0.  1.
         11    1    3    3    0    0  0.70850172296E+01  0.44259308176E+01  0.22814594280E+02  0.24295926514E+02  0.51100000000E-03 0. -1.
        -11    1    3    3    0    0 -0.96908515899E+01  0.16112268168E+02  0.80708888230E+01  0.20461110349E+02  0.51100000000E-03 0.  1.
        -12    1    3    3    0    0 -0.18382547921E+01 -0.24344207040E+02 -0.13096621425E+02  0.27704531937E+02  0.00000000000E+00 0.  1.
</event>
<event>
 7    1  0.3509180E-013  0.7246161E+02  0.7816164E-02  0.1226708E+00
        -11   -1    0    0    0    0  0.00000000000E+00  0.00000000000E+00  0.45593999997E+02  0.45594000000E+02  0.51100000000E-03 0.  1.
         11   -1    0    0    0    0 -0.00000000000E+00 -0.00000000000E+00 -0.45593999997E+02  0.45594000000E+02  0.51100000000E-03 0. -1.
    9900012    2    1    2    0    0  0.88621987431E+01 -0.26010721831E+01 -0.16290290191E+02  0.72461609596E+02  0.70000051198E+02 0.  0.
        -12    1    1    2    0    0 -0.88621987431E+01  0.26010721831E+01  0.16290290191E+02  0.18726390404E+02  0.00000000000E+00 0.  1.
         11    1    3    3    0    0  0.13403479958E+02  0.18063950953E+02 -0.22050057126E+02  0.31498644709E+02  0.51100000000E-03 0. -1.
        -11    1    3    3    0    0 -0.60543642427E+01 -0.97634866829E+01 -0.14142243241E+02  0.18220429269E+02  0.51100000000E-03 0.  1.
        -12    1    3    3    0    0  0.15130830275E+01 -0.10901536453E+02  0.19902010176E+02  0.22742535618E+02  0.00000000000E+00 0.  1.
</event>
<event>
 7    1  0.3509180E-013  0.7246162E+02  0.7816164E-02  0.1226708E+00
        -11   -1    0    0    0    0  0.00000000000E+00  0.00000000000E+00  0.45593999997E+02  0.45594000000E+02  0.51100000000E-03 0. -1.
         11   -1    0    0    0    0 -0.00000000000E+00 -0.00000000000E+00 -0.45593999997E+02  0.45594000000E+02  0.51100000000E-03 0.  1.
    9900012    2    1    2    0    0  0.65083714493E+00  0.65400484813E+01  0.17535150183E+02  0.72461619809E+02  0.70000064501E+02 0.  0.
        -12    1    1    2    0    0 -0.65083714493E+00 -0.65400484813E+01 -0.17535150183E+02  0.18726380191E+02  0.00000000000E+00 0.  1.
         11    1    3    3    0    0  0.41506688904E+01  0.30228723069E+02  0.27682715567E+02  0.41198743816E+02  0.51100000000E-03 0. -1.
        -11    1    3    3    0    0  0.16675031064E+01 -0.30375621536E+01  0.43096819489E+01  0.55299827494E+01  0.51100000000E-03 0.  1.
        -12    1    3    3    0    0 -0.51673348519E+01 -0.20651112434E+02 -0.14457247333E+02  0.25732893243E+02  0.00000000000E+00 0.  1.
</event>
<event>
 7    1  0.3509180E-013  0.7246155E+02  0.7816164E-02  0.1226708E+00
        -11   -1    0    0    0    0  0.00000000000E+00  0.00000000000E+00  0.45593999997E+02  0.45594000000E+02  0.51100000000E-03 0.  1.
         11   -1    0    0    0    0 -0.00000000000E+00 -0.00000000000E+00 -0.45593999997E+02  0.45594000000E+02  0.51100000000E-03 0. -1.
    9900012    2    1    2    0    0 -0.26874498355E+01  0.18259025966E+02  0.31725962449E+01  0.72461553920E+02  0.69999978670E+02 0.  0.
        -12    1    1    2    0    0  0.26874498355E+01 -0.18259025966E+02 -0.31725962449E+01  0.18726446080E+02  0.00000000000E+00 0.  1.
         11    1    3    3    0    0 -0.22726574039E+02  0.20848180524E+02  0.15229009198E+02  0.34395734039E+02  0.51100000000E-03 0. -1.
        -11    1    3    3    0    0 -0.47686778903E+01 -0.79389526487E-01  0.57170425569E+01  0.74452110365E+01  0.51100000000E-03 0.  1.
        -12    1    3    3    0    0  0.24807802093E+02 -0.25097650315E+01 -0.17773455510E+02  0.30620608844E+02  0.00000000000E+00 0.  1.
</event>
<event>
 7    1  0.3509180E-013  0.7246159E+02  0.7816164E-02  0.1226708E+00
        -11   -1    0    0    0    0  0.00000000000E+00  0.00000000000E+00  0.45593999997E+02  0.45594000000E+02  0.51100000000E-03 0.  1.
         11   -1    0    0    0    0 -0.00000000000E+00 -0.00000000000E+00 -0.45593999997E+02  0.45594000000E+02  0.51100000000E-03 0. -1.
    9900012    2    1    2    0    0 -0.16770989455E+02  0.20113858929E+00 -0.83289698509E+01  0.72461593969E+02  0.70000030841E+02 0.  0.
        -12    1    1    2    0    0  0.16770989455E+02 -0.20113858929E+00  0.83289698509E+01  0.18726406031E+02  0.00000000000E+00 0.  1.
         11    1    3    3    0    0 -0.10611899262E+02  0.81553773307E+01 -0.11871347513E+02  0.17889982599E+02  0.51100000000E-03 0. -1.
        -11    1    3    3    0    0  0.16058888972E+01  0.16091817777E+02 -0.15907499696E+02  0.22684224152E+02  0.51100000000E-03 0.  1.
         12    1    3    3    0    0 -0.77649790909E+01 -0.24046056518E+02  0.19449877359E+02  0.31887387219E+02  0.00000000000E+00 0. -1.
</event>
<event>
 7    1  0.3509180E-013  0.7246217E+02  0.7816164E-02  0.1226706E+00
        -11   -1    0    0    0    0  0.00000000000E+00  0.00000000000E+00  0.45593999997E+02  0.45594000000E+02  0.51100000000E-03 0. -1.
         11   -1    0    0    0    0 -0.00000000000E+00 -0.00000000000E+00 -0.45593999997E+02  0.45594000000E+02  0.51100000000E-03 0.  1.
    9900012    2    1    2    0    0 -0.19905576289E+01  0.11057642353E+01  0.18586865019E+02  0.72462173304E+02  0.70000785527E+02 0.  0.
        -12    1    1    2    0    0  0.19905576289E+01 -0.11057642353E+01 -0.18586865019E+02  0.18725826696E+02  0.00000000000E+00 0.  1.
         11    1    3    3    0    0 -0.22717454754E+01  0.21683442280E+02  0.11866245541E+02  0.24822173154E+02  0.51100000000E-03 0. -1.
        -11    1    3    3    0    0  0.11678830612E+02 -0.49611792565E+01  0.20352448113E+02  0.23983963987E+02  0.51100000000E-03 0.  1.
        -12    1    3    3    0    0 -0.11397642765E+02 -0.15616498788E+02 -0.13631828634E+02  0.23656036162E+02  0.00000000000E+00 0.  1.
</event>
<event>
 7    1  0.3509180E-013  0.7246150E+02  0.7816164E-02  0.1226708E+00
        -11   -1    0    0    0    0  0.00000000000E+00  0.00000000000E+00  0.45593999997E+02  0.45594000000E+02  0.51100000000E-03 0. -1.
         11   -1    0    0    0    0 -0.00000000000E+00 -0.00000000000E+00 -0.45593999997E+02  0.45594000000E+02  0.51100000000E-03 0.  1.
    9900012    2    1    2    0    0 -0.10062947696E+01  0.17168169217E+02 -0.74110226956E+01  0.72461496834E+02  0.69999904305E+02 0.  0.
        -12    1    1    2    0    0  0.10062947696E+01 -0.17168169217E+02  0.74110226956E+01  0.18726503166E+02  0.00000000000E+00 0.  1.
         11    1    3    3    0    0 -0.24746633929E+01 -0.13189904812E+02  0.29230609480E+01  0.13734694515E+02  0.51100000000E-03 0. -1.
        -11    1    3    3    0    0 -0.13080494315E+02  0.69239164060E+01 -0.23804473022E+02  0.28030213806E+02  0.51100000000E-03 0.  1.
         12    1    3    3    0    0  0.14548862938E+02  0.23434157623E+02  0.13470389378E+02  0.30696588513E+02  0.00000000000E+00 0. -1.
</event>
<event>
 7    1  0.3509180E-013  0.7246157E+02  0.7816164E-02  0.1226708E+00
        -11   -1    0    0    0    0  0.00000000000E+00  0.00000000000E+00  0.45593999997E+02  0.45594000000E+02  0.51100000000E-03 0. -1.
         11   -1    0    0    0    0 -0.00000000000E+00 -0.00000000000E+00 -0.45593999997E+02  0.45594000000E+02  0.51100000000E-03 0.  1.
    9900012    2    1    2    0    0 -0.74823749819E+01 -0.14674139195E+02  0.89085894902E+01  0.72461567793E+02  0.69999996742E+02 0.  0.
        -12    1    1    2    0    0  0.74823749819E+01  0.14674139195E+02 -0.89085894902E+01  0.18726432207E+02  0.00000000000E+00 0.  1.
         11    1    3    3    0    0 -0.40709498858E+01 -0.31946518760E+02  0.19670173736E+02  0.37736831199E+02  0.51100000000E-03 0. -1.
        -11    1    3    3    0    0  0.44872678170E+00 -0.48991326257E+01  0.51812785894E+01  0.71448236011E+01  0.51100000000E-03 0.  1.
        -12    1    3    3    0    0 -0.38601518778E+01  0.22171512190E+02 -0.15942862836E+02  0.27579912993E+02  0.00000000000E+00 0.  1.
</event>
<event>
 7    1  0.3509180E-013  0.7246160E+02  0.7816164E-02  0.1226708E+00
        -11   -1    0    0    0    0  0.00000000000E+00  0.00000000000E+00  0.45593999997E+02  0.45594000000E+02  0.51100000000E-03 0. -1.
         11   -1    0    0    0    0 -0.00000000000E+00 -0.00000000000E+00 -0.45593999997E+02  0.45594000000E+02  0.51100000000E-03 0.  1.
    9900012    2    1    2    0    0  0.16303015214E+02  0.60426062070E+01  0.69553271011E+01  0.72461602324E+02  0.70000041725E+02 0.  0.
        -12    1    1    2    0    0 -0.16303015214E+02 -0.60426062070E+01 -0.69553271011E+01  0.18726397676E+02  0.00000000000E+00 0.  1.
         11    1    3    3    0    0 -0.29272041127E+01  0.27872406736E+01  0.65036770827E+01  0.76573526983E+01  0.51100000000E-03 0. -1.
        -11    1    3    3    0    0 -0.55314688797E+01 -0.19898322117E+02 -0.16932225092E+02  0.26706565070E+02  0.51100000000E-03 0.  1.
         12    1    3    3    0    0  0.24761688206E+02  0.23153687651E+02  0.17383875110E+02  0.38097684555E+02  0.00000000000E+00 0. -1.
</event>
<event>
 7    1  0.3509180E-013  0.7246149E+02  0.7816164E-02  0.1226708E+00
        -11   -1    0    0    0    0  0.00000000000E+00  0.00000000000E+00  0.45593999997E+02  0.45594000000E+02  0.51100000000E-03 0.  1.
         11   -1    0    0    0    0 -0.00000000000E+00 -0.00000000000E+00 -0.45593999997E+02  0.45594000000E+02  0.51100000000E-03 0. -1.
    9900012    2    1    2    0    0  0.11260872616E+02  0.14817858363E+02  0.20751006793E+01  0.72461488809E+02  0.69999893850E+02 0.  0.
        -12    1    1    2    0    0 -0.11260872616E+02 -0.14817858363E+02 -0.20751006793E+01  0.18726511191E+02  0.00000000000E+00 0.  1.
         11    1    3    3    0    0  0.14246327395E+02 -0.56459462751E+01 -0.20440989393E+02  0.25547379537E+02  0.51100000000E-03 0. -1.
        -11    1    3    3    0    0 -0.42153627210E+01 -0.98534723422E+01  0.44790262279E+01  0.11615587642E+02  0.51100000000E-03 0.  1.
        -12    1    3    3    0    0  0.12299079423E+01  0.30317276981E+02  0.18037063845E+02  0.35298521629E+02  0.00000000000E+00 0.  1.
</event>
<event>
 7    1  0.3509180E-013  0.7246157E+02  0.7816164E-02  0.1226708E+00
        -11   -1    0    0    0    0  0.00000000000E+00  0.00000000000E+00  0.45593999997E+02  0.45594000000E+02  0.51100000000E-03 0.  1.
         11   -1    0    0    0    0 -0.00000000000E+00 -0.00000000000E+00 -0.45593999997E+02  0.45594000000E+02  0.51100000000E-03 0. -1.
    9900012    2    1    2    0    0 -0.10877139470E+02 -0.23830688495E+01 -0.15056156834E+02  0.72461573785E+02  0.70000004547E+02 0.  0.
        -12    1    1    2    0    0  0.10877139470E+02  0.23830688495E+01  0.15056156834E+02  0.18726426215E+02  0.00000000000E+00 0.  1.
         11    1    3    3    0    0 -0.24265159070E+02  0.10881902933E+02 -0.75080719857E+01  0.27633040030E+02  0.51100000000E-03 0. -1.
        -11    1    3    3    0    0  0.15187677425E+01 -0.38926374896E+01  0.16168849518E+02  0.16700029254E+02  0.51100000000E-03 0.  1.
        -12    1    3    3    0    0  0.11869251857E+02 -0.93723342927E+01 -0.23716934366E+02  0.28128504501E+02  0.00000000000E+00 0.  1.
</event>
<event>
 7    1  0.3509180E-013  0.7246153E+02  0.7816164E-02  0.1226708E+00
        -11   -1    0    0    0    0  0.00000000000E+00  0.00000000000E+00  0.45593999997E+02  0.45594000000E+02  0.51100000000E-03 0.  1.
         11   -1    0    0    0    0 -0.00000000000E+00 -0.00000000000E+00 -0.45593999997E+02  0.45594000000E+02  0.51100000000E-03 0. -1.
    9900012    2    1    2    0    0  0.77869713209E+01 -0.12047372181E+02 -0.12037629767E+02  0.72461531320E+02  0.69999949229E+02 0.  0.
        -12    1    1    2    0    0 -0.77869713209E+01  0.12047372181E+02  0.12037629767E+02  0.18726468680E+02  0.00000000000E+00 0.  1.
         11    1    3    3    0    0 -0.81059277766E+01  0.75484157196E+01 -0.24292817760E+02  0.26698794729E+02  0.51100000000E-03 0. -1.
        -11    1    3    3    0    0 -0.28341363657E+01  0.72569507668E+01  0.10370179165E+02  0.12970592875E+02  0.51100000000E-03 0.  1.
         12    1    3    3    0    0  0.18727035463E+02 -0.26852738668E+02  0.18850088284E+01  0.32792143716E+02  0.00000000000E+00 0. -1.
</event>
<event>
 7    1  0.3509180E-013  0.7246155E+02  0.7816164E-02  0.1226708E+00
        -11   -1    0    0    0    0  0.00000000000E+00  0.00000000000E+00  0.45593999997E+02  0.45594000000E+02  0.51100000000E-03 0. -1.
         11   -1    0    0    0    0 -0.00000000000E+00 -0.00000000000E+00 -0.45593999997E+02  0.45594000000E+02  0.51100000000E-03 0.  1.
    9900012    2    1    2    0    0  0.92179852722E+01 -0.88946259721E+01  0.13659956074E+02  0.72461547490E+02  0.69999970293E+02 0.  0.
        -12    1    1    2    0    0 -0.92179852722E+01  0.88946259721E+01 -0.13659956074E+02  0.18726452510E+02  0.00000000000E+00 0.  1.
         11    1    3    3    0    0 -0.46124259791E+01 -0.15690624662E+02  0.74058462955E+01  0.17953181760E+02  0.51100000000E-03 0. -1.
        -11    1    3    3    0    0  0.25678249880E+01 -0.22475020344E+02  0.53106374844E+00  0.22627467680E+02  0.51100000000E-03 0.  1.
        -12    1    3    3    0    0  0.11262586263E+02  0.29271019034E+02  0.57230460301E+01  0.31880898050E+02  0.00000000000E+00 0.  1.
</event>
<event>
 7    1  0.3509180E-013  0.7246151E+02  0.7816164E-02  0.1226708E+00
        -11   -1    0    0    0    0  0.00000000000E+00  0.00000000000E+00  0.45593999997E+02  0.45594000000E+02  0.51100000000E-03 0. -1.
         11   -1    0    0    0    0 -0.00000000000E+00 -0.00000000000E+00 -0.45593999997E+02  0.45594000000E+02  0.51100000000E-03 0.  1.
    9900012    2    1    2    0    0  0.60130843153E+01 -0.13974169736E+02 -0.10920021058E+02  0.72461509066E+02  0.69999920238E+02 0.  0.
        -12    1    1    2    0    0 -0.60130843153E+01  0.13974169736E+02  0.10920021058E+02  0.18726490934E+02  0.00000000000E+00 0.  1.
         11    1    3    3    0    0  0.13937106667E+02 -0.34765332344E+02 -0.57501131436E+01  0.37893734002E+02  0.51100000000E-03 0. -1.
        -11    1    3    3    0    0  0.20790042279E+01  0.99122646754E+01  0.93976084489E+01  0.13816305381E+02  0.51100000000E-03 0.  1.
        -12    1    3    3    0    0 -0.10003026579E+02  0.10878897932E+02 -0.14567516364E+02  0.20751469682E+02  0.00000000000E+00 0.  1.
</event>
<event>
 7    1  0.3509180E-013  0.7246154E+02  0.7816164E-02  0.1226708E+00
        -11   -1    0    0    0    0  0.00000000000E+00  0.00000000000E+00  0.45593999997E+02  0.45594000000E+02  0.51100000000E-03 0.  1.
         11   -1    0    0    0    0 -0.00000000000E+00 -0.00000000000E+00 -0.45593999997E+02  0.45594000000E+02  0.51100000000E-03 0. -1.
    9900012    2    1    2    0    0 -0.67072514881E+01 -0.12758620765E+02 -0.11954526084E+02  0.72461539569E+02  0.69999959975E+02 0.  0.
        -12    1    1    2    0    0  0.67072514881E+01  0.12758620765E+02  0.11954526084E+02  0.18726460431E+02  0.00000000000E+00 0.  1.
         11    1    3    3    0    0 -0.15095302158E+02  0.26901232757E+01 -0.35322406884E+01  0.15734727040E+02  0.51100000000E-03 0. -1.
        -11    1    3    3    0    0 -0.13777078654E+02 -0.15080814887E+02  0.14336857416E+02  0.24955647752E+02  0.51100000000E-03 0.  1.
         12    1    3    3    0    0  0.22165129324E+02 -0.36792915393E+00 -0.22759142812E+02  0.31771164778E+02  0.00000000000E+00 0. -1.
</event>
<event>
 7    1  0.3509180E-013  0.7246155E+02  0.7816164E-02  0.1226708E+00
        -11   -1    0    0    0    0  0.00000000000E+00  0.00000000000E+00  0.45593999997E+02  0.45594000000E+02  0.51100000000E-03 0.  1.
         11   -1    0    0    0    0 -0.00000000000E+00 -0.00000000000E+00 -0.45593999997E+02  0.45594000000E+02  0.51100000000E-03 0. -1.
    9900012    2    1    2    0    0  0.27856285150E+00  0.50051720118E+01 -0.18043016384E+02  0.72461553877E+02  0.69999978614E+02 0.  0.
        -12    1    1    2    0    0 -0.27856285150E+00 -0.50051720118E+01  0.18043016384E+02  0.18726446123E+02  0.00000000000E+00 0.  1.
         11    1    3    3    0    0 -0.27608023218E+01  0.19686279628E+02 -0.26530881030E+02  0.33152063036E+02  0.51100000000E-03 0. -1.
        -11    1    3    3    0    0  0.10375629125E+02  0.84115759647E+01  0.68837455800E+01  0.15026451458E+02  0.51100000000E-03 0.  1.
         12    1    3    3    0    0 -0.73362639516E+01 -0.23092683581E+02  0.16041190652E+01  0.24283039384E+02  0.00000000000E+00 0. -1.
</event>
<event>
 7    1  0.3509180E-013  0.7246157E+02  0.7816164E-02  0.1226708E+00
        -11   -1    0    0    0    0  0.00000000000E+00  0.00000000000E+00  0.45593999997E+02  0.45594000000E+02  0.51100000000E-03 0. -1.
         11   -1    0    0    0    0 -0.00000000000E+00 -0.00000000000E+00 -0.45593999997E+02  0.45594000000E+02  0.51100000000E-03 0.  1.
    9900012    2    1    2    0    0 -0.47374272058E+01  0.12702922020E+02  0.12917889666E+02  0.72461566335E+02  0.69999994843E+02 0.  0.
        -12    1    1    2    0    0  0.47374272058E+01 -0.12702922020E+02 -0.12917889666E+02  0.18726433665E+02  0.00000000000E+00 0.  1.
         11    1    3    3    0    0 -0.75348249642E+01 -0.10313109575E+02  0.53619115679E+01  0.13852216872E+02  0.51100000000E-03 0. -1.
        -11    1    3    3    0    0  0.31801152989E+01  0.96598717121E+01 -0.23060934789E+02  0.25203828448E+02  0.51100000000E-03 0.  1.
         12    1    3    3    0    0 -0.38271754054E+00  0.13356159883E+02  0.30616912887E+02  0.33405521015E+02  0.00000000000E+00 0. -1.
</event>
<event>
 7    1  0.3509180E-013  0.7246151E+02  0.7816164E-02  0.1226708E+00
        -11   -1    0    0    0    0  0.00000000000E+00  0.00000000000E+00  0.45593999997E+02  0.45594000000E+02  0.51100000000E-03 0.  1.
         11   -1    0    0    0    0 -0.00000000000E+00 -0.00000000000E+00 -0.45593999997E+02  0.45594000000E+02  0.51100000000E-03 0. -1.
    9900012    2    1    2    0    0  0.11217539161E+02 -0.85550018624E+01 -0.12315036333E+02  0.72461511766E+02  0.69999923756E+02 0.  0.
        -12    1    1    2    0    0 -0.11217539161E+02  0.85550018624E+01  0.12315036333E+02  0.18726488234E+02  0.00000000000E+00 0.  1.
         11    1    3    3    0    0  0.11733599099E+02  0.15804175851E+02 -0.11743278310E+02  0.22920600076E+02  0.51100000000E-03 0. -1.
        -11    1    3    3    0    0 -0.54947977077E+01  0.10579909783E+02 -0.67682957900E+01  0.13709016049E+02  0.51100000000E-03 0.  1.
        -12    1    3    3    0    0  0.49787377705E+01 -0.34939087497E+02  0.61965377668E+01  0.35831895641E+02  0.00000000000E+00 0.  1.
</event>
<event>
 7    1  0.3509180E-013  0.7246157E+02  0.7816164E-02  0.1226708E+00
        -11   -1    0    0    0    0  0.00000000000E+00  0.00000000000E+00  0.45593999997E+02  0.45594000000E+02  0.51100000000E-03 0. -1.
         11   -1    0    0    0    0 -0.00000000000E+00 -0.00000000000E+00 -0.45593999997E+02  0.45594000000E+02  0.51100000000E-03 0.  1.
    9900012    2    1    2    0    0 -0.10293880124E+02  0.13780729985E+02  0.74031550765E+01  0.72461569694E+02  0.69999999218E+02 0.  0.
        -12    1    1    2    0    0  0.10293880124E+02 -0.13780729985E+02 -0.74031550765E+01  0.18726430306E+02  0.00000000000E+00 0.  1.
         11    1    3    3    0    0 -0.21141474861E+01 -0.40282158496E+01  0.17603489924E+02  0.18181831599E+02  0.51100000000E-03 0. -1.
        -11    1    3    3    0    0 -0.15941743435E+02 -0.66381836678E+01 -0.20354759800E+02  0.26693087363E+02  0.51100000000E-03 0.  1.
         12    1    3    3    0    0  0.77620107974E+01  0.24447129502E+02  0.10154424953E+02  0.27586650732E+02  0.00000000000E+00 0. -1.
</event>
<event>
 7    1  0.3509180E-013  0.7246157E+02  0.7816164E-02  0.1226708E+00
        -11   -1    0    0    0    0  0.00000000000E+00  0.00000000000E+00  0.45593999997E+02  0.45594000000E+02  0.51100000000E-03 0. -1.
         11   -1    0    0    0    0 -0.00000000000E+00 -0.00000000000E+00 -0.45593999997E+02  0.45594000000E+02  0.51100000000E-03 0.  1.
    9900012    2    1    2    0    0  0.36896094496E+01 -0.10762020563E+02  0.14874302818E+02  0.72461569779E+02  0.69999999329E+02 0.  0.
        -12    1    1    2    0    0 -0.36896094496E+01  0.10762020563E+02 -0.14874302818E+02  0.18726430221E+02  0.00000000000E+00 0.  1.
         11    1    3    3    0    0 -0.54808012992E+01 -0.74774415527E+01 -0.96490061143E+00  0.93210701374E+01  0.51100000000E-03 0. -1.
        -11    1    3    3    0    0 -0.15311819914E+02  0.40430175647E+01 -0.15866822043E+02  0.22417713133E+02  0.51100000000E-03 0.  1.
         12    1    3    3    0    0  0.24482230663E+02 -0.73275965752E+01  0.31706025472E+02  0.40722786509E+02  0.00000000000E+00 0. -1.
</event>
<event>
 7    1  0.3509180E-013  0.7246146E+02  0.7816164E-02  0.1226708E+00
        -11   -1    0    0    0    0  0.00000000000E+00  0.00000000000E+00  0.45593999997E+02  0.45594000000E+02  0.51100000000E-03 0.  1.
         11   -1    0    0    0    0 -0.00000000000E+00 -0.00000000000E+00 -0.45593999997E+02  0.45594000000E+02  0.51100000000E-03 0. -1.
    9900012    2    1    2    0    0 -0.14015670200E+02  0.80245777477E+00 -0.12393561185E+02  0.72461459784E+02  0.69999856039E+02 0.  0.
        -12    1    1    2    0    0  0.14015670200E+02 -0.80245777477E+00  0.12393561185E+02  0.18726540216E+02  0.00000000000E+00 0.  1.
         11    1    3    3    0    0 -0.11846040610E+01 -0.16572282965E+02  0.15029455912E+02  0.22403758495E+02  0.51100000000E-03 0. -1.
        -11    1    3    3    0    0  0.80559808196E+01  0.13265849219E+02 -0.22815776362E+00  0.15522037196E+02  0.51100000000E-03 0.  1.
         12    1    3    3    0    0 -0.20887046958E+02  0.41088915202E+01 -0.27194859333E+02  0.34535664093E+02  0.00000000000E+00 0. -1.
</event>
<event>
 7    1  0.3509180E-013  0.7246154E+02  0.7816164E-02  0.1226708E+00
        -11   -1    0    0    0    0  0.00000000000E+00  0.00000000000E+00  0.45593999997E+02  0.45594000000E+02  0.51100000000E-03 0.  1.
         11   -1    0    0    0    0 -0.00000000000E+00 -0.00000000000E+00 -0.45593999997E+02  0.45594000000E+02  0.51100000000E-03 0. -1.
    9900012    2    1    2    0    0 -0.60540175846E+01  0.17232232079E+02 -0.41327013846E+01  0.72461543526E+02  0.69999965129E+02 0.  0.
        -12    1    1    2    0    0  0.60540175846E+01 -0.17232232079E+02  0.41327013846E+01  0.18726456474E+02  0.00000000000E+00 0.  1.
         11    1    3    3    0    0 -0.90646820107E+01 -0.13049397137E+02 -0.13814745341E+01  0.15948783582E+02  0.51100000000E-03 0. -1.
        -11    1    3    3    0    0 -0.68387680032E+01  0.36337820745E+02 -0.14787100525E+02  0.39822911828E+02  0.51100000000E-03 0.  1.
         12    1    3    3    0    0  0.98494324293E+01 -0.60561915290E+01  0.12035873674E+02  0.16689848116E+02  0.00000000000E+00 0. -1.
</event>
<event>
 7    1  0.3509180E-013  0.7246157E+02  0.7816164E-02  0.1226708E+00
        -11   -1    0    0    0    0  0.00000000000E+00  0.00000000000E+00  0.45593999997E+02  0.45594000000E+02  0.51100000000E-03 0.  1.
         11   -1    0    0    0    0 -0.00000000000E+00 -0.00000000000E+00 -0.45593999997E+02  0.45594000000E+02  0.51100000000E-03 0. -1.
    9900012    2    1    2    0    0 -0.15302433453E+01 -0.80256872284E+01 -0.16850096720E+02  0.72461573228E+02  0.70000003821E+02 0.  0.
        -12    1    1    2    0    0  0.15302433453E+01  0.80256872284E+01  0.16850096720E+02  0.18726426772E+02  0.00000000000E+00 0.  1.
         11    1    3    3    0    0  0.71072356836E+01 -0.22245018917E+02 -0.23294959179E+02  0.32984978233E+02  0.51100000000E-03 0. -1.
        -11    1    3    3    0    0 -0.89061026974E+01  0.17656518691E+01 -0.13316267137E+02  0.16117045713E+02  0.51100000000E-03 0.  1.
        -12    1    3    3    0    0  0.26862366845E+00  0.12453679819E+02  0.19761129596E+02  0.23359549281E+02  0.00000000000E+00 0.  1.
</event>
<event>
 7    1  0.3509180E-013  0.7246159E+02  0.7816164E-02  0.1226708E+00
        -11   -1    0    0    0    0  0.00000000000E+00  0.00000000000E+00  0.45593999997E+02  0.45594000000E+02  0.51100000000E-03 0.  1.
         11   -1    0    0    0    0 -0.00000000000E+00 -0.00000000000E+00 -0.45593999997E+02  0.45594000000E+02  0.51100000000E-03 0. -1.
    9900012    2    1    2    0    0 -0.89443400569E+01 -0.12135435662E+02 -0.11108934491E+02  0.72461589685E+02  0.70000025261E+02 0.  0.
        -12    1    1    2    0    0  0.89443400569E+01  0.12135435662E+02  0.11108934491E+02  0.18726410315E+02  0.00000000000E+00 0.  1.
         11    1    3    3    0    0  0.12571403046E+01 -0.33553589972E+01 -0.53211118843E+01  0.64150656810E+01  0.51100000000E-03 0. -1.
        -11    1    3    3    0    0 -0.16921291299E+02  0.23046773764E+02  0.94675311420E+01  0.30118400129E+02  0.51100000000E-03 0.  1.
         12    1    3    3    0    0  0.67198109377E+01 -0.31826850428E+02 -0.15255353748E+02  0.35928123875E+02  0.00000000000E+00 0. -1.
</event>
<event>
 7    1  0.3509180E-013  0.7246156E+02  0.7816164E-02  0.1226708E+00
        -11   -1    0    0    0    0  0.00000000000E+00  0.00000000000E+00  0.45593999997E+02  0.45594000000E+02  0.51100000000E-03 0.  1.
         11   -1    0    0    0    0 -0.00000000000E+00 -0.00000000000E+00 -0.45593999997E+02  0.45594000000E+02  0.51100000000E-03 0. -1.
    9900012    2    1    2    0    0 -0.12696897434E+02 -0.60828640204E+01 -0.12347760877E+02  0.72461557791E+02  0.69999983712E+02 0.  0.
        -12    1    1    2    0    0  0.12696897434E+02  0.60828640204E+01  0.12347760877E+02  0.18726442209E+02  0.00000000000E+00 0.  1.
         11    1    3    3    0    0  0.10554034214E+01  0.16170122394E+02  0.31144103555E+01  0.16501099562E+02  0.51100000000E-03 0. -1.
        -11    1    3    3    0    0 -0.17474979127E+02 -0.67455885796E+01  0.13368444887E+02  0.23012891599E+02  0.51100000000E-03 0.  1.
         12    1    3    3    0    0  0.37226782719E+01 -0.15507397835E+02 -0.28830616119E+02  0.32947566631E+02  0.00000000000E+00 0. -1.
</event>
<event>
 7    1  0.3509180E-013  0.7246157E+02  0.7816164E-02  0.1226708E+00
        -11   -1    0    0    0    0  0.00000000000E+00  0.00000000000E+00  0.45593999997E+02  0.45594000000E+02  0.51100000000E-03 0.  1.
         11   -1    0    0    0    0 -0.00000000000E+00 -0.00000000000E+00 -0.45593999997E+02  0.45594000000E+02  0.51100000000E-03 0. -1.
    9900012    2    1    2    0    0 -0.10235721466E+02  0.12430256291E+02 -0.95602173224E+01  0.72461574269E+02  0.70000005178E+02 0.  0.
        -12    1    1    2    0    0  0.10235721466E+02 -0.12430256291E+02  0.95602173224E+01  0.18726425731E+02  0.00000000000E+00 0.  1.
         11    1    3    3    0    0 -0.31809843314E+02  0.20161386101E+02 -0.89043174741E+01  0.38699282824E+02  0.51100000000E-03 0. -1.
        -11    1    3    3    0    0 -0.55587297875E+01 -0.26208818710E+01 -0.54642764375E-01  0.61458510172E+01  0.51100000000E-03 0.  1.
        -12    1    3    3    0    0  0.27132851635E+02 -0.51102479389E+01 -0.60125708390E+00  0.27616440428E+02  0.00000000000E+00 0.  1.
</event>
<event>
 7    1  0.3509180E-013  0.7246170E+02  0.7816164E-02  0.1226708E+00
        -11   -1    0    0    0    0  0.00000000000E+00  0.00000000000E+00  0.45593999997E+02  0.45594000000E+02  0.51100000000E-03 0.  1.
         11   -1    0    0    0    0 -0.00000000000E+00 -0.00000000000E+00 -0.45593999997E+02  0.45594000000E+02  0.51100000000E-03 0. -1.
    9900012    2    1    2    0    0 -0.51459403438E+01 -0.46920649849E+01 -0.17383270455E+02  0.72461701178E+02  0.70000170500E+02 0.  0.
        -12    1    1    2    0    0  0.51459403438E+01  0.46920649849E+01  0.17383270455E+02  0.18726298822E+02  0.00000000000E+00 0.  1.
         11    1    3    3    0    0 -0.29326948213E+02  0.10155269226E+02 -0.22646860305E+01  0.31117972100E+02  0.51100000000E-03 0.  1.
        -11    1    3    3    0    0 -0.22626732211E+01  0.48928734627E+01 -0.31349872395E+01  0.62360280692E+01  0.51100000000E-03 0. -1.
         12    1    3    3    0    0  0.26443681090E+02 -0.19740207674E+02 -0.11983597185E+02  0.35107701009E+02  0.00000000000E+00 0. -1.
</event>
<event>
 7    1  0.3509180E-013  0.7246156E+02  0.7816164E-02  0.1226708E+00
        -11   -1    0    0    0    0  0.00000000000E+00  0.00000000000E+00  0.45593999997E+02  0.45594000000E+02  0.51100000000E-03 0. -1.
         11   -1    0    0    0    0 -0.00000000000E+00 -0.00000000000E+00 -0.45593999997E+02  0.45594000000E+02  0.51100000000E-03 0.  1.
    9900012    2    1    2    0    0  0.18286275653E+02  0.38156672255E+01 -0.13161328137E+01  0.72461564162E+02  0.69999992011E+02 0.  0.
        -12    1    1    2    0    0 -0.18286275653E+02 -0.38156672255E+01  0.13161328137E+01  0.18726435838E+02  0.00000000000E+00 0.  1.
         11    1    3    3    0    0 -0.89723443420E+01 -0.39088492243E+01 -0.37595525648E+01  0.10484097529E+02  0.51100000000E-03 0. -1.
        -11    1    3    3    0    0  0.11660470770E+02 -0.10755099312E+02 -0.22308304196E+02  0.27373329651E+02  0.51100000000E-03 0.  1.
         12    1    3    3    0    0  0.15598149224E+02  0.18479615762E+02  0.24751723947E+02  0.34604136982E+02  0.00000000000E+00 0. -1.
</event>
<event>
 7    1  0.3509180E-013  0.7246155E+02  0.7816164E-02  0.1226708E+00
        -11   -1    0    0    0    0  0.00000000000E+00  0.00000000000E+00  0.45593999997E+02  0.45594000000E+02  0.51100000000E-03 0.  1.
         11   -1    0    0    0    0 -0.00000000000E+00 -0.00000000000E+00 -0.45593999997E+02  0.45594000000E+02  0.51100000000E-03 0. -1.
    9900012    2    1    2    0    0  0.10529771799E+02 -0.39567247659E+01 -0.14971573323E+02  0.72461554187E+02  0.69999979017E+02 0.  0.
        -12    1    1    2    0    0 -0.10529771799E+02  0.39567247659E+01  0.14971573323E+02  0.18726445813E+02  0.00000000000E+00 0.  1.
         11    1    3    3    0    0 -0.79823987680E+01  0.25273101143E+01 -0.23776389636E+02  0.25207591930E+02  0.51100000000E-03 0. -1.
        -11    1    3    3    0    0 -0.93216730426E+01  0.81284866308E+01 -0.44407469564E+01  0.13141008980E+02  0.51100000000E-03 0.  1.
        -12    1    3    3    0    0  0.27833843610E+02 -0.14612521511E+02  0.13245563269E+02  0.34112953277E+02  0.00000000000E+00 0.  1.
</event>
<event>
 7    1  0.3509180E-013  0.7246157E+02  0.7816164E-02  0.1226708E+00
        -11   -1    0    0    0    0  0.00000000000E+00  0.00000000000E+00  0.45593999997E+02  0.45594000000E+02  0.51100000000E-03 0. -1.
         11   -1    0    0    0    0 -0.00000000000E+00 -0.00000000000E+00 -0.45593999997E+02  0.45594000000E+02  0.51100000000E-03 0.  1.
    9900012    2    1    2    0    0  0.16350409718E+02 -0.30605634338E+01  0.86009431338E+01  0.72461570301E+02  0.70000000008E+02 0.  0.
        -12    1    1    2    0    0 -0.16350409718E+02  0.30605634338E+01 -0.86009431338E+01  0.18726429699E+02  0.00000000000E+00 0.  1.
         11    1    3    3    0    0  0.27797258445E+02 -0.28243049175E+01  0.33707054248E+02  0.43781614653E+02  0.51100000000E-03 0. -1.
        -11    1    3    3    0    0  0.14141665113E+00  0.17050712444E+01 -0.13588852605E+01  0.21849109890E+01  0.51100000000E-03 0.  1.
        -12    1    3    3    0    0 -0.11588265378E+02 -0.19413297608E+01 -0.23747225854E+02  0.26495044658E+02  0.00000000000E+00 0.  1.
</event>
<event>
 7    1  0.3509180E-013  0.7246146E+02  0.7816164E-02  0.1226708E+00
        -11   -1    0    0    0    0  0.00000000000E+00  0.00000000000E+00  0.45593999997E+02  0.45594000000E+02  0.51100000000E-03 0.  1.
         11   -1    0    0    0    0 -0.00000000000E+00 -0.00000000000E+00 -0.45593999997E+02  0.45594000000E+02  0.51100000000E-03 0. -1.
    9900012    2    1    2    0    0 -0.98920369669E+01  0.10885038070E+02 -0.11590814576E+02  0.72461456494E+02  0.69999851754E+02 0.  0.
        -12    1    1    2    0    0  0.98920369669E+01 -0.10885038070E+02  0.11590814576E+02  0.18726543506E+02  0.00000000000E+00 0.  1.
         11    1    3    3    0    0 -0.90021505904E+01 -0.13465086381E+02 -0.62216202140E+01  0.17350960343E+02  0.51100000000E-03 0. -1.
        -11    1    3    3    0    0 -0.22228636966E+02  0.19861364104E+02  0.61681671868E+01  0.30440636855E+02  0.51100000000E-03 0.  1.
         12    1    3    3    0    0  0.21338750589E+02  0.44887603459E+01 -0.11537361549E+02  0.24669859296E+02  0.00000000000E+00 0. -1.
</event>
<event>
 7    1  0.3509180E-013  0.7246151E+02  0.7816164E-02  0.1226708E+00
        -11   -1    0    0    0    0  0.00000000000E+00  0.00000000000E+00  0.45593999997E+02  0.45594000000E+02  0.51100000000E-03 0.  1.
         11   -1    0    0    0    0 -0.00000000000E+00 -0.00000000000E+00 -0.45593999997E+02  0.45594000000E+02  0.51100000000E-03 0. -1.
    9900012    2    1    2    0    0  0.45107100454E+01 -0.17704809526E+02  0.41078678557E+01  0.72461511707E+02  0.69999923679E+02 0.  0.
        -12    1    1    2    0    0 -0.45107100454E+01  0.17704809526E+02 -0.41078678557E+01  0.18726488293E+02  0.00000000000E+00 0.  1.
         11    1    3    3    0    0 -0.11245461922E+02 -0.21094051358E+02  0.47536253264E+01  0.24372451057E+02  0.51100000000E-03 0. -1.
        -11    1    3    3    0    0  0.13583047504E+02  0.30800768101E+01  0.21618621407E+02  0.25716742492E+02  0.51100000000E-03 0.  1.
         12    1    3    3    0    0  0.21731244639E+01  0.30916502110E+00 -0.22264378877E+02  0.22372318157E+02  0.00000000000E+00 0. -1.
</event>
<event>
 7    1  0.3509180E-013  0.7246154E+02  0.7816164E-02  0.1226708E+00
        -11   -1    0    0    0    0  0.00000000000E+00  0.00000000000E+00  0.45593999997E+02  0.45594000000E+02  0.51100000000E-03 0. -1.
         11   -1    0    0    0    0 -0.00000000000E+00 -0.00000000000E+00 -0.45593999997E+02  0.45594000000E+02  0.51100000000E-03 0.  1.
    9900012    2    1    2    0    0 -0.16811153015E+02 -0.41910833697E+01 -0.71063612062E+01  0.72461537037E+02  0.69999956676E+02 0.  0.
        -12    1    1    2    0    0  0.16811153015E+02  0.41910833697E+01  0.71063612062E+01  0.18726462963E+02  0.00000000000E+00 0.  1.
         11    1    3    3    0    0 -0.21288418944E+02  0.14846674980E+02  0.10109825102E+02  0.27853708962E+02  0.51100000000E-03 0. -1.
        -11    1    3    3    0    0 -0.14767536036E+02 -0.15736112173E+01 -0.36535721471E+01  0.15293951829E+02  0.51100000000E-03 0.  1.
         12    1    3    3    0    0  0.19244801965E+02 -0.17464147132E+02 -0.13562614161E+02  0.29313876247E+02  0.00000000000E+00 0. -1.
</event>
<event>
 7    1  0.3509180E-013  0.7246158E+02  0.7816164E-02  0.1226708E+00
        -11   -1    0    0    0    0  0.00000000000E+00  0.00000000000E+00  0.45593999997E+02  0.45594000000E+02  0.51100000000E-03 0. -1.
         11   -1    0    0    0    0 -0.00000000000E+00 -0.00000000000E+00 -0.45593999997E+02  0.45594000000E+02  0.51100000000E-03 0.  1.
    9900012    2    1    2    0    0  0.17507534170E+02  0.42459435648E+01  0.51124215276E+01  0.72461584343E+02  0.70000018302E+02 0.  0.
        -12    1    1    2    0    0 -0.17507534170E+02 -0.42459435648E+01 -0.51124215276E+01  0.18726415657E+02  0.00000000000E+00 0.  1.
         11    1    3    3    0    0  0.21448860621E+02  0.16572958922E+02 -0.13561557122E+02  0.30308949524E+02  0.51100000000E-03 0. -1.
        -11    1    3    3    0    0  0.81672883924E+01  0.94837447024E+01  0.89099931773E+01  0.15363397800E+02  0.51100000000E-03 0.  1.
         12    1    3    3    0    0 -0.12108614844E+02 -0.21810760060E+02  0.97639854722E+01  0.26789237020E+02  0.00000000000E+00 0. -1.
</event>
<event>
 7    1  0.3509180E-013  0.7246154E+02  0.7816164E-02  0.1226708E+00
        -11   -1    0    0    0    0  0.00000000000E+00  0.00000000000E+00  0.45593999997E+02  0.45594000000E+02  0.51100000000E-03 0. -1.
         11   -1    0    0    0    0 -0.00000000000E+00 -0.00000000000E+00 -0.45593999997E+02  0.45594000000E+02  0.51100000000E-03 0.  1.
    9900012    2    1    2    0    0  0.10023451354E+02 -0.76077607021E+01  0.13868402031E+02  0.72461543452E+02  0.69999965033E+02 0.  0.
        -12    1    1    2    0    0 -0.10023451354E+02  0.76077607021E+01 -0.13868402031E+02  0.18726456548E+02  0.00000000000E+00 0.  1.
         11    1    3    3    0    0 -0.14134804075E+02  0.39324013858E+01 -0.56003093584E+00  0.14682305739E+02  0.51100000000E-03 0. -1.
        -11    1    3    3    0    0 -0.13526565480E+02  0.29371852214E+01  0.10188386064E+02  0.17187153388E+02  0.51100000000E-03 0.  1.
        -12    1    3    3    0    0  0.37684820910E+02 -0.14477347309E+02  0.42400469025E+01  0.40592084325E+02  0.00000000000E+00 0.  1.
</event>
<event>
 7    1  0.3509180E-013  0.7246156E+02  0.7816164E-02  0.1226708E+00
        -11   -1    0    0    0    0  0.00000000000E+00  0.00000000000E+00  0.45593999997E+02  0.45594000000E+02  0.51100000000E-03 0. -1.
         11   -1    0    0    0    0 -0.00000000000E+00 -0.00000000000E+00 -0.45593999997E+02  0.45594000000E+02  0.51100000000E-03 0.  1.
    9900012    2    1    2    0    0  0.14001770966E+02  0.11775716797E+02  0.39953076238E+01  0.72461559354E+02  0.69999985748E+02 0.  0.
        -12    1    1    2    0    0 -0.14001770966E+02 -0.11775716797E+02 -0.39953076238E+01  0.18726440646E+02  0.00000000000E+00 0.  1.
         11    1    3    3    0    0 -0.12939283872E+02 -0.88750905524E+01  0.15521144258E+01  0.15767097351E+02  0.51100000000E-03 0. -1.
        -11    1    3    3    0    0  0.21499343085E+02  0.14915928560E+01  0.20549098086E+02  0.29777710367E+02  0.51100000000E-03 0.  1.
        -12    1    3    3    0    0  0.54417117529E+01  0.19159214493E+02 -0.18105904887E+02  0.26916751635E+02  0.00000000000E+00 0.  1.
</event>
<event>
 7    1  0.3509180E-013  0.7246141E+02  0.7816164E-02  0.1226708E+00
        -11   -1    0    0    0    0  0.00000000000E+00  0.00000000000E+00  0.45593999997E+02  0.45594000000E+02  0.51100000000E-03 0. -1.
         11   -1    0    0    0    0 -0.00000000000E+00 -0.00000000000E+00 -0.45593999997E+02  0.45594000000E+02  0.51100000000E-03 0.  1.
    9900012    2    1    2    0    0 -0.89178985649E+01  0.16445034383E+02  0.84688594044E+00  0.72461406971E+02  0.69999787241E+02 0.  0.
        -12    1    1    2    0    0  0.89178985649E+01 -0.16445034383E+02 -0.84688594044E+00  0.18726593029E+02  0.00000000000E+00 0.  1.
         11    1    3    3    0    0 -0.14276601674E+01  0.94736389612E+01  0.10056191918E+02  0.13889386051E+02  0.51100000000E-03 0. -1.
        -11    1    3    3    0    0 -0.14673897432E+02  0.29868776300E+02 -0.93738889601E+01  0.34573643980E+02  0.51100000000E-03 0.  1.
         12    1    3    3    0    0  0.71836590345E+01 -0.22897380878E+02  0.16458298228E+00  0.23998376940E+02  0.00000000000E+00 0. -1.
</event>
<event>
 7    1  0.3509180E-013  0.7246147E+02  0.7816164E-02  0.1226708E+00
        -11   -1    0    0    0    0  0.00000000000E+00  0.00000000000E+00  0.45593999997E+02  0.45594000000E+02  0.51100000000E-03 0.  1.
         11   -1    0    0    0    0 -0.00000000000E+00 -0.00000000000E+00 -0.45593999997E+02  0.45594000000E+02  0.51100000000E-03 0. -1.
    9900012    2    1    2    0    0  0.15036079453E+02 -0.10373303500E+02 -0.41223402791E+01  0.72461473354E+02  0.69999873718E+02 0.  0.
        -12    1    1    2    0    0 -0.15036079453E+02  0.10373303500E+02  0.41223402791E+01  0.18726526646E+02  0.00000000000E+00 0.  1.
         11    1    3    3    0    0  0.13279727029E+02  0.12881723882E+02 -0.92794064801E+01  0.20697761836E+02  0.51100000000E-03 0. -1.
        -11    1    3    3    0    0  0.89651384434E+01 -0.23488834343E+02 -0.15736440734E+02  0.29660320520E+02  0.51100000000E-03 0.  1.
        -12    1    3    3    0    0 -0.72087860196E+01  0.23380696055E+00  0.20893506935E+02  0.22103390998E+02  0.00000000000E+00 0.  1.
</event>
<event>
 7    1  0.3509180E-013  0.7246158E+02  0.7816164E-02  0.1226708E+00
        -11   -1    0    0    0    0  0.00000000000E+00  0.00000000000E+00  0.45593999997E+02  0.45594000000E+02  0.51100000000E-03 0.  1.
         11   -1    0    0    0    0 -0.00000000000E+00 -0.00000000000E+00 -0.45593999997E+02  0.45594000000E+02  0.51100000000E-03 0. -1.
    9900012    2    1    2    0    0 -0.95025489478E+01  0.44355304296E+01 -0.15514717473E+02  0.72461579494E+02  0.70000011985E+02 0.  0.
        -12    1    1    2    0    0  0.95025489478E+01 -0.44355304296E+01  0.15514717473E+02  0.18726420506E+02  0.00000000000E+00 0.  1.
         11    1    3    3    0    0 -0.21506221739E+01  0.13065643420E+02  0.95992138953E+01  0.16354850087E+02  0.51100000000E-03 0. -1.
        -11    1    3    3    0    0 -0.12579432949E+02  0.14741855496E+02  0.25157120163E+01  0.19542089039E+02  0.51100000000E-03 0.  1.
         12    1    3    3    0    0  0.52275061754E+01 -0.23371968486E+02 -0.27629643384E+02  0.36564640368E+02  0.00000000000E+00 0. -1.
</event>
<event>
 7    1  0.3509180E-013  0.7246109E+02  0.7816164E-02  0.1226709E+00
        -11   -1    0    0    0    0  0.00000000000E+00  0.00000000000E+00  0.45593999997E+02  0.45594000000E+02  0.51100000000E-03 0. -1.
         11   -1    0    0    0    0 -0.00000000000E+00 -0.00000000000E+00 -0.45593999997E+02  0.45594000000E+02  0.51100000000E-03 0.  1.
    9900012    2    1    2    0    0 -0.12440198347E+02  0.49125653289E+01 -0.13107448916E+02  0.72461092884E+02  0.69999378082E+02 0.  0.
        -12    1    1    2    0    0  0.12440198347E+02 -0.49125653289E+01  0.13107448916E+02  0.18726907116E+02  0.00000000000E+00 0.  1.
         11    1    3    3    0    0  0.78063734092E+00 -0.51530089922E+01 -0.17812075922E+01  0.55077760557E+01  0.51100000000E-03 0. -1.
        -11    1    3    3    0    0  0.14113054077E+02  0.46026983763E+01 -0.29951887332E+02  0.33428710456E+02  0.51100000000E-03 0.  1.
         12    1    3    3    0    0 -0.27333889765E+02  0.54628759449E+01  0.18625646008E+02  0.33524606373E+02  0.00000000000E+00 0. -1.
</event>
<event>
 7    1  0.3509180E-013  0.7246184E+02  0.7816164E-02  0.1226707E+00
        -11   -1    0    0    0    0  0.00000000000E+00  0.00000000000E+00  0.45593999997E+02  0.45594000000E+02  0.51100000000E-03 0.  1.
         11   -1    0    0    0    0 -0.00000000000E+00 -0.00000000000E+00 -0.45593999997E+02  0.45594000000E+02  0.51100000000E-03 0. -1.
    9900012    2    1    2    0    0 -0.13003985463E+02  0.24572627753E+01 -0.13248674823E+02  0.72461837477E+02  0.70000348054E+02 0.  0.
        -12    1    1    2    0    0  0.13003985463E+02 -0.24572627753E+01  0.13248674823E+02  0.18726162523E+02  0.00000000000E+00 0.  1.
         11    1    3    3    0    0  0.12032660375E+02  0.98040262912E+01  0.42087719978E+01  0.16081592248E+02  0.51100000000E-03 0. -1.
        -11    1    3    3    0    0  0.59140628972E+01  0.36105521875E+00  0.11732389609E+02  0.13143647402E+02  0.51100000000E-03 0.  1.
         12    1    3    3    0    0 -0.30950708736E+02 -0.77078187346E+01 -0.29189836430E+02  0.43236597828E+02  0.00000000000E+00 0. -1.
</event>
<event>
 7    1  0.3509180E-013  0.7246154E+02  0.7816164E-02  0.1226708E+00
        -11   -1    0    0    0    0  0.00000000000E+00  0.00000000000E+00  0.45593999997E+02  0.45594000000E+02  0.51100000000E-03 0.  1.
         11   -1    0    0    0    0 -0.00000000000E+00 -0.00000000000E+00 -0.45593999997E+02  0.45594000000E+02  0.51100000000E-03 0. -1.
    9900012    2    1    2    0    0  0.48091595449E+01  0.17166798505E+02 -0.57317897221E+01  0.72461537444E+02  0.69999957206E+02 0.  0.
        -12    1    1    2    0    0 -0.48091595449E+01 -0.17166798505E+02  0.57317897221E+01  0.18726462556E+02  0.00000000000E+00 0.  1.
         11    1    3    3    0    0  0.15934108851E+02 -0.16902522701E+01 -0.29977367241E+02  0.33991106551E+02  0.51100000000E-03 0. -1.
        -11    1    3    3    0    0  0.48478571490E+01  0.35418941699E+01  0.11397630334E+02  0.12882263417E+02  0.51100000000E-03 0.  1.
        -12    1    3    3    0    0 -0.15972806455E+02  0.15315156605E+02  0.12847947185E+02  0.25588167476E+02  0.00000000000E+00 0.  1.
</event>
<event>
 7    1  0.3509180E-013  0.7246159E+02  0.7816164E-02  0.1226708E+00
        -11   -1    0    0    0    0  0.00000000000E+00  0.00000000000E+00  0.45593999997E+02  0.45594000000E+02  0.51100000000E-03 0.  1.
         11   -1    0    0    0    0 -0.00000000000E+00 -0.00000000000E+00 -0.45593999997E+02  0.45594000000E+02  0.51100000000E-03 0. -1.
    9900012    2    1    2    0    0 -0.13071191943E+02 -0.98080804504E+01  0.91446069936E+01  0.72461592496E+02  0.70000028922E+02 0.  0.
        -12    1    1    2    0    0  0.13071191943E+02  0.98080804504E+01 -0.91446069936E+01  0.18726407504E+02  0.00000000000E+00 0.  1.
         11    1    3    3    0    0  0.75261685506E+00  0.61208417642E+01  0.94244891043E+01  0.11262865140E+02  0.51100000000E-03 0. -1.
        -11    1    3    3    0    0 -0.40247242010E-01  0.21393946150E+02  0.59767332460E+00  0.21402330840E+02  0.51100000000E-03 0.  1.
         12    1    3    3    0    0 -0.13783561556E+02 -0.37322868365E+02 -0.87755543538E+00  0.39796396516E+02  0.00000000000E+00 0. -1.
</event>
<event>
 7    1  0.3509180E-013  0.7246155E+02  0.7816164E-02  0.1226708E+00
        -11   -1    0    0    0    0  0.00000000000E+00  0.00000000000E+00  0.45593999997E+02  0.45594000000E+02  0.51100000000E-03 0.  1.
         11   -1    0    0    0    0 -0.00000000000E+00 -0.00000000000E+00 -0.45593999997E+02  0.45594000000E+02  0.51100000000E-03 0. -1.
    9900012    2    1    2    0    0  0.20947365825E+01 -0.16978243331E+02 -0.76178188965E+01  0.72461552587E+02  0.69999976933E+02 0.  0.
        -12    1    1    2    0    0 -0.20947365825E+01  0.16978243331E+02  0.76178188965E+01  0.18726447413E+02  0.00000000000E+00 0.  1.
         11    1    3    3    0    0  0.16963423163E+01 -0.11363521740E+02  0.13831341810E+02  0.17980912661E+02  0.51100000000E-03 0. -1.
        -11    1    3    3    0    0 -0.28618669130E+01 -0.21388012171E+02  0.62267362905E+01  0.22459064805E+02  0.51100000000E-03 0.  1.
         12    1    3    3    0    0  0.32602611792E+01  0.15773290580E+02 -0.27675896997E+02  0.32021575121E+02  0.00000000000E+00 0. -1.
</event>
<event>
 7    1  0.3509180E-013  0.7246154E+02  0.7816164E-02  0.1226708E+00
        -11   -1    0    0    0    0  0.00000000000E+00  0.00000000000E+00  0.45593999997E+02  0.45594000000E+02  0.51100000000E-03 0.  1.
         11   -1    0    0    0    0 -0.00000000000E+00 -0.00000000000E+00 -0.45593999997E+02  0.45594000000E+02  0.51100000000E-03 0. -1.
    9900012    2    1    2    0    0 -0.12213772418E+01 -0.62105768416E+01 -0.17624334856E+02  0.72461542615E+02  0.69999963942E+02 0.  0.
        -12    1    1    2    0    0  0.12213772418E+01  0.62105768416E+01  0.17624334856E+02  0.18726457385E+02  0.00000000000E+00 0.  1.
         11    1    3    3    0    0 -0.11410255144E+01  0.21231650373E+02 -0.81250883145E+01  0.22761853553E+02  0.51100000000E-03 0. -1.
        -11    1    3    3    0    0 -0.31960679276E+01  0.88978922929E+01 -0.92478841942E+01  0.13225380894E+02  0.51100000000E-03 0.  1.
         12    1    3    3    0    0  0.31157162002E+01 -0.36340119508E+02 -0.25136234779E+00  0.36474308168E+02  0.00000000000E+00 0. -1.
</event>
<event>
 7    1  0.3509180E-013  0.7246160E+02  0.7816164E-02  0.1226708E+00
        -11   -1    0    0    0    0  0.00000000000E+00  0.00000000000E+00  0.45593999997E+02  0.45594000000E+02  0.51100000000E-03 0.  1.
         11   -1    0    0    0    0 -0.00000000000E+00 -0.00000000000E+00 -0.45593999997E+02  0.45594000000E+02  0.51100000000E-03 0. -1.
    9900012    2    1    2    0    0  0.19933462731E+00 -0.35200563752E+01 -0.18391506781E+02  0.72461600110E+02  0.70000038840E+02 0.  0.
        -12    1    1    2    0    0 -0.19933462731E+00  0.35200563752E+01  0.18391506781E+02  0.18726399890E+02  0.00000000000E+00 0.  1.
         11    1    3    3    0    0  0.26240921064E+01  0.18476821503E+02 -0.14111271152E+02  0.23396725541E+02  0.51100000000E-03 0. -1.
        -11    1    3    3    0    0 -0.10937278138E+02 -0.14095923018E+02 -0.21722137964E+02  0.28109969349E+02  0.51100000000E-03 0.  1.
        -12    1    3    3    0    0  0.85125206589E+01 -0.79009548602E+01  0.17441902336E+02  0.20954905220E+02  0.00000000000E+00 0.  1.
</event>
<event>
 7    1  0.3509180E-013  0.7246153E+02  0.7816164E-02  0.1226708E+00
        -11   -1    0    0    0    0  0.00000000000E+00  0.00000000000E+00  0.45593999997E+02  0.45594000000E+02  0.51100000000E-03 0.  1.
         11   -1    0    0    0    0 -0.00000000000E+00 -0.00000000000E+00 -0.45593999997E+02  0.45594000000E+02  0.51100000000E-03 0. -1.
    9900012    2    1    2    0    0 -0.31626640561E+01  0.17825279866E+02 -0.47893269414E+01  0.72461529462E+02  0.69999946809E+02 0.  0.
        -12    1    1    2    0    0  0.31626640561E+01 -0.17825279866E+02  0.47893269414E+01  0.18726470538E+02  0.00000000000E+00 0.  1.
         11    1    3    3    0    0  0.11751721241E+02 -0.45030233689E+01 -0.17524003700E+02  0.21574774102E+02  0.51100000000E-03 0. -1.
        -11    1    3    3    0    0  0.12748881855E+02  0.14232896656E+02  0.10915711003E+02  0.22005955620E+02  0.51100000000E-03 0.  1.
        -12    1    3    3    0    0 -0.27663267153E+02  0.80954065794E+01  0.18189657562E+01  0.28880799741E+02  0.00000000000E+00 0.  1.
</event>
<event>
 7    1  0.3509180E-013  0.7246150E+02  0.7816164E-02  0.1226708E+00
        -11   -1    0    0    0    0  0.00000000000E+00  0.00000000000E+00  0.45593999997E+02  0.45594000000E+02  0.51100000000E-03 0. -1.
         11   -1    0    0    0    0 -0.00000000000E+00 -0.00000000000E+00 -0.45593999997E+02  0.45594000000E+02  0.51100000000E-03 0.  1.
    9900012    2    1    2    0    0  0.13541507123E+02  0.37392284343E+00  0.12929413343E+02  0.72461495712E+02  0.69999902843E+02 0.  0.
        -12    1    1    2    0    0 -0.13541507123E+02 -0.37392284343E+00 -0.12929413343E+02  0.18726504288E+02  0.00000000000E+00 0.  1.
         11    1    3    3    0    0 -0.35944156239E+01 -0.59001730505E+01 -0.62010021016E+01  0.92835495921E+01  0.51100000000E-03 0. -1.
        -11    1    3    3    0    0  0.23029608806E+02  0.15525757610E+02 -0.11936981600E+02  0.30230837916E+02  0.51100000000E-03 0.  1.
         12    1    3    3    0    0 -0.58936860598E+01 -0.92516617159E+01  0.31067397044E+02  0.32947108204E+02  0.00000000000E+00 0. -1.
</event>
<event>
 7    1  0.3509180E-013  0.7246156E+02  0.7816164E-02  0.1226708E+00
        -11   -1    0    0    0    0  0.00000000000E+00  0.00000000000E+00  0.45593999997E+02  0.45594000000E+02  0.51100000000E-03 0.  1.
         11   -1    0    0    0    0 -0.00000000000E+00 -0.00000000000E+00 -0.45593999997E+02  0.45594000000E+02  0.51100000000E-03 0. -1.
    9900012    2    1    2    0    0  0.38664452208E+01 -0.38816725440E+01 -0.17907059694E+02  0.72461559674E+02  0.69999986165E+02 0.  0.
        -12    1    1    2    0    0 -0.38664452208E+01  0.38816725440E+01  0.17907059694E+02  0.18726440326E+02  0.00000000000E+00 0.  1.
         11    1    3    3    0    0  0.61032233321E+01 -0.67852178408E+01 -0.22695700979E+02  0.24461875631E+02  0.51100000000E-03 0. -1.
        -11    1    3    3    0    0  0.13959248606E+02  0.55124761930E+01 -0.15722080623E+02  0.21735497114E+02  0.51100000000E-03 0.  1.
        -12    1    3    3    0    0 -0.16196026717E+02 -0.26089308963E+01  0.20510721908E+02  0.26264186929E+02  0.00000000000E+00 0.  1.
</event>
<event>
 7    1  0.3509180E-013  0.7246156E+02  0.7816164E-02  0.1226708E+00
        -11   -1    0    0    0    0  0.00000000000E+00  0.00000000000E+00  0.45593999997E+02  0.45594000000E+02  0.51100000000E-03 0. -1.
         11   -1    0    0    0    0 -0.00000000000E+00 -0.00000000000E+00 -0.45593999997E+02  0.45594000000E+02  0.51100000000E-03 0.  1.
    9900012    2    1    2    0    0  0.42988800592E+01  0.18226111339E+02  0.90410508329E-01  0.72461556708E+02  0.69999982302E+02 0.  0.
        -12    1    1    2    0    0 -0.42988800592E+01 -0.18226111339E+02 -0.90410508329E-01  0.18726443292E+02  0.00000000000E+00 0.  1.
         11    1    3    3    0    0  0.23535234192E+01 -0.41563989364E+01  0.36755100204E+01  0.60269477162E+01  0.51100000000E-03 0. -1.
        -11    1    3    3    0    0 -0.42907171788E+01 -0.21056143606E+02 -0.65097943327E+01  0.22453259451E+02  0.51100000000E-03 0.  1.
         12    1    3    3    0    0  0.62360738189E+01  0.43438653881E+02  0.29246948206E+01  0.43981349541E+02  0.00000000000E+00 0. -1.
</event>
<event>
 7    1  0.3509180E-013  0.7246156E+02  0.7816164E-02  0.1226708E+00
        -11   -1    0    0    0    0  0.00000000000E+00  0.00000000000E+00  0.45593999997E+02  0.45594000000E+02  0.51100000000E-03 0. -1.
         11   -1    0    0    0    0 -0.00000000000E+00 -0.00000000000E+00 -0.45593999997E+02  0.45594000000E+02  0.51100000000E-03 0.  1.
    9900012    2    1    2    0    0  0.24067059309E+01 -0.12374874526E+02  0.13847369352E+02  0.72461564382E+02  0.69999992298E+02 0.  0.
        -12    1    1    2    0    0 -0.24067059309E+01  0.12374874526E+02 -0.13847369352E+02  0.18726435618E+02  0.00000000000E+00 0.  1.
         11    1    3    3    0    0 -0.20694874695E+02 -0.98141184350E+00  0.19377759504E+02  0.28367914472E+02  0.51100000000E-03 0. -1.
        -11    1    3    3    0    0 -0.58814520844E+01  0.71006918849E+01 -0.26438922657E+01  0.95917396982E+01  0.51100000000E-03 0.  1.
        -12    1    3    3    0    0  0.28983032710E+02 -0.18494154568E+02 -0.28864978857E+01  0.34501910212E+02  0.00000000000E+00 0.  1.
</event>
<event>
 7    1  0.3509180E-013  0.7246159E+02  0.7816164E-02  0.1226708E+00
        -11   -1    0    0    0    0  0.00000000000E+00  0.00000000000E+00  0.45593999997E+02  0.45594000000E+02  0.51100000000E-03 0.  1.
         11   -1    0    0    0    0 -0.00000000000E+00 -0.00000000000E+00 -0.45593999997E+02  0.45594000000E+02  0.51100000000E-03 0. -1.
    9900012    2    1    2    0    0 -0.15995971489E+01  0.80112366027E+01 -0.16850510059E+02  0.72461593185E+02  0.70000029819E+02 0.  0.
        -12    1    1    2    0    0  0.15995971489E+01 -0.80112366027E+01  0.16850510059E+02  0.18726406815E+02  0.00000000000E+00 0.  1.
         11    1    3    3    0    0 -0.71047962607E+01  0.22192215532E+02  0.14910959736E+01  0.23349430990E+02  0.51100000000E-03 0. -1.
        -11    1    3    3    0    0 -0.12276881747E+02  0.73310820390E+01  0.21869821360E+01  0.14465458182E+02  0.51100000000E-03 0.  1.
         12    1    3    3    0    0  0.17782080859E+02 -0.21512060968E+02 -0.20528588169E+02  0.34646704013E+02  0.00000000000E+00 0. -1.
</event>
<event>
 7    1  0.3509180E-013  0.7246155E+02  0.7816164E-02  0.1226708E+00
        -11   -1    0    0    0    0  0.00000000000E+00  0.00000000000E+00  0.45593999997E+02  0.45594000000E+02  0.51100000000E-03 0.  1.
         11   -1    0    0    0    0 -0.00000000000E+00 -0.00000000000E+00 -0.45593999997E+02  0.45594000000E+02  0.51100000000E-03 0. -1.
    9900012    2    1    2    0    0 -0.26780613830E+01  0.13170158567E+02 -0.13040509597E+02  0.72461548655E+02  0.69999971811E+02 0.  0.
        -12    1    1    2    0    0  0.26780613830E+01 -0.13170158567E+02  0.13040509597E+02  0.18726451345E+02  0.00000000000E+00 0.  1.
         11    1    3    3    0    0 -0.10449091138E+02  0.21571773276E+01 -0.10922184666E+02  0.15268629204E+02  0.51100000000E-03 0. -1.
        -11    1    3    3    0    0  0.18129145466E+02  0.24160807630E+02 -0.17116333908E+02  0.34718574674E+02  0.51100000000E-03 0.  1.
        -12    1    3    3    0    0 -0.10358115711E+02 -0.13147826391E+02  0.14998008978E+02  0.22474344778E+02  0.00000000000E+00 0.  1.
</event>
<event>
 7    1  0.3509180E-013  0.7246149E+02  0.7816164E-02  0.1226708E+00
        -11   -1    0    0    0    0  0.00000000000E+00  0.00000000000E+00  0.45593999997E+02  0.45594000000E+02  0.51100000000E-03 0.  1.
         11   -1    0    0    0    0 -0.00000000000E+00 -0.00000000000E+00 -0.45593999997E+02  0.45594000000E+02  0.51100000000E-03 0. -1.
    9900012    2    1    2    0    0  0.16478553230E+02 -0.63974161690E+01 -0.61816297503E+01  0.72461489472E+02  0.69999894713E+02 0.  0.
        -12    1    1    2    0    0 -0.16478553230E+02  0.63974161690E+01  0.61816297503E+01  0.18726510528E+02  0.00000000000E+00 0.  1.
         11    1    3    3    0    0 -0.40972521694E+01  0.66842453200E+01  0.85757576112E+00  0.78868274537E+01  0.51100000000E-03 0. -1.
        -11    1    3    3    0    0  0.26029370367E+02  0.72756862305E+01  0.17522657346E+02  0.32210359398E+02  0.51100000000E-03 0.  1.
         12    1    3    3    0    0 -0.54535649680E+01 -0.20357347719E+02 -0.24561862857E+02  0.32364302620E+02  0.00000000000E+00 0. -1.
</event>
<event>
 7    1  0.3509180E-013  0.7246167E+02  0.7816164E-02  0.1226708E+00
        -11   -1    0    0    0    0  0.00000000000E+00  0.00000000000E+00  0.45593999997E+02  0.45594000000E+02  0.51100000000E-03 0. -1.
         11   -1    0    0    0    0 -0.00000000000E+00 -0.00000000000E+00 -0.45593999997E+02  0.45594000000E+02  0.51100000000E-03 0.  1.
    9900012    2    1    2    0    0 -0.23308782126E+01 -0.81524526975E+01  0.16696700435E+02  0.72461674049E+02  0.70000135159E+02 0.  0.
        -12    1    1    2    0    0  0.23308782126E+01  0.81524526975E+01 -0.16696700435E+02  0.18726325951E+02  0.00000000000E+00 0.  1.
         11    1    3    3    0    0  0.11911671239E+02 -0.14338956679E+02  0.14224468987E+01  0.18695372310E+02  0.51100000000E-03 0. -1.
        -11    1    3    3    0    0  0.68994347526E+01 -0.79352134049E+01 -0.12351867332E+02  0.16221542421E+02  0.51100000000E-03 0.  1.
         12    1    3    3    0    0 -0.21141984204E+02  0.14121717387E+02  0.27626120867E+02  0.37544759318E+02  0.00000000000E+00 0. -1.
</event>
<event>
 7    1  0.3509180E-013  0.7246157E+02  0.7816164E-02  0.1226708E+00
        -11   -1    0    0    0    0  0.00000000000E+00  0.00000000000E+00  0.45593999997E+02  0.45594000000E+02  0.51100000000E-03 0.  1.
         11   -1    0    0    0    0 -0.00000000000E+00 -0.00000000000E+00 -0.45593999997E+02  0.45594000000E+02  0.51100000000E-03 0. -1.
    9900012    2    1    2    0    0 -0.13106945690E+02 -0.13356599258E+02 -0.69894248646E+00  0.72461567087E+02  0.69999995822E+02 0.  0.
        -12    1    1    2    0    0  0.13106945690E+02  0.13356599258E+02  0.69894248646E+00  0.18726432913E+02  0.00000000000E+00 0.  1.
         11    1    3    3    0    0 -0.31491777702E+02 -0.67211650614E+01  0.97771534272E-01  0.32201175167E+02  0.51100000000E-03 0. -1.
        -11    1    3    3    0    0 -0.89213236217E+01  0.53653800756E+01 -0.68980958399E+00  0.10433271589E+02  0.51100000000E-03 0.  1.
        -12    1    3    3    0    0  0.27306155634E+02 -0.12000814272E+02 -0.10690443674E+00  0.29827120331E+02  0.00000000000E+00 0.  1.
</event>
<event>
 7    1  0.3509180E-013  0.7246160E+02  0.7816164E-02  0.1226708E+00
        -11   -1    0    0    0    0  0.00000000000E+00  0.00000000000E+00  0.45593999997E+02  0.45594000000E+02  0.51100000000E-03 0. -1.
         11   -1    0    0    0    0 -0.00000000000E+00 -0.00000000000E+00 -0.45593999997E+02  0.45594000000E+02  0.51100000000E-03 0.  1.
    9900012    2    1    2    0    0  0.46661688845E+01  0.18135609990E+02 -0.68872719012E-01  0.72461595507E+02  0.70000032844E+02 0.  0.
        -12    1    1    2    0    0 -0.46661688845E+01 -0.18135609990E+02  0.68872719012E-01  0.18726404493E+02  0.00000000000E+00 0.  1.
         11    1    3    3    0    0 -0.10005464049E+02  0.11641723813E+02  0.17457034340E+02  0.23246227487E+02  0.51100000000E-03 0. -1.
        -11    1    3    3    0    0  0.83855203725E+01  0.24508100082E+02 -0.49709973196E+01  0.26375646649E+02  0.51100000000E-03 0.  1.
        -12    1    3    3    0    0  0.62861125607E+01 -0.18014213905E+02 -0.12554909739E+02  0.22839721371E+02  0.00000000000E+00 0.  1.
</event>
<event>
 7    1  0.3509180E-013  0.7246163E+02  0.7816164E-02  0.1226708E+00
        -11   -1    0    0    0    0  0.00000000000E+00  0.00000000000E+00  0.45593999997E+02  0.45594000000E+02  0.51100000000E-03 0.  1.
         11   -1    0    0    0    0 -0.00000000000E+00 -0.00000000000E+00 -0.45593999997E+02  0.45594000000E+02  0.51100000000E-03 0. -1.
    9900012    2    1    2    0    0  0.77071831881E+01  0.66631303504E+01 -0.15712387494E+02  0.72461625564E+02  0.70000071999E+02 0.  0.
        -12    1    1    2    0    0 -0.77071831881E+01 -0.66631303504E+01  0.15712387494E+02  0.18726374436E+02  0.00000000000E+00 0.  1.
         11    1    3    3    0    0 -0.44372368480E+01  0.28820351738E+02 -0.13755311473E+02  0.32241438230E+02  0.51100000000E-03 0. -1.
        -11    1    3    3    0    0 -0.23108990052E+01 -0.99967585823E+01  0.12688408402E+02  0.16317816778E+02  0.51100000000E-03 0.  1.
        -12    1    3    3    0    0  0.14455319041E+02 -0.12160462805E+02 -0.14645484423E+02  0.23902370556E+02  0.00000000000E+00 0.  1.
</event>
<event>
 7    1  0.3509180E-013  0.7246156E+02  0.7816164E-02  0.1226708E+00
        -11   -1    0    0    0    0  0.00000000000E+00  0.00000000000E+00  0.45593999997E+02  0.45594000000E+02  0.51100000000E-03 0.  1.
         11   -1    0    0    0    0 -0.00000000000E+00 -0.00000000000E+00 -0.45593999997E+02  0.45594000000E+02  0.51100000000E-03 0. -1.
    9900012    2    1    2    0    0  0.16291199222E+02  0.68753837731E+01 -0.61648576574E+01  0.72461560295E+02  0.69999986973E+02 0.  0.
        -12    1    1    2    0    0 -0.16291199222E+02 -0.68753837731E+01  0.61648576574E+01  0.18726439705E+02  0.00000000000E+00 0.  1.
         11    1    3    3    0    0  0.35727199484E+01  0.11100992392E+02  0.18155738917E+02  0.21578396971E+02  0.51100000000E-03 0. -1.
        -11    1    3    3    0    0  0.99517273666E+01  0.10805081650E+02  0.68190194210E+01  0.16195236743E+02  0.51100000000E-03 0.  1.
         12    1    3    3    0    0  0.27667519067E+01 -0.15030690269E+02 -0.31139615996E+02  0.34687926581E+02  0.00000000000E+00 0. -1.
</event>
<event>
 7    1  0.4532541E-013  0.7246164E+02  0.7816164E-02  0.1226708E+00
        -11   -1    0    0    0    0  0.00000000000E+00  0.00000000000E+00  0.45593999997E+02  0.45594000000E+02  0.51100000000E-03 0. -1.
         11   -1    0    0    0    0 -0.00000000000E+00 -0.00000000000E+00 -0.45593999997E+02  0.45594000000E+02  0.51100000000E-03 0.  1.
    9900012    2    1    2    0    0  0.55027479429E+01 -0.13414213466E+02  0.11851374529E+02  0.72461643279E+02  0.70000095076E+02 0.  0.
        -12    1    1    2    0    0 -0.55027479429E+01  0.13414213466E+02 -0.11851374529E+02  0.18726356721E+02  0.00000000000E+00 0.  1.
         11    1    3    3    0    0  0.36516695738E+00  0.92564846760E+00  0.29805438616E+02  0.29822044587E+02  0.51100000000E-03 0. -1.
        -11    1    3    3    0    0 -0.19614099537E+01  0.93012907104E+01  0.33037769524E+01  0.10063601756E+02  0.51100000000E-03 0.  1.
        -12    1    3    3    0    0  0.70989909392E+01 -0.23641152644E+02 -0.21257841040E+02  0.32575996936E+02  0.00000000000E+00 0.  1.
</event>
<event>
 7    1  0.3509180E-013  0.7246156E+02  0.7816164E-02  0.1226708E+00
        -11   -1    0    0    0    0  0.00000000000E+00  0.00000000000E+00  0.45593999997E+02  0.45594000000E+02  0.51100000000E-03 0.  1.
         11   -1    0    0    0    0 -0.00000000000E+00 -0.00000000000E+00 -0.45593999997E+02  0.45594000000E+02  0.51100000000E-03 0. -1.
    9900012    2    1    2    0    0 -0.14625203433E+02  0.11416940881E+02 -0.25369894156E+01  0.72461563344E+02  0.69999990946E+02 0.  0.
        -12    1    1    2    0    0  0.14625203433E+02 -0.11416940881E+02  0.25369894156E+01  0.18726436656E+02  0.00000000000E+00 0.  1.
         11    1    3    3    0    0  0.30494917023E+01  0.16388854066E+02  0.22108897384E+01  0.16816122351E+02  0.51100000000E-03 0. -1.
        -11    1    3    3    0    0  0.18684005082E+02 -0.37482460128E+01 -0.20511404892E+01  0.19166339547E+02  0.51100000000E-03 0.  1.
         12    1    3    3    0    0 -0.36358700217E+02 -0.12236671714E+01 -0.26967386648E+01  0.36479101445E+02  0.00000000000E+00 0. -1.
</event>
<event>
 7    1  0.3509180E-013  0.7246154E+02  0.7816164E-02  0.1226708E+00
        -11   -1    0    0    0    0  0.00000000000E+00  0.00000000000E+00  0.45593999997E+02  0.45594000000E+02  0.51100000000E-03 0.  1.
         11   -1    0    0    0    0 -0.00000000000E+00 -0.00000000000E+00 -0.45593999997E+02  0.45594000000E+02  0.51100000000E-03 0. -1.
    9900012    2    1    2    0    0  0.11779718429E+02 -0.76269211179E+01 -0.12399546931E+02  0.72461535942E+02  0.69999955250E+02 0.  0.
        -12    1    1    2    0    0 -0.11779718429E+02  0.76269211179E+01  0.12399546931E+02  0.18726464058E+02  0.00000000000E+00 0.  1.
         11    1    3    3    0    0  0.16282472309E+02  0.12811693749E+02 -0.17256017993E+02  0.26963467107E+02  0.51100000000E-03 0. -1.
        -11    1    3    3    0    0  0.13987452318E+02  0.24708622397E+01 -0.39963848741E+01  0.14755509984E+02  0.51100000000E-03 0.  1.
        -12    1    3    3    0    0 -0.18490206197E+02 -0.22909477106E+02  0.88528559363E+01  0.30742558852E+02  0.00000000000E+00 0.  1.
</event>
<event>
 7    1  0.3509180E-013  0.7246150E+02  0.7816164E-02  0.1226708E+00
        -11   -1    0    0    0    0  0.00000000000E+00  0.00000000000E+00  0.45593999997E+02  0.45594000000E+02  0.51100000000E-03 0.  1.
         11   -1    0    0    0    0 -0.00000000000E+00 -0.00000000000E+00 -0.45593999997E+02  0.45594000000E+02  0.51100000000E-03 0. -1.
    9900012    2    1    2    0    0  0.15165211271E+00  0.16817013945E+02  0.82369104387E+01  0.72461504066E+02  0.69999913726E+02 0.  0.
        -12    1    1    2    0    0 -0.15165211271E+00 -0.16817013945E+02 -0.82369104387E+01  0.18726495934E+02  0.00000000000E+00 0.  1.
         11    1    3    3    0    0  0.69032046691E+01  0.22174648971E+02 -0.16084763840E+02  0.28250467602E+02  0.51100000000E-03 0.  1.
        -11    1    3    3    0    0 -0.71667618050E+01 -0.11325016923E+02 -0.49856472414E+01  0.14299481171E+02  0.51100000000E-03 0. -1.
        -12    1    3    3    0    0  0.41520924861E+00  0.59673818963E+01  0.29307321520E+02  0.29911555294E+02  0.00000000000E+00 0.  1.
</event>
<event>
 7    1  0.3509180E-013  0.7246159E+02  0.7816164E-02  0.1226708E+00
        -11   -1    0    0    0    0  0.00000000000E+00  0.00000000000E+00  0.45593999997E+02  0.45594000000E+02  0.51100000000E-03 0.  1.
         11   -1    0    0    0    0 -0.00000000000E+00 -0.00000000000E+00 -0.45593999997E+02  0.45594000000E+02  0.51100000000E-03 0. -1.
    9900012    2    1    2    0    0 -0.33790452299E+01 -0.16520818437E+02  0.81439036796E+01  0.72461586685E+02  0.70000021352E+02 0.  0.
        -12    1    1    2    0    0  0.33790452299E+01  0.16520818437E+02 -0.81439036796E+01  0.18726413315E+02  0.00000000000E+00 0.  1.
         11    1    3    3    0    0 -0.14090950620E+02  0.69454821983E+01 -0.22956516153E+01  0.15876543356E+02  0.51100000000E-03 0. -1.
        -11    1    3    3    0    0 -0.19334902296E+02 -0.50062567750E+01  0.69549451007E+01  0.21148813568E+02  0.51100000000E-03 0.  1.
         12    1    3    3    0    0  0.30046807687E+02 -0.18460043860E+02  0.34846101942E+01  0.35436229761E+02  0.00000000000E+00 0. -1.
</event>
<event>
 7    1  0.3509180E-013  0.7246159E+02  0.7816164E-02  0.1226708E+00
        -11   -1    0    0    0    0  0.00000000000E+00  0.00000000000E+00  0.45593999997E+02  0.45594000000E+02  0.51100000000E-03 0.  1.
         11   -1    0    0    0    0 -0.00000000000E+00 -0.00000000000E+00 -0.45593999997E+02  0.45594000000E+02  0.51100000000E-03 0. -1.
    9900012    2    1    2    0    0 -0.18221443991E+02 -0.14269723866E+01  0.40769217227E+01  0.72461586514E+02  0.70000021129E+02 0.  0.
        -12    1    1    2    0    0  0.18221443991E+02  0.14269723866E+01 -0.40769217227E+01  0.18726413486E+02  0.00000000000E+00 0.  1.
         11    1    3    3    0    0 -0.47219772349E+01  0.11852173592E+01  0.26384554666E+01  0.55374413501E+01  0.51100000000E-03 0. -1.
        -11    1    3    3    0    0 -0.75437967809E+01  0.30531238539E+02  0.83693797273E+01  0.32543999660E+02  0.51100000000E-03 0.  1.
         12    1    3    3    0    0 -0.59556699751E+01 -0.33143428285E+02 -0.69309134712E+01  0.34380145504E+02  0.00000000000E+00 0. -1.
</event>
<event>
 7    1  0.3509180E-013  0.7246156E+02  0.7816164E-02  0.1226708E+00
        -11   -1    0    0    0    0  0.00000000000E+00  0.00000000000E+00  0.45593999997E+02  0.45594000000E+02  0.51100000000E-03 0.  1.
         11   -1    0    0    0    0 -0.00000000000E+00 -0.00000000000E+00 -0.45593999997E+02  0.45594000000E+02  0.51100000000E-03 0. -1.
    9900012    2    1    2    0    0 -0.80469102144E+01 -0.14171080727E+02 -0.92253612548E+01  0.72461559247E+02  0.69999985609E+02 0.  0.
        -12    1    1    2    0    0  0.80469102144E+01  0.14171080727E+02  0.92253612548E+01  0.18726440753E+02  0.00000000000E+00 0.  1.
         11    1    3    3    0    0 -0.59622138484E+01 -0.10886655085E+02 -0.36102176797E+02  0.38176359473E+02  0.51100000000E-03 0. -1.
        -11    1    3    3    0    0  0.24980725504E+00 -0.45676374631E+01 -0.22074234056E+01  0.50792158855E+01  0.51100000000E-03 0.  1.
        -12    1    3    3    0    0 -0.23345036211E+01  0.12832118208E+01  0.29084238948E+02  0.29205983888E+02  0.00000000000E+00 0.  1.
</event>
<event>
 7    1  0.3509180E-013  0.7246153E+02  0.7816164E-02  0.1226708E+00
        -11   -1    0    0    0    0  0.00000000000E+00  0.00000000000E+00  0.45593999997E+02  0.45594000000E+02  0.51100000000E-03 0.  1.
         11   -1    0    0    0    0 -0.00000000000E+00 -0.00000000000E+00 -0.45593999997E+02  0.45594000000E+02  0.51100000000E-03 0. -1.
    9900012    2    1    2    0    0 -0.35623921305E+01  0.14267779941E+02 -0.11593989164E+02  0.72461527645E+02  0.69999944441E+02 0.  0.
        -12    1    1    2    0    0  0.35623921305E+01 -0.14267779941E+02  0.11593989164E+02  0.18726472355E+02  0.00000000000E+00 0.  1.
         11    1    3    3    0    0  0.99115816976E+01  0.15530514193E+02  0.13051218727E+02  0.22578100748E+02  0.51100000000E-03 0.  1.
        -11    1    3    3    0    0 -0.44207175906E+01  0.18509743067E+02 -0.20075632731E+02  0.27661965987E+02  0.51100000000E-03 0. -1.
        -12    1    3    3    0    0 -0.90532562374E+01 -0.19772477319E+02 -0.45695751590E+01  0.22221460910E+02  0.00000000000E+00 0.  1.
</event>
<event>
 7    1  0.3509180E-013  0.7246161E+02  0.7816164E-02  0.1226708E+00
        -11   -1    0    0    0    0  0.00000000000E+00  0.00000000000E+00  0.45593999997E+02  0.45594000000E+02  0.51100000000E-03 0.  1.
         11   -1    0    0    0    0 -0.00000000000E+00 -0.00000000000E+00 -0.45593999997E+02  0.45594000000E+02  0.51100000000E-03 0. -1.
    9900012    2    1    2    0    0  0.24676221914E+01 -0.27218444703E+01 -0.18362467167E+02  0.72461606939E+02  0.70000047737E+02 0.  0.
        -12    1    1    2    0    0 -0.24676221914E+01  0.27218444703E+01  0.18362467167E+02  0.18726393061E+02  0.00000000000E+00 0.  1.
         11    1    3    3    0    0  0.31301507948E+01 -0.13427101585E+02 -0.72108193486E+01  0.15558946523E+02  0.51100000000E-03 0. -1.
        -11    1    3    3    0    0 -0.21875786087E+02  0.48374103575E+01  0.11615258949E+02  0.25236180309E+02  0.51100000000E-03 0.  1.
         12    1    3    3    0    0  0.21213257484E+02  0.58678467570E+01 -0.22766906767E+02  0.31666480107E+02  0.00000000000E+00 0. -1.
</event>
<event>
 7    1  0.3509180E-013  0.7246173E+02  0.7816164E-02  0.1226708E+00
        -11   -1    0    0    0    0  0.00000000000E+00  0.00000000000E+00  0.45593999997E+02  0.45594000000E+02  0.51100000000E-03 0.  1.
         11   -1    0    0    0    0 -0.00000000000E+00 -0.00000000000E+00 -0.45593999997E+02  0.45594000000E+02  0.51100000000E-03 0. -1.
    9900012    2    1    2    0    0  0.63311515358E+01 -0.48030511133E+01 -0.16956430153E+02  0.72461726924E+02  0.70000204039E+02 0.  0.
        -12    1    1    2    0    0 -0.63311515358E+01  0.48030511133E+01  0.16956430153E+02  0.18726273076E+02  0.00000000000E+00 0.  1.
         11    1    3    3    0    0  0.12059374793E+02 -0.59223808155E+00  0.53515587510E+01  0.13206757651E+02  0.51100000000E-03 0. -1.
        -11    1    3    3    0    0  0.21862594664E+02 -0.13591628628E+02 -0.11038839814E+02  0.28010023186E+02  0.51100000000E-03 0.  1.
         12    1    3    3    0    0 -0.27590817920E+02  0.93808155961E+01 -0.11269149090E+02  0.31244946087E+02  0.00000000000E+00 0. -1.
</event>
<event>
 7    1  0.3509180E-013  0.7246170E+02  0.7816164E-02  0.1226708E+00
        -11   -1    0    0    0    0  0.00000000000E+00  0.00000000000E+00  0.45593999997E+02  0.45594000000E+02  0.51100000000E-03 0. -1.
         11   -1    0    0    0    0 -0.00000000000E+00 -0.00000000000E+00 -0.45593999997E+02  0.45594000000E+02  0.51100000000E-03 0.  1.
    9900012    2    1    2    0    0  0.16742657950E+02  0.83797274257E+01 -0.37128317745E+00  0.72461700896E+02  0.70000170132E+02 0.  0.
        -12    1    1    2    0    0 -0.16742657950E+02 -0.83797274257E+01  0.37128317745E+00  0.18726299104E+02  0.00000000000E+00 0.  1.
         11    1    3    3    0    0  0.63834003676E+01  0.25104671316E-02  0.96956552465E+01  0.11608339135E+02  0.51100000000E-03 0. -1.
        -11    1    3    3    0    0  0.10500601840E+02  0.19880049541E+02  0.19099458232E+02  0.29500310401E+02  0.51100000000E-03 0.  1.
         12    1    3    3    0    0 -0.14134425769E+00 -0.11502832582E+02 -0.29166396656E+02  0.31353051359E+02  0.00000000000E+00 0. -1.
</event>
<event>
 7    1  0.4094161E-013  0.7246158E+02  0.7816164E-02  0.1226708E+00
        -11   -1    0    0    0    0  0.00000000000E+00  0.00000000000E+00  0.45593999997E+02  0.45594000000E+02  0.51100000000E-03 0. -1.
         11   -1    0    0    0    0 -0.00000000000E+00 -0.00000000000E+00 -0.45593999997E+02  0.45594000000E+02  0.51100000000E-03 0.  1.
    9900012    2    1    2    0    0 -0.82158678417E+01 -0.96335362185E+01  0.13797579151E+02  0.72461582967E+02  0.70000016508E+02 0.  0.
        -12    1    1    2    0    0  0.82158678417E+01  0.96335362185E+01 -0.13797579151E+02  0.18726417033E+02  0.00000000000E+00 0.  1.
         11    1    3    3    0    0 -0.13249496321E+02  0.74091334810E+01 -0.20603715113E+01  0.15319580371E+02  0.51100000000E-03 0. -1.
        -11    1    3    3    0    0  0.15564019075E+02  0.12934950238E+02 -0.25883004251E+01  0.20402228476E+02  0.51100000000E-03 0.  1.
         12    1    3    3    0    0 -0.10530390596E+02 -0.29977619938E+02  0.18446251087E+02  0.36739774120E+02  0.00000000000E+00 0. -1.
</event>
<event>
 7    1  0.3509180E-013  0.7246162E+02  0.7816164E-02  0.1226708E+00
        -11   -1    0    0    0    0  0.00000000000E+00  0.00000000000E+00  0.45593999997E+02  0.45594000000E+02  0.51100000000E-03 0.  1.
         11   -1    0    0    0    0 -0.00000000000E+00 -0.00000000000E+00 -0.45593999997E+02  0.45594000000E+02  0.51100000000E-03 0. -1.
    9900012    2    1    2    0    0  0.49553322765E+01  0.13810748987E+02 -0.11635512788E+02  0.72461621189E+02  0.70000066299E+02 0.  0.
        -12    1    1    2    0    0 -0.49553322765E+01 -0.13810748987E+02  0.11635512788E+02  0.18726378811E+02  0.00000000000E+00 0.  1.
         11    1    3    3    0    0  0.21268361931E+02  0.48864105429E-01  0.22613132262E+02  0.31043507500E+02  0.51100000000E-03 0.  1.
        -11    1    3    3    0    0 -0.82535833480E+01  0.66565007561E+01 -0.25311248884E+02  0.27442484595E+02  0.51100000000E-03 0. -1.
        -12    1    3    3    0    0 -0.80594463069E+01  0.71053841253E+01 -0.89373961657E+01  0.13975629094E+02  0.00000000000E+00 0.  1.
</event>
<event>
 7    1  0.3509180E-013  0.7246150E+02  0.7816164E-02  0.1226708E+00
        -11   -1    0    0    0    0  0.00000000000E+00  0.00000000000E+00  0.45593999997E+02  0.45594000000E+02  0.51100000000E-03 0.  1.
         11   -1    0    0    0    0 -0.00000000000E+00 -0.00000000000E+00 -0.45593999997E+02  0.45594000000E+02  0.51100000000E-03 0. -1.
    9900012    2    1    2    0    0 -0.12768468722E+02 -0.11610777967E+02 -0.72689543529E+01  0.72461503908E+02  0.69999913520E+02 0.  0.
        -12    1    1    2    0    0  0.12768468722E+02  0.11610777967E+02  0.72689543529E+01  0.18726496092E+02  0.00000000000E+00 0.  1.
         11    1    3    3    0    0  0.13063337231E+02 -0.37086144716E+01  0.15918244922E+01  0.13672545717E+02  0.51100000000E-03 0. -1.
        -11    1    3    3    0    0 -0.79416360414E+01  0.17932601171E+02  0.10127766566E+02  0.22073047448E+02  0.51100000000E-03 0.  1.
        -12    1    3    3    0    0 -0.17890169912E+02 -0.25834764666E+02 -0.18988545412E+02  0.36715910743E+02  0.00000000000E+00 0.  1.
</event>
<event>
 7    1  0.3509180E-013  0.7246160E+02  0.7816164E-02  0.1226708E+00
        -11   -1    0    0    0    0  0.00000000000E+00  0.00000000000E+00  0.45593999997E+02  0.45594000000E+02  0.51100000000E-03 0.  1.
         11   -1    0    0    0    0 -0.00000000000E+00 -0.00000000000E+00 -0.45593999997E+02  0.45594000000E+02  0.51100000000E-03 0. -1.
    9900012    2    1    2    0    0 -0.14160661000E+02  0.34129445652E+00 -0.12248976637E+02  0.72461595366E+02  0.70000032660E+02 0.  0.
        -12    1    1    2    0    0  0.14160661000E+02 -0.34129445652E+00  0.12248976637E+02  0.18726404634E+02  0.00000000000E+00 0.  1.
         11    1    3    3    0    0 -0.17197438506E+02 -0.22277942396E+02  0.86688388921E+00  0.28156883644E+02  0.51100000000E-03 0. -1.
        -11    1    3    3    0    0  0.76995740164E+01  0.28919928869E+01 -0.21001111610E+02  0.22554240222E+02  0.51100000000E-03 0.  1.
        -12    1    3    3    0    0 -0.46627965106E+01  0.19727243966E+02  0.78852510840E+01  0.21750471500E+02  0.00000000000E+00 0.  1.
</event>
<event>
 7    1  0.3509180E-013  0.7246163E+02  0.7816164E-02  0.1226708E+00
        -11   -1    0    0    0    0  0.00000000000E+00  0.00000000000E+00  0.45593999997E+02  0.45594000000E+02  0.51100000000E-03 0. -1.
         11   -1    0    0    0    0 -0.00000000000E+00 -0.00000000000E+00 -0.45593999997E+02  0.45594000000E+02  0.51100000000E-03 0.  1.
    9900012    2    1    2    0    0  0.87695160030E+01 -0.13061489217E+02  0.10157273083E+02  0.72461625338E+02  0.70000071705E+02 0.  0.
        -12    1    1    2    0    0 -0.87695160030E+01  0.13061489217E+02 -0.10157273083E+02  0.18726374662E+02  0.00000000000E+00 0.  1.
         11    1    3    3    0    0 -0.52779559553E+00 -0.57891582788E+01  0.79931476524E+01  0.98834878166E+01  0.51100000000E-03 0. -1.
        -11    1    3    3    0    0 -0.13144303482E+02  0.79752078006E+01 -0.21598592394E+02  0.26511805806E+02  0.51100000000E-03 0.  1.
         12    1    3    3    0    0  0.22441615080E+02 -0.15247538739E+02  0.23762717824E+02  0.36066331715E+02  0.00000000000E+00 0. -1.
</event>
<event>
 7    1  0.3509180E-013  0.7246152E+02  0.7816164E-02  0.1226708E+00
        -11   -1    0    0    0    0  0.00000000000E+00  0.00000000000E+00  0.45593999997E+02  0.45594000000E+02  0.51100000000E-03 0. -1.
         11   -1    0    0    0    0 -0.00000000000E+00 -0.00000000000E+00 -0.45593999997E+02  0.45594000000E+02  0.51100000000E-03 0.  1.
    9900012    2    1    2    0    0 -0.16248847280E+02 -0.44963871444E+01  0.81509721740E+01  0.72461524553E+02  0.69999940413E+02 0.  0.
        -12    1    1    2    0    0  0.16248847280E+02  0.44963871444E+01 -0.81509721740E+01  0.18726475447E+02  0.00000000000E+00 0.  1.
         11    1    3    3    0    0 -0.30828705600E+02  0.80338051915E+01  0.16690743976E+01  0.31901989349E+02  0.51100000000E-03 0. -1.
        -11    1    3    3    0    0 -0.69336611908E+01  0.35878945495E+01  0.10807240106E+02  0.13332107252E+02  0.51100000000E-03 0.  1.
        -12    1    3    3    0    0  0.21513519511E+02 -0.16118086885E+02 -0.43253423295E+01  0.27227427951E+02  0.00000000000E+00 0.  1.
</event>
<event>
 7    1  0.3509180E-013  0.7246156E+02  0.7816164E-02  0.1226708E+00
        -11   -1    0    0    0    0  0.00000000000E+00  0.00000000000E+00  0.45593999997E+02  0.45594000000E+02  0.51100000000E-03 0.  1.
         11   -1    0    0    0    0 -0.00000000000E+00 -0.00000000000E+00 -0.45593999997E+02  0.45594000000E+02  0.51100000000E-03 0. -1.
    9900012    2    1    2    0    0  0.14038470351E+02  0.10173496573E+02 -0.70781873599E+01  0.72461563643E+02  0.69999991336E+02 0.  0.
        -12    1    1    2    0    0 -0.14038470351E+02 -0.10173496573E+02  0.70781873599E+01  0.18726436357E+02  0.00000000000E+00 0.  1.
         11    1    3    3    0    0  0.16582951411E+02  0.11197924683E+02  0.85681797013E+00  0.20028028660E+02  0.51100000000E-03 0. -1.
        -11    1    3    3    0    0  0.10230895118E+02  0.17144357685E+01  0.19476823953E+02  0.22067106210E+02  0.51100000000E-03 0.  1.
        -12    1    3    3    0    0 -0.12775376178E+02 -0.27388638778E+01 -0.27411829283E+02  0.30366428774E+02  0.00000000000E+00 0.  1.
</event>
<event>
 7    1  0.3509180E-013  0.7246156E+02  0.7816164E-02  0.1226708E+00
        -11   -1    0    0    0    0  0.00000000000E+00  0.00000000000E+00  0.45593999997E+02  0.45594000000E+02  0.51100000000E-03 0.  1.
         11   -1    0    0    0    0 -0.00000000000E+00 -0.00000000000E+00 -0.45593999997E+02  0.45594000000E+02  0.51100000000E-03 0. -1.
    9900012    2    1    2    0    0 -0.14620132888E+02 -0.50734028868E+01  0.10544748062E+02  0.72461563761E+02  0.69999991489E+02 0.  0.
        -12    1    1    2    0    0  0.14620132888E+02  0.50734028868E+01 -0.10544748062E+02  0.18726436239E+02  0.00000000000E+00 0.  1.
         11    1    3    3    0    0 -0.42485974941E+00 -0.59842536412E+01  0.12965317983E+02  0.14286051523E+02  0.51100000000E-03 0. -1.
        -11    1    3    3    0    0  0.20929395863E+02 -0.55093350416E+01  0.36755342720E+01  0.21952264945E+02  0.51100000000E-03 0.  1.
        -12    1    3    3    0    0 -0.35124669002E+02  0.64201857959E+01 -0.60961041929E+01  0.36223247293E+02  0.00000000000E+00 0.  1.
</event>
<event>
 7    1  0.4394417E-013  0.7246218E+02  0.7816164E-02  0.1226706E+00
        -11   -1    0    0    0    0  0.00000000000E+00  0.00000000000E+00  0.45593999997E+02  0.45594000000E+02  0.51100000000E-03 0. -1.
         11   -1    0    0    0    0 -0.00000000000E+00 -0.00000000000E+00 -0.45593999997E+02  0.45594000000E+02  0.51100000000E-03 0.  1.
    9900012    2    1    2    0    0  0.64903378834E+01  0.18899546544E+01  0.17463101141E+02  0.72462180501E+02  0.70000794903E+02 0.  0.
        -12    1    1    2    0    0 -0.64903378834E+01 -0.18899546544E+01 -0.17463101141E+02  0.18725819499E+02  0.00000000000E+00 0.  1.
         11    1    3    3    0    0  0.16879814324E+02 -0.10510808291E+02  0.25553236367E+02  0.32378590328E+02  0.51100000000E-03 0. -1.
        -11    1    3    3    0    0  0.10674291356E+02 -0.23856521029E+01  0.40045425181E+01  0.11647668992E+02  0.51100000000E-03 0.  1.
        -12    1    3    3    0    0 -0.21063767796E+02  0.14786415048E+02 -0.12094677744E+02  0.28435921182E+02  0.00000000000E+00 0.  1.
</event>
<event>
 7    1  0.3509180E-013  0.7246157E+02  0.7816164E-02  0.1226708E+00
        -11   -1    0    0    0    0  0.00000000000E+00  0.00000000000E+00  0.45593999997E+02  0.45594000000E+02  0.51100000000E-03 0.  1.
         11   -1    0    0    0    0 -0.00000000000E+00 -0.00000000000E+00 -0.45593999997E+02  0.45594000000E+02  0.51100000000E-03 0. -1.
    9900012    2    1    2    0    0 -0.38039202646E+01 -0.13135457612E+02 -0.12793322110E+02  0.72461570904E+02  0.70000000795E+02 0.  0.
        -12    1    1    2    0    0  0.38039202646E+01  0.13135457612E+02  0.12793322110E+02  0.18726429096E+02  0.00000000000E+00 0.  1.
         11    1    3    3    0    0  0.30816367235E+02 -0.11421500962E+02  0.11399185784E+01  0.32884625411E+02  0.51100000000E-03 0. -1.
        -11    1    3    3    0    0 -0.64815505249E+00 -0.29734584510E+01 -0.97758757842E+00  0.31964414380E+01  0.51100000000E-03 0.  1.
        -12    1    3    3    0    0 -0.33972132447E+02  0.12595018009E+01 -0.12955653110E+02  0.36380504055E+02  0.00000000000E+00 0.  1.
</event>
<event>
 7    1  0.3509180E-013  0.7246159E+02  0.7816164E-02  0.1226708E+00
        -11   -1    0    0    0    0  0.00000000000E+00  0.00000000000E+00  0.45593999997E+02  0.45594000000E+02  0.51100000000E-03 0.  1.
         11   -1    0    0    0    0 -0.00000000000E+00 -0.00000000000E+00 -0.45593999997E+02  0.45594000000E+02  0.51100000000E-03 0. -1.
    9900012    2    1    2    0    0  0.88327137881E+01  0.16009068641E+02 -0.40461534903E+01  0.72461588980E+02  0.70000024342E+02 0.  0.
        -12    1    1    2    0    0 -0.88327137881E+01 -0.16009068641E+02  0.40461534903E+01  0.18726411020E+02  0.00000000000E+00 0.  1.
         11    1    3    3    0    0  0.72599001368E+01  0.35975423897E+00  0.11561314308E+02  0.13656484244E+02  0.51100000000E-03 0.  1.
        -11    1    3    3    0    0 -0.24230280889E+02  0.56224752660E+01  0.35694071500E+01  0.25128856077E+02  0.51100000000E-03 0. -1.
         12    1    3    3    0    0  0.25803094541E+02  0.10026839136E+02 -0.19176874948E+02  0.33676248659E+02  0.00000000000E+00 0. -1.
</event>
<event>
 7    1  0.3509180E-013  0.7246157E+02  0.7816164E-02  0.1226708E+00
        -11   -1    0    0    0    0  0.00000000000E+00  0.00000000000E+00  0.45593999997E+02  0.45594000000E+02  0.51100000000E-03 0.  1.
         11   -1    0    0    0    0 -0.00000000000E+00 -0.00000000000E+00 -0.45593999997E+02  0.45594000000E+02  0.51100000000E-03 0. -1.
    9900012    2    1    2    0    0 -0.61275434120E+01 -0.12003034671E+02  0.13002283493E+02  0.72461574671E+02  0.70000005701E+02 0.  0.
        -12    1    1    2    0    0  0.61275434120E+01  0.12003034671E+02 -0.13002283493E+02  0.18726425329E+02  0.00000000000E+00 0.  1.
         11    1    3    3    0    0 -0.85199301831E+01 -0.27298673883E+02 -0.15115040060E+02  0.32346116342E+02  0.51100000000E-03 0.  1.
        -11    1    3    3    0    0 -0.90596385120E+01  0.43754653438E-01  0.57945243661E+01  0.10754323657E+02  0.51100000000E-03 0. -1.
        -12    1    3    3    0    0  0.11452025283E+02  0.15251884559E+02  0.22322799187E+02  0.29361134672E+02  0.00000000000E+00 0.  1.
</event>
<event>
 7    1  0.3509180E-013  0.7246163E+02  0.7816164E-02  0.1226708E+00
        -11   -1    0    0    0    0  0.00000000000E+00  0.00000000000E+00  0.45593999997E+02  0.45594000000E+02  0.51100000000E-03 0. -1.
         11   -1    0    0    0    0 -0.00000000000E+00 -0.00000000000E+00 -0.45593999997E+02  0.45594000000E+02  0.51100000000E-03 0.  1.
    9900012    2    1    2    0    0  0.16645290800E+02  0.85569699668E+01  0.62404355704E+00  0.72461631660E+02  0.70000079940E+02 0.  0.
        -12    1    1    2    0    0 -0.16645290800E+02 -0.85569699668E+01 -0.62404355704E+00  0.18726368340E+02  0.00000000000E+00 0.  1.
         11    1    3    3    0    0 -0.88232282270E+00  0.14638931199E+02  0.91166246579E+00  0.14693805801E+02  0.51100000000E-03 0. -1.
        -11    1    3    3    0    0  0.24142369114E+02  0.17958142690E+02 -0.89181542616E+01  0.31382835292E+02  0.51100000000E-03 0.  1.
        -12    1    3    3    0    0 -0.66147554904E+01 -0.24040103921E+02  0.86305353528E+01  0.26384990567E+02  0.00000000000E+00 0.  1.
</event>
<event>
 7    1  0.3509180E-013  0.7246159E+02  0.7816164E-02  0.1226708E+00
        -11   -1    0    0    0    0  0.00000000000E+00  0.00000000000E+00  0.45593999997E+02  0.45594000000E+02  0.51100000000E-03 0.  1.
         11   -1    0    0    0    0 -0.00000000000E+00 -0.00000000000E+00 -0.45593999997E+02  0.45594000000E+02  0.51100000000E-03 0. -1.
    9900012    2    1    2    0    0 -0.95113913973E+01  0.29317772480E+01 -0.15862420690E+02  0.72461594197E+02  0.70000031137E+02 0.  0.
        -12    1    1    2    0    0  0.95113913973E+01 -0.29317772480E+01  0.15862420690E+02  0.18726405803E+02  0.00000000000E+00 0.  1.
         11    1    3    3    0    0  0.11298777568E+02 -0.10761091139E+01  0.25012795591E+01  0.11622253871E+02  0.51100000000E-03 0. -1.
        -11    1    3    3    0    0  0.43465172948E+01 -0.16487251653E+02  0.81854833266E+01  0.18913588163E+02  0.51100000000E-03 0.  1.
         12    1    3    3    0    0 -0.25156686260E+02  0.20495138015E+02 -0.26549183576E+02  0.41925752162E+02  0.00000000000E+00 0. -1.
</event>
<event>
 7    1  0.3509180E-013  0.7246164E+02  0.7816164E-02  0.1226708E+00
        -11   -1    0    0    0    0  0.00000000000E+00  0.00000000000E+00  0.45593999997E+02  0.45594000000E+02  0.51100000000E-03 0.  1.
         11   -1    0    0    0    0 -0.00000000000E+00 -0.00000000000E+00 -0.45593999997E+02  0.45594000000E+02  0.51100000000E-03 0. -1.
    9900012    2    1    2    0    0  0.60900450898E+01 -0.15181676706E+01 -0.17643211445E+02  0.72461644445E+02  0.70000096595E+02 0.  0.
        -12    1    1    2    0    0 -0.60900450898E+01  0.15181676706E+01  0.17643211445E+02  0.18726355555E+02  0.00000000000E+00 0.  1.
         11    1    3    3    0    0 -0.17321285265E+01  0.22167604930E+02  0.48717681660E+01  0.22762625132E+02  0.51100000000E-03 0. -1.
        -11    1    3    3    0    0 -0.14067588607E+02 -0.11486938071E+02 -0.41477761155E+01  0.18629300643E+02  0.51100000000E-03 0.  1.
         12    1    3    3    0    0  0.21889762223E+02 -0.12198834529E+02 -0.18367203496E+02  0.31069718671E+02  0.00000000000E+00 0. -1.
</event>
<event>
 7    1  0.3509180E-013  0.7246159E+02  0.7816164E-02  0.1226708E+00
        -11   -1    0    0    0    0  0.00000000000E+00  0.00000000000E+00  0.45593999997E+02  0.45594000000E+02  0.51100000000E-03 0.  1.
         11   -1    0    0    0    0 -0.00000000000E+00 -0.00000000000E+00 -0.45593999997E+02  0.45594000000E+02  0.51100000000E-03 0. -1.
    9900012    2    1    2    0    0  0.47460739647E+01 -0.13925177546E+02 -0.11586307805E+02  0.72461593075E+02  0.70000029675E+02 0.  0.
        -12    1    1    2    0    0 -0.47460739647E+01  0.13925177546E+02  0.11586307805E+02  0.18726406925E+02  0.00000000000E+00 0.  1.
         11    1    3    3    0    0  0.13794910049E+02  0.13052237882E+02  0.11335822541E+01  0.19024864415E+02  0.51100000000E-03 0.  1.
        -11    1    3    3    0    0 -0.24535682975E+02 -0.53660323865E+01 -0.85089280473E+01  0.26517841152E+02  0.51100000000E-03 0. -1.
         12    1    3    3    0    0  0.15486846890E+02 -0.21611383042E+02 -0.42109620120E+01  0.26918887508E+02  0.00000000000E+00 0. -1.
</event>
<event>
 7    1  0.3509180E-013  0.7246160E+02  0.7816164E-02  0.1226708E+00
        -11   -1    0    0    0    0  0.00000000000E+00  0.00000000000E+00  0.45593999997E+02  0.45594000000E+02  0.51100000000E-03 0.  1.
         11   -1    0    0    0    0 -0.00000000000E+00 -0.00000000000E+00 -0.45593999997E+02  0.45594000000E+02  0.51100000000E-03 0. -1.
    9900012    2    1    2    0    0 -0.54188625599E+01 -0.42176780297E+01 -0.17421975896E+02  0.72461598222E+02  0.70000036381E+02 0.  0.
        -12    1    1    2    0    0  0.54188625599E+01  0.42176780297E+01  0.17421975896E+02  0.18726401778E+02  0.00000000000E+00 0.  1.
         11    1    3    3    0    0 -0.43882728533E+01 -0.72932757163E+01 -0.54636323057E+01  0.10114350574E+02  0.51100000000E-03 0. -1.
        -11    1    3    3    0    0 -0.98365740729E+01 -0.22024652926E+02 -0.23201414512E+02  0.33468629515E+02  0.51100000000E-03 0.  1.
        -12    1    3    3    0    0  0.88059843664E+01  0.25100250613E+02  0.11243070921E+02  0.28878618132E+02  0.00000000000E+00 0.  1.
</event>
<event>
 7    1  0.3509180E-013  0.7246145E+02  0.7816164E-02  0.1226708E+00
        -11   -1    0    0    0    0  0.00000000000E+00  0.00000000000E+00  0.45593999997E+02  0.45594000000E+02  0.51100000000E-03 0. -1.
         11   -1    0    0    0    0 -0.00000000000E+00 -0.00000000000E+00 -0.45593999997E+02  0.45594000000E+02  0.51100000000E-03 0.  1.
    9900012    2    1    2    0    0 -0.45036588803E+01 -0.16902698571E+02  0.66857627385E+01  0.72461452382E+02  0.69999846397E+02 0.  0.
        -12    1    1    2    0    0  0.45036588803E+01  0.16902698571E+02 -0.66857627385E+01  0.18726547618E+02  0.00000000000E+00 0.  1.
         11    1    3    3    0    0 -0.23275619052E+02  0.18101722489E+02  0.92003717094E+01  0.30888082478E+02  0.51100000000E-03 0. -1.
        -11    1    3    3    0    0 -0.67009398966E+00 -0.49677575095E+01  0.22187429059E+01  0.54818300750E+01  0.51100000000E-03 0.  1.
        -12    1    3    3    0    0  0.19442054161E+02 -0.30036663550E+02 -0.47333518767E+01  0.36091539829E+02  0.00000000000E+00 0.  1.
</event>
<event>
 7    1  0.3509180E-013  0.7246157E+02  0.7816164E-02  0.1226708E+00
        -11   -1    0    0    0    0  0.00000000000E+00  0.00000000000E+00  0.45593999997E+02  0.45594000000E+02  0.51100000000E-03 0. -1.
         11   -1    0    0    0    0 -0.00000000000E+00 -0.00000000000E+00 -0.45593999997E+02  0.45594000000E+02  0.51100000000E-03 0.  1.
    9900012    2    1    2    0    0 -0.18547876914E+02 -0.25794998016E+01 -0.38175229377E-01  0.72461574431E+02  0.70000005389E+02 0.  0.
        -12    1    1    2    0    0  0.18547876914E+02  0.25794998016E+01  0.38175229377E-01  0.18726425569E+02  0.00000000000E+00 0.  1.
         11    1    3    3    0    0  0.13959682303E+02  0.11458265379E+02 -0.12725689625E+02  0.22093160756E+02  0.51100000000E-03 0. -1.
        -11    1    3    3    0    0 -0.67253221379E+01  0.10892880607E+02  0.20920902483E+01  0.12971570747E+02  0.51100000000E-03 0.  1.
         12    1    3    3    0    0 -0.25782237079E+02 -0.24930645787E+02  0.10595424147E+02  0.37396842928E+02  0.00000000000E+00 0. -1.
</event>
<event>
 7    1  0.3509180E-013  0.7246159E+02  0.7816164E-02  0.1226708E+00
        -11   -1    0    0    0    0  0.00000000000E+00  0.00000000000E+00  0.45593999997E+02  0.45594000000E+02  0.51100000000E-03 0.  1.
         11   -1    0    0    0    0 -0.00000000000E+00 -0.00000000000E+00 -0.45593999997E+02  0.45594000000E+02  0.51100000000E-03 0. -1.
    9900012    2    1    2    0    0  0.10118805491E+02 -0.87874328849E+01 -0.13079348962E+02  0.72461586287E+02  0.70000020834E+02 0.  0.
        -12    1    1    2    0    0 -0.10118805491E+02  0.87874328849E+01  0.13079348962E+02  0.18726413713E+02  0.00000000000E+00 0.  1.
         11    1    3    3    0    0  0.16546444381E+02  0.14488161912E+02 -0.14136685846E+02  0.26144550947E+02  0.51100000000E-03 0. -1.
        -11    1    3    3    0    0  0.13607147689E+02  0.16786249153E+01  0.37165017604E+01  0.14205091884E+02  0.51100000000E-03 0.  1.
        -12    1    3    3    0    0 -0.20034786579E+02 -0.24954219712E+02 -0.26591648758E+01  0.32111943456E+02  0.00000000000E+00 0.  1.
</event>
<event>
 7    1  0.3509180E-013  0.7246123E+02  0.7816164E-02  0.1226709E+00
        -11   -1    0    0    0    0  0.00000000000E+00  0.00000000000E+00  0.45593999997E+02  0.45594000000E+02  0.51100000000E-03 0.  1.
         11   -1    0    0    0    0 -0.00000000000E+00 -0.00000000000E+00 -0.45593999997E+02  0.45594000000E+02  0.51100000000E-03 0. -1.
    9900012    2    1    2    0    0  0.11993578208E+02 -0.24050082669E+01 -0.14179629559E+02  0.72461230994E+02  0.69999557996E+02 0.  0.
        -12    1    1    2    0    0 -0.11993578208E+02  0.24050082669E+01  0.14179629559E+02  0.18726769006E+02  0.00000000000E+00 0.  1.
         11    1    3    3    0    0  0.62918678732E+01 -0.25557049488E+02  0.18762417372E+01  0.26386941149E+02  0.51100000000E-03 0. -1.
        -11    1    3    3    0    0  0.69710574922E+01  0.19398120996E+02  0.76897085167E+01  0.22000326317E+02  0.51100000000E-03 0.  1.
         12    1    3    3    0    0 -0.12693471576E+01  0.37539202254E+01 -0.23745579813E+02  0.24073963527E+02  0.00000000000E+00 0. -1.
</event>
<event>
 7    1  0.3509180E-013  0.7246159E+02  0.7816164E-02  0.1226708E+00
        -11   -1    0    0    0    0  0.00000000000E+00  0.00000000000E+00  0.45593999997E+02  0.45594000000E+02  0.51100000000E-03 0.  1.
         11   -1    0    0    0    0 -0.00000000000E+00 -0.00000000000E+00 -0.45593999997E+02  0.45594000000E+02  0.51100000000E-03 0. -1.
    9900012    2    1    2    0    0 -0.13921636792E+02  0.11367936681E+02 -0.52570328058E+01  0.72461592195E+02  0.70000028530E+02 0.  0.
        -12    1    1    2    0    0  0.13921636792E+02 -0.11367936681E+02  0.52570328058E+01  0.18726407805E+02  0.00000000000E+00 0.  1.
         11    1    3    3    0    0 -0.29175530742E+02  0.84901481260E+00  0.88419204960E+01  0.30497737269E+02  0.51100000000E-03 0. -1.
        -11    1    3    3    0    0  0.57751538912E+01 -0.10298073505E+02  0.43446241743E+01  0.12580877548E+02  0.51100000000E-03 0.  1.
        -12    1    3    3    0    0  0.94787400589E+01  0.20816995374E+02 -0.18443577476E+02  0.29382977378E+02  0.00000000000E+00 0.  1.
</event>
<event>
 7    1  0.3509180E-013  0.7246155E+02  0.7816164E-02  0.1226708E+00
        -11   -1    0    0    0    0  0.00000000000E+00  0.00000000000E+00  0.45593999997E+02  0.45594000000E+02  0.51100000000E-03 0. -1.
         11   -1    0    0    0    0 -0.00000000000E+00 -0.00000000000E+00 -0.45593999997E+02  0.45594000000E+02  0.51100000000E-03 0.  1.
    9900012    2    1    2    0    0  0.15015196476E+02  0.79871325732E+01 -0.78376927778E+01  0.72461552391E+02  0.69999976678E+02 0.  0.
        -12    1    1    2    0    0 -0.15015196476E+02 -0.79871325732E+01  0.78376927778E+01  0.18726447609E+02  0.00000000000E+00 0.  1.
         11    1    3    3    0    0 -0.11610886827E+02 -0.47451970242E+01  0.10455371234E+02  0.16329249082E+02  0.51100000000E-03 0. -1.
        -11    1    3    3    0    0  0.86033502137E+01 -0.15777895610E+02 -0.12545844258E+02  0.21917067166E+02  0.51100000000E-03 0.  1.
        -12    1    3    3    0    0  0.18022733089E+02  0.28510225207E+02 -0.57472197536E+01  0.34215236142E+02  0.00000000000E+00 0.  1.
</event>
<event>
 7    1  0.3509180E-013  0.7246161E+02  0.7816164E-02  0.1226708E+00
        -11   -1    0    0    0    0  0.00000000000E+00  0.00000000000E+00  0.45593999997E+02  0.45594000000E+02  0.51100000000E-03 0.  1.
         11   -1    0    0    0    0 -0.00000000000E+00 -0.00000000000E+00 -0.45593999997E+02  0.45594000000E+02  0.51100000000E-03 0. -1.
    9900012    2    1    2    0    0  0.11183407254E+01 -0.77096522670E+01 -0.17029043561E+02  0.72461608232E+02  0.70000049420E+02 0.  0.
        -12    1    1    2    0    0 -0.11183407254E+01  0.77096522670E+01  0.17029043561E+02  0.18726391768E+02  0.00000000000E+00 0.  1.
         11    1    3    3    0    0  0.49819485297E+01  0.14096259968E+01  0.58920557740E+01  0.78436712137E+01  0.51100000000E-03 0. -1.
        -11    1    3    3    0    0  0.20766654957E+00 -0.21572724023E+02  0.13813215061E+02  0.25616995487E+02  0.51100000000E-03 0.  1.
         12    1    3    3    0    0 -0.40712743539E+01  0.12453445760E+02 -0.36734314396E+02  0.39000941531E+02  0.00000000000E+00 0. -1.
</event>
<event>
 7    1  0.3509180E-013  0.7246154E+02  0.7816164E-02  0.1226708E+00
        -11   -1    0    0    0    0  0.00000000000E+00  0.00000000000E+00  0.45593999997E+02  0.45594000000E+02  0.51100000000E-03 0. -1.
         11   -1    0    0    0    0 -0.00000000000E+00 -0.00000000000E+00 -0.45593999997E+02  0.45594000000E+02  0.51100000000E-03 0.  1.
    9900012    2    1    2    0    0 -0.17950704915E+02 -0.37060179486E+01 -0.38364055968E+01  0.72461537871E+02  0.69999957762E+02 0.  0.
        -12    1    1    2    0    0  0.17950704915E+02  0.37060179486E+01  0.38364055968E+01  0.18726462129E+02  0.00000000000E+00 0.  1.
         11    1    3    3    0    0 -0.15250056715E+02 -0.95570049470E+01  0.68458698858E+01  0.19255298183E+02  0.51100000000E-03 0. -1.
        -11    1    3    3    0    0  0.13665449777E+02  0.95472902067E+00 -0.26559644803E+02  0.29884289475E+02  0.51100000000E-03 0.  1.
         12    1    3    3    0    0 -0.16366097976E+02  0.48962579778E+01  0.15877369321E+02  0.23321950212E+02  0.00000000000E+00 0. -1.
</event>
<event>
 7    1  0.3509180E-013  0.7246157E+02  0.7816164E-02  0.1226708E+00
        -11   -1    0    0    0    0  0.00000000000E+00  0.00000000000E+00  0.45593999997E+02  0.45594000000E+02  0.51100000000E-03 0. -1.
         11   -1    0    0    0    0 -0.00000000000E+00 -0.00000000000E+00 -0.45593999997E+02  0.45594000000E+02  0.51100000000E-03 0.  1.
    9900012    2    1    2    0    0  0.10639903659E+02  0.51456246629E+01  0.14525643965E+02  0.72461565859E+02  0.69999994222E+02 0.  0.
        -12    1    1    2    0    0 -0.10639903659E+02 -0.51456246629E+01 -0.14525643965E+02  0.18726434141E+02  0.00000000000E+00 0.  1.
         11    1    3    3    0    0  0.60526943183E+01 -0.48468435545E+01  0.40820442860E+01  0.87629953079E+01  0.51100000000E-03 0. -1.
        -11    1    3    3    0    0 -0.18449555912E+02 -0.12970847101E+02 -0.10639450858E+02  0.24936457300E+02  0.51100000000E-03 0.  1.
         12    1    3    3    0    0  0.23036765253E+02  0.22963315319E+02  0.21083050537E+02  0.38762113251E+02  0.00000000000E+00 0. -1.
</event>
<event>
 7    1  0.3509180E-013  0.7246158E+02  0.7816164E-02  0.1226708E+00
        -11   -1    0    0    0    0  0.00000000000E+00  0.00000000000E+00  0.45593999997E+02  0.45594000000E+02  0.51100000000E-03 0. -1.
         11   -1    0    0    0    0 -0.00000000000E+00 -0.00000000000E+00 -0.45593999997E+02  0.45594000000E+02  0.51100000000E-03 0.  1.
    9900012    2    1    2    0    0 -0.20545537558E+01  0.16491935618E+02 -0.86298200072E+01  0.72461576825E+02  0.70000008507E+02 0.  0.
        -12    1    1    2    0    0  0.20545537558E+01 -0.16491935618E+02  0.86298200072E+01  0.18726423175E+02  0.00000000000E+00 0.  1.
         11    1    3    3    0    0 -0.24454568137E+02  0.19688989876E+02  0.63393247793E+01  0.32029193933E+02  0.51100000000E-03 0. -1.
        -11    1    3    3    0    0 -0.60447786962E+01 -0.30326786551E+01 -0.91830507124E+01  0.11404600386E+02  0.51100000000E-03 0.  1.
        -12    1    3    3    0    0  0.28444793078E+02 -0.16437560229E+00 -0.57860940741E+01  0.29027782506E+02  0.00000000000E+00 0.  1.
</event>
<event>
 7    1  0.3509180E-013  0.7246184E+02  0.7816164E-02  0.1226707E+00
        -11   -1    0    0    0    0  0.00000000000E+00  0.00000000000E+00  0.45593999997E+02  0.45594000000E+02  0.51100000000E-03 0.  1.
         11   -1    0    0    0    0 -0.00000000000E+00 -0.00000000000E+00 -0.45593999997E+02  0.45594000000E+02  0.51100000000E-03 0. -1.
    9900012    2    1    2    0    0 -0.11554545347E+02 -0.45511549996E+01 -0.14016014640E+02  0.72461836581E+02  0.70000346887E+02 0.  0.
        -12    1    1    2    0    0  0.11554545347E+02  0.45511549996E+01  0.14016014640E+02  0.18726163419E+02  0.00000000000E+00 0.  1.
         11    1    3    3    0    0 -0.27242247280E+02  0.14560402513E+02  0.13032094280E+02  0.33525823476E+02  0.51100000000E-03 0. -1.
        -11    1    3    3    0    0  0.21783816888E+00 -0.96338495671E+01 -0.70844918748E+01  0.11960289977E+02  0.51100000000E-03 0.  1.
        -12    1    3    3    0    0  0.15469863764E+02 -0.94777079450E+01 -0.19963617045E+02  0.26975723128E+02  0.00000000000E+00 0.  1.
</event>
<event>
 7    1  0.3509180E-013  0.7246150E+02  0.7816164E-02  0.1226708E+00
        -11   -1    0    0    0    0  0.00000000000E+00  0.00000000000E+00  0.45593999997E+02  0.45594000000E+02  0.51100000000E-03 0.  1.
         11   -1    0    0    0    0 -0.00000000000E+00 -0.00000000000E+00 -0.45593999997E+02  0.45594000000E+02  0.51100000000E-03 0. -1.
    9900012    2    1    2    0    0  0.17949468915E+02  0.40088036478E+01 -0.35252944894E+01  0.72461504272E+02  0.69999913994E+02 0.  0.
        -12    1    1    2    0    0 -0.17949468915E+02 -0.40088036478E+01  0.35252944894E+01  0.18726495728E+02  0.00000000000E+00 0.  1.
         11    1    3    3    0    0 -0.59378342785E+01  0.14587177258E+01  0.63446082927E-01  0.61147165910E+01  0.51100000000E-03 0. -1.
        -11    1    3    3    0    0  0.69251383539E+01  0.31439156728E+02  0.25294344823E+01  0.32292044780E+02  0.51100000000E-03 0.  1.
         12    1    3    3    0    0  0.16962164839E+02 -0.28889070806E+02 -0.61181750546E+01  0.34054742901E+02  0.00000000000E+00 0. -1.
</event>
<event>
 7    1  0.3509180E-013  0.7246158E+02  0.7816164E-02  0.1226708E+00
        -11   -1    0    0    0    0  0.00000000000E+00  0.00000000000E+00  0.45593999997E+02  0.45594000000E+02  0.51100000000E-03 0. -1.
         11   -1    0    0    0    0 -0.00000000000E+00 -0.00000000000E+00 -0.45593999997E+02  0.45594000000E+02  0.51100000000E-03 0.  1.
    9900012    2    1    2    0    0  0.40029719842E+00  0.80581446265E+01  0.16899251754E+02  0.72461584365E+02  0.70000018330E+02 0.  0.
        -12    1    1    2    0    0 -0.40029719842E+00 -0.80581446265E+01 -0.16899251754E+02  0.18726415635E+02  0.00000000000E+00 0.  1.
         11    1    3    3    0    0 -0.19492009317E+01 -0.53026331592E+01  0.48099112379E+01  0.74197404989E+01  0.51100000000E-03 0. -1.
        -11    1    3    3    0    0 -0.18356252340E+02 -0.15949520865E+02 -0.57175028334E+01  0.24980573547E+02  0.51100000000E-03 0.  1.
        -12    1    3    3    0    0  0.20705750470E+02  0.29310298651E+02  0.17806843350E+02  0.40061270320E+02  0.00000000000E+00 0.  1.
</event>
<event>
 7    1  0.3509180E-013  0.7246155E+02  0.7816164E-02  0.1226708E+00
        -11   -1    0    0    0    0  0.00000000000E+00  0.00000000000E+00  0.45593999997E+02  0.45594000000E+02  0.51100000000E-03 0.  1.
         11   -1    0    0    0    0 -0.00000000000E+00 -0.00000000000E+00 -0.45593999997E+02  0.45594000000E+02  0.51100000000E-03 0. -1.
    9900012    2    1    2    0    0 -0.10756600452E+02 -0.15065008935E+02 -0.28321406270E+01  0.72461548974E+02  0.69999972227E+02 0.  0.
        -12    1    1    2    0    0  0.10756600452E+02  0.15065008935E+02  0.28321406270E+01  0.18726451026E+02  0.00000000000E+00 0.  1.
         11    1    3    3    0    0  0.16602723309E+02  0.58405927781E+01 -0.14460340004E+02  0.22778594745E+02  0.51100000000E-03 0.  1.
        -11    1    3    3    0    0  0.84822015466E+00 -0.14464538459E+02 -0.61317790963E+01  0.15733437812E+02  0.51100000000E-03 0. -1.
        -12    1    3    3    0    0 -0.28207543915E+02 -0.64410632546E+01  0.17759978473E+02  0.33949516417E+02  0.00000000000E+00 0.  1.
</event>
<event>
 7    1  0.3509180E-013  0.7246158E+02  0.7816164E-02  0.1226708E+00
        -11   -1    0    0    0    0  0.00000000000E+00  0.00000000000E+00  0.45593999997E+02  0.45594000000E+02  0.51100000000E-03 0. -1.
         11   -1    0    0    0    0 -0.00000000000E+00 -0.00000000000E+00 -0.45593999997E+02  0.45594000000E+02  0.51100000000E-03 0.  1.
    9900012    2    1    2    0    0  0.78440975497E+01 -0.76610620279E+01  0.15180813352E+02  0.72461579312E+02  0.70000011747E+02 0.  0.
        -12    1    1    2    0    0 -0.78440975497E+01  0.76610620279E+01 -0.15180813352E+02  0.18726420688E+02  0.00000000000E+00 0.  1.
         11    1    3    3    0    0 -0.39583770347E+01  0.14282738366E+01  0.15104095540E+02  0.15679362782E+02  0.51100000000E-03 0. -1.
        -11    1    3    3    0    0  0.30912001182E+02 -0.10682557613E+02  0.11252494943E+02  0.34587389277E+02  0.51100000000E-03 0.  1.
         12    1    3    3    0    0 -0.19109526598E+02  0.15932217490E+01 -0.11175777131E+02  0.22194827254E+02  0.00000000000E+00 0. -1.
</event>
<event>
 7    1  0.3509180E-013  0.7246156E+02  0.7816164E-02  0.1226708E+00
        -11   -1    0    0    0    0  0.00000000000E+00  0.00000000000E+00  0.45593999997E+02  0.45594000000E+02  0.51100000000E-03 0.  1.
         11   -1    0    0    0    0 -0.00000000000E+00 -0.00000000000E+00 -0.45593999997E+02  0.45594000000E+02  0.51100000000E-03 0. -1.
    9900012    2    1    2    0    0 -0.17310016514E+02  0.14238278520E+00 -0.71430070738E+01  0.72461561614E+02  0.69999988692E+02 0.  0.
        -12    1    1    2    0    0  0.17310016514E+02 -0.14238278520E+00  0.71430070738E+01  0.18726438386E+02  0.00000000000E+00 0.  1.
         11    1    3    3    0    0 -0.18378765718E+01 -0.13838444880E+02 -0.51108320915E+01  0.14866100763E+02  0.51100000000E-03 0. -1.
        -11    1    3    3    0    0 -0.11370138857E+01 -0.18542800970E+02 -0.10104259341E+02  0.21147678962E+02  0.51100000000E-03 0.  1.
        -12    1    3    3    0    0 -0.14335126057E+02  0.32523628635E+02  0.80720843587E+01  0.36447781888E+02  0.00000000000E+00 0.  1.
</event>
<event>
 7    1  0.3509180E-013  0.7246156E+02  0.7816164E-02  0.1226708E+00
        -11   -1    0    0    0    0  0.00000000000E+00  0.00000000000E+00  0.45593999997E+02  0.45594000000E+02  0.51100000000E-03 0. -1.
         11   -1    0    0    0    0 -0.00000000000E+00 -0.00000000000E+00 -0.45593999997E+02  0.45594000000E+02  0.51100000000E-03 0.  1.
    9900012    2    1    2    0    0 -0.22340319385E+01  0.11544769631E+02 -0.14574186506E+02  0.72461561021E+02  0.69999987919E+02 0.  0.
        -12    1    1    2    0    0  0.22340319385E+01 -0.11544769631E+02  0.14574186506E+02  0.18726438979E+02  0.00000000000E+00 0.  1.
         11    1    3    3    0    0  0.18601889650E+01  0.19739153988E+01  0.32842305543E+01  0.42594384116E+01  0.51100000000E-03 0. -1.
        -11    1    3    3    0    0 -0.25918093893E+02 -0.11817485175E+02  0.63897186917E+01  0.29192962373E+02  0.51100000000E-03 0.  1.
         12    1    3    3    0    0  0.21823872989E+02  0.21388339408E+02 -0.24248135752E+02  0.39009160236E+02  0.00000000000E+00 0. -1.
</event>
<event>
 7    1  0.3509180E-013  0.7246168E+02  0.7816164E-02  0.1226708E+00
        -11   -1    0    0    0    0  0.00000000000E+00  0.00000000000E+00  0.45593999997E+02  0.45594000000E+02  0.51100000000E-03 0. -1.
         11   -1    0    0    0    0 -0.00000000000E+00 -0.00000000000E+00 -0.45593999997E+02  0.45594000000E+02  0.51100000000E-03 0.  1.
    9900012    2    1    2    0    0 -0.11422408323E+02  0.10109901513E+02  0.10862475783E+02  0.72461684275E+02  0.70000148481E+02 0.  0.
        -12    1    1    2    0    0  0.11422408323E+02 -0.10109901513E+02 -0.10862475783E+02  0.18726315725E+02  0.00000000000E+00 0.  1.
         11    1    3    3    0    0  0.24642724881E+02 -0.33784259567E+01  0.58265204425E+01  0.25546545603E+02  0.51100000000E-03 0. -1.
        -11    1    3    3    0    0 -0.24829417545E+01 -0.64873183723E+01  0.35784404570E+01  0.78138041814E+01  0.51100000000E-03 0.  1.
        -12    1    3    3    0    0 -0.33582191449E+02  0.19975645842E+02  0.14575148835E+01  0.39101334491E+02  0.00000000000E+00 0.  1.
</event>
<event>
 7    1  0.3509180E-013  0.7246161E+02  0.7816164E-02  0.1226708E+00
        -11   -1    0    0    0    0  0.00000000000E+00  0.00000000000E+00  0.45593999997E+02  0.45594000000E+02  0.51100000000E-03 0.  1.
         11   -1    0    0    0    0 -0.00000000000E+00 -0.00000000000E+00 -0.45593999997E+02  0.45594000000E+02  0.51100000000E-03 0. -1.
    9900012    2    1    2    0    0  0.53911423978E+01 -0.10088419920E+02 -0.14826906069E+02  0.72461607491E+02  0.70000048455E+02 0.  0.
        -12    1    1    2    0    0 -0.53911423978E+01  0.10088419920E+02  0.14826906069E+02  0.18726392509E+02  0.00000000000E+00 0.  1.
         11    1    3    3    0    0 -0.18704572401E+02 -0.15455235208E+02  0.20603176719E+01  0.24350980128E+02  0.51100000000E-03 0. -1.
        -11    1    3    3    0    0 -0.22067082278E+01 -0.78454873552E+00  0.98374567494E+01  0.10112399986E+02  0.51100000000E-03 0.  1.
         12    1    3    3    0    0  0.26302423027E+02  0.61513640236E+01 -0.26724680491E+02  0.37998227376E+02  0.00000000000E+00 0. -1.
</event>
<event>
 7    1  0.3509180E-013  0.7246159E+02  0.7816164E-02  0.1226708E+00
        -11   -1    0    0    0    0  0.00000000000E+00  0.00000000000E+00  0.45593999997E+02  0.45594000000E+02  0.51100000000E-03 0. -1.
         11   -1    0    0    0    0 -0.00000000000E+00 -0.00000000000E+00 -0.45593999997E+02  0.45594000000E+02  0.51100000000E-03 0.  1.
    9900012    2    1    2    0    0  0.59555820396E+01 -0.16626411756E+02 -0.62267205634E+01  0.72461586188E+02  0.70000020704E+02 0.  0.
        -12    1    1    2    0    0 -0.59555820396E+01  0.16626411756E+02  0.62267205634E+01  0.18726413812E+02  0.00000000000E+00 0.  1.
         11    1    3    3    0    0 -0.15242258046E+02 -0.28032620546E+01  0.81429946984E+01  0.17506943520E+02  0.51100000000E-03 0. -1.
        -11    1    3    3    0    0 -0.93479626878E+01 -0.18763114483E+02 -0.30392478025E+00  0.20965000407E+02  0.51100000000E-03 0.  1.
        -12    1    3    3    0    0  0.30545802774E+02  0.49399647823E+01 -0.14065790482E+02  0.33989642261E+02  0.00000000000E+00 0.  1.
</event>
<event>
 7    1  0.3509180E-013  0.7246158E+02  0.7816164E-02  0.1226708E+00
        -11   -1    0    0    0    0  0.00000000000E+00  0.00000000000E+00  0.45593999997E+02  0.45594000000E+02  0.51100000000E-03 0.  1.
         11   -1    0    0    0    0 -0.00000000000E+00 -0.00000000000E+00 -0.45593999997E+02  0.45594000000E+02  0.51100000000E-03 0. -1.
    9900012    2    1    2    0    0  0.37475561651E+01  0.24989079223E+01 -0.18176633868E+02  0.72461581849E+02  0.70000015052E+02 0.  0.
        -12    1    1    2    0    0 -0.37475561651E+01 -0.24989079223E+01  0.18176633868E+02  0.18726418151E+02  0.00000000000E+00 0.  1.
         11    1    3    3    0    0  0.14719380570E+02 -0.33878234965E+01 -0.16411782337E+01  0.15193122743E+02  0.51100000000E-03 0. -1.
        -11    1    3    3    0    0  0.18187080604E+01 -0.71590713218E+01  0.17302564981E+02  0.18813260121E+02  0.51100000000E-03 0.  1.
         12    1    3    3    0    0 -0.12790532466E+02  0.13045802741E+02 -0.33838020615E+02  0.38455198985E+02  0.00000000000E+00 0. -1.
</event>
<event>
 7    1  0.3509180E-013  0.7246158E+02  0.7816164E-02  0.1226708E+00
        -11   -1    0    0    0    0  0.00000000000E+00  0.00000000000E+00  0.45593999997E+02  0.45594000000E+02  0.51100000000E-03 0.  1.
         11   -1    0    0    0    0 -0.00000000000E+00 -0.00000000000E+00 -0.45593999997E+02  0.45594000000E+02  0.51100000000E-03 0. -1.
    9900012    2    1    2    0    0 -0.97942625595E+01 -0.38589084466E+01 -0.15487418935E+02  0.72461577524E+02  0.70000009418E+02 0.  0.
        -12    1    1    2    0    0  0.97942625595E+01  0.38589084466E+01  0.15487418935E+02  0.18726422476E+02  0.00000000000E+00 0.  1.
         11    1    3    3    0    0 -0.74612699973E+01 -0.96547711608E+01  0.39944506281E+00  0.12208386984E+02  0.51100000000E-03 0. -1.
        -11    1    3    3    0    0 -0.28214833401E+02  0.44185482946E+01  0.22068685199E+01  0.28643859059E+02  0.51100000000E-03 0.  1.
         12    1    3    3    0    0  0.25881840839E+02  0.13773144196E+01 -0.18093732518E+02  0.31609331480E+02  0.00000000000E+00 0. -1.
</event>
<event>
 7    1  0.3509180E-013  0.7246161E+02  0.7816164E-02  0.1226708E+00
        -11   -1    0    0    0    0  0.00000000000E+00  0.00000000000E+00  0.45593999997E+02  0.45594000000E+02  0.51100000000E-03 0. -1.
         11   -1    0    0    0    0 -0.00000000000E+00 -0.00000000000E+00 -0.45593999997E+02  0.45594000000E+02  0.51100000000E-03 0.  1.
    9900012    2    1    2    0    0 -0.90592431047E+01  0.16386591528E+02  0.29586604452E+00  0.72461606747E+02  0.70000047486E+02 0.  0.
        -12    1    1    2    0    0  0.90592431047E+01 -0.16386591528E+02 -0.29586604452E+00  0.18726393253E+02  0.00000000000E+00 0.  1.
         11    1    3    3    0    0  0.84888805415E+01 -0.60109245843E+01  0.16209603128E+02  0.19259894627E+02  0.51100000000E-03 0. -1.
        -11    1    3    3    0    0  0.70594569102E+01  0.57231716004E+01  0.10181585500E+02  0.13647538554E+02  0.51100000000E-03 0.  1.
        -12    1    3    3    0    0 -0.24607580556E+02  0.16674344512E+02 -0.26095322583E+02  0.39554173566E+02  0.00000000000E+00 0.  1.
</event>
<event>
 7    1  0.3509180E-013  0.7246156E+02  0.7816164E-02  0.1226708E+00
        -11   -1    0    0    0    0  0.00000000000E+00  0.00000000000E+00  0.45593999997E+02  0.45594000000E+02  0.51100000000E-03 0.  1.
         11   -1    0    0    0    0 -0.00000000000E+00 -0.00000000000E+00 -0.45593999997E+02  0.45594000000E+02  0.51100000000E-03 0. -1.
    9900012    2    1    2    0    0 -0.13180788187E+02  0.87245853980E+00 -0.13273480697E+02  0.72461557440E+02  0.69999983255E+02 0.  0.
        -12    1    1    2    0    0  0.13180788187E+02 -0.87245853980E+00  0.13273480697E+02  0.18726442560E+02  0.00000000000E+00 0.  1.
         11    1    3    3    0    0 -0.15685115633E+02  0.32151008286E+01 -0.40591065964E+02  0.43634783855E+02  0.51100000000E-03 0. -1.
        -11    1    3    3    0    0 -0.18672253890E+01  0.10076272911E+01  0.19957611287E+01  0.29128862242E+01  0.51100000000E-03 0.  1.
        -12    1    3    3    0    0  0.43715528353E+01 -0.33502695799E+01  0.25321824138E+02  0.25913887361E+02  0.00000000000E+00 0.  1.
</event>
<event>
 7    1  0.3509180E-013  0.7246188E+02  0.7816164E-02  0.1226707E+00
        -11   -1    0    0    0    0  0.00000000000E+00  0.00000000000E+00  0.45593999997E+02  0.45594000000E+02  0.51100000000E-03 0.  1.
         11   -1    0    0    0    0 -0.00000000000E+00 -0.00000000000E+00 -0.45593999997E+02  0.45594000000E+02  0.51100000000E-03 0. -1.
    9900012    2    1    2    0    0  0.62185243733E+01  0.62994986102E+00 -0.17652214957E+02  0.72461879871E+02  0.70000403279E+02 0.  0.
        -12    1    1    2    0    0 -0.62185243733E+01 -0.62994986102E+00  0.17652214957E+02  0.18726120129E+02  0.00000000000E+00 0.  1.
         11    1    3    3    0    0  0.35573144826E+01  0.21421208886E+02 -0.41156143451E+01  0.22101152869E+02  0.51100000000E-03 0. -1.
        -11    1    3    3    0    0  0.10955105968E+02 -0.11765046912E+02 -0.27454215896E+02  0.31814535143E+02  0.51100000000E-03 0.  1.
        -12    1    3    3    0    0 -0.82938960771E+01 -0.90262121127E+01  0.13917615284E+02  0.18546191858E+02  0.00000000000E+00 0.  1.
</event>
<event>
 7    1  0.3509180E-013  0.7246161E+02  0.7816164E-02  0.1226708E+00
        -11   -1    0    0    0    0  0.00000000000E+00  0.00000000000E+00  0.45593999997E+02  0.45594000000E+02  0.51100000000E-03 0. -1.
         11   -1    0    0    0    0 -0.00000000000E+00 -0.00000000000E+00 -0.45593999997E+02  0.45594000000E+02  0.51100000000E-03 0.  1.
    9900012    2    1    2    0    0 -0.18070512419E+02  0.46932856424E+01 -0.14517000718E+01  0.72461607333E+02  0.70000048250E+02 0.  0.
        -12    1    1    2    0    0  0.18070512419E+02 -0.46932856424E+01  0.14517000718E+01  0.18726392667E+02  0.00000000000E+00 0.  1.
         11    1    3    3    0    0 -0.53141853997E+01  0.20638037408E+02  0.66592271850E+01  0.22327437414E+02  0.51100000000E-03 0. -1.
        -11    1    3    3    0    0  0.12239917905E+02  0.69339597726E+01 -0.81310403704E+01  0.16248360108E+02  0.51100000000E-03 0.  1.
        -12    1    3    3    0    0 -0.24996244924E+02 -0.22878711539E+02  0.20113113622E-01  0.33885809810E+02  0.00000000000E+00 0.  1.
</event>
<event>
 7    1  0.3509180E-013  0.7246158E+02  0.7816164E-02  0.1226708E+00
        -11   -1    0    0    0    0  0.00000000000E+00  0.00000000000E+00  0.45593999997E+02  0.45594000000E+02  0.51100000000E-03 0. -1.
         11   -1    0    0    0    0 -0.00000000000E+00 -0.00000000000E+00 -0.45593999997E+02  0.45594000000E+02  0.51100000000E-03 0.  1.
    9900012    2    1    2    0    0  0.18685478941E+02  0.12344819606E+01  0.88643441192E-01  0.72461576780E+02  0.70000008448E+02 0.  0.
        -12    1    1    2    0    0 -0.18685478941E+02 -0.12344819606E+01 -0.88643441192E-01  0.18726423220E+02  0.00000000000E+00 0.  1.
         11    1    3    3    0    0 -0.63057118635E+01 -0.35324152173E+01 -0.19033720052E+02  0.20359824622E+02  0.51100000000E-03 0. -1.
        -11    1    3    3    0    0  0.75400979971E+01  0.74515305935E+01 -0.12189813573E+02  0.16154564098E+02  0.51100000000E-03 0.  1.
         12    1    3    3    0    0  0.17451092808E+02 -0.26846334157E+01  0.31312177066E+02  0.35947188059E+02  0.00000000000E+00 0. -1.
</event>
<event>
 7    1  0.3509180E-013  0.7246161E+02  0.7816164E-02  0.1226708E+00
        -11   -1    0    0    0    0  0.00000000000E+00  0.00000000000E+00  0.45593999997E+02  0.45594000000E+02  0.51100000000E-03 0. -1.
         11   -1    0    0    0    0 -0.00000000000E+00 -0.00000000000E+00 -0.45593999997E+02  0.45594000000E+02  0.51100000000E-03 0.  1.
    9900012    2    1    2    0    0 -0.19257637732E+01 -0.13682139547E+02  0.12639936348E+02  0.72461614882E+02  0.70000058083E+02 0.  0.
        -12    1    1    2    0    0  0.19257637732E+01  0.13682139547E+02 -0.12639936348E+02  0.18726385118E+02  0.00000000000E+00 0.  1.
         11    1    3    3    0    0  0.13485433329E+02 -0.23403376899E+02  0.22378258804E+02  0.35076508231E+02  0.51100000000E-03 0. -1.
        -11    1    3    3    0    0 -0.71545651252E+00 -0.39581220815E+01  0.90402386855E+01  0.98946715046E+01  0.51100000000E-03 0.  1.
        -12    1    3    3    0    0 -0.14695740589E+02  0.13679359433E+02 -0.18778561141E+02  0.27490435146E+02  0.00000000000E+00 0.  1.
</event>
<event>
 7    1  0.3509180E-013  0.7246156E+02  0.7816164E-02  0.1226708E+00
        -11   -1    0    0    0    0  0.00000000000E+00  0.00000000000E+00  0.45593999997E+02  0.45594000000E+02  0.51100000000E-03 0. -1.
         11   -1    0    0    0    0 -0.00000000000E+00 -0.00000000000E+00 -0.45593999997E+02  0.45594000000E+02  0.51100000000E-03 0.  1.
    9900012    2    1    2    0    0 -0.16470276153E+02 -0.39540938006E+01 -0.79858998836E+01  0.72461562771E+02  0.69999990200E+02 0.  0.
        -12    1    1    2    0    0  0.16470276153E+02  0.39540938006E+01  0.79858998836E+01  0.18726437229E+02  0.00000000000E+00 0.  1.
         11    1    3    3    0    0 -0.57013516280E+01 -0.69451824652E+01  0.22280315984E+02  0.24024018200E+02  0.51100000000E-03 0. -1.
        -11    1    3    3    0    0  0.35070621740E+01 -0.94265546897E+01  0.27119498103E+01  0.10417009669E+02  0.51100000000E-03 0.  1.
        -12    1    3    3    0    0 -0.14275986699E+02  0.12417643354E+02 -0.32978165678E+02  0.38020534902E+02  0.00000000000E+00 0.  1.
</event>
<event>
 7    1  0.3509180E-013  0.7246158E+02  0.7816164E-02  0.1226708E+00
        -11   -1    0    0    0    0  0.00000000000E+00  0.00000000000E+00  0.45593999997E+02  0.45594000000E+02  0.51100000000E-03 0. -1.
         11   -1    0    0    0    0 -0.00000000000E+00 -0.00000000000E+00 -0.45593999997E+02  0.45594000000E+02  0.51100000000E-03 0.  1.
    9900012    2    1    2    0    0 -0.14500391163E+01 -0.16464333030E+02  0.88035119091E+01  0.72461582897E+02  0.70000016418E+02 0.  0.
        -12    1    1    2    0    0  0.14500391163E+01  0.16464333030E+02 -0.88035119091E+01  0.18726417103E+02  0.00000000000E+00 0.  1.
         11    1    3    3    0    0  0.61351132890E+00 -0.16468897825E+02 -0.48928641555E+01  0.17191309188E+02  0.51100000000E-03 0. -1.
        -11    1    3    3    0    0  0.69729090033E+01 -0.14613501796E+02 -0.14836684835E+02  0.21961400499E+02  0.51100000000E-03 0.  1.
         12    1    3    3    0    0 -0.90364594485E+01  0.14618066591E+02  0.28533060900E+02  0.33308873210E+02  0.00000000000E+00 0. -1.
</event>
<event>
 7    1  0.3509180E-013  0.7246168E+02  0.7816164E-02  0.1226708E+00
        -11   -1    0    0    0    0  0.00000000000E+00  0.00000000000E+00  0.45593999997E+02  0.45594000000E+02  0.51100000000E-03 0. -1.
         11   -1    0    0    0    0 -0.00000000000E+00 -0.00000000000E+00 -0.45593999997E+02  0.45594000000E+02  0.51100000000E-03 0.  1.
    9900012    2    1    2    0    0 -0.10575962587E+02 -0.46156852325E+01  0.14748546706E+02  0.72461677223E+02  0.70000139294E+02 0.  0.
        -12    1    1    2    0    0  0.10575962587E+02  0.46156852325E+01 -0.14748546706E+02  0.18726322777E+02  0.00000000000E+00 0.  1.
         11    1    3    3    0    0 -0.58995789126E+01  0.13404861030E+02  0.11546317551E+01  0.14691102931E+02  0.51100000000E-03 0. -1.
        -11    1    3    3    0    0 -0.11331015300E+02  0.76962370237E+01 -0.13917706018E+02  0.19527583391E+02  0.51100000000E-03 0.  1.
         12    1    3    3    0    0  0.66546316248E+01 -0.25716783286E+02  0.27511620969E+02  0.38242990900E+02  0.00000000000E+00 0. -1.
</event>
<event>
 7    1  0.3509180E-013  0.7246157E+02  0.7816164E-02  0.1226708E+00
        -11   -1    0    0    0    0  0.00000000000E+00  0.00000000000E+00  0.45593999997E+02  0.45594000000E+02  0.51100000000E-03 0. -1.
         11   -1    0    0    0    0 -0.00000000000E+00 -0.00000000000E+00 -0.45593999997E+02  0.45594000000E+02  0.51100000000E-03 0.  1.
    9900012    2    1    2    0    0 -0.11636369915E+02  0.14635150026E+02  0.10423783876E+01  0.72461567511E+02  0.69999996374E+02 0.  0.
        -12    1    1    2    0    0  0.11636369915E+02 -0.14635150026E+02 -0.10423783876E+01  0.18726432489E+02  0.00000000000E+00 0.  1.
         11    1    3    3    0    0 -0.27266274128E+02  0.12574983411E+02 -0.19660745806E+02  0.35890456092E+02  0.51100000000E-03 0. -1.
        -11    1    3    3    0    0  0.14961218965E+02 -0.19033992516E+01 -0.40146047061E+00  0.15087152561E+02  0.51100000000E-03 0.  1.
        -12    1    3    3    0    0  0.66868524790E+00  0.39635658661E+01  0.21104584664E+02  0.21483958858E+02  0.00000000000E+00 0.  1.
</event>
<event>
 7    1  0.3509180E-013  0.7246162E+02  0.7816164E-02  0.1226708E+00
        -11   -1    0    0    0    0  0.00000000000E+00  0.00000000000E+00  0.45593999997E+02  0.45594000000E+02  0.51100000000E-03 0. -1.
         11   -1    0    0    0    0 -0.00000000000E+00 -0.00000000000E+00 -0.45593999997E+02  0.45594000000E+02  0.51100000000E-03 0.  1.
    9900012    2    1    2    0    0 -0.12432986741E+01 -0.17789750220E+02  0.57145720601E+01  0.72461619188E+02  0.70000063694E+02 0.  0.
        -12    1    1    2    0    0  0.12432986741E+01  0.17789750220E+02 -0.57145720601E+01  0.18726380812E+02  0.00000000000E+00 0.  1.
         11    1    3    3    0    0  0.82734404633E+01 -0.41267686080E+00 -0.18345589985E+02  0.20129103096E+02  0.51100000000E-03 0. -1.
        -11    1    3    3    0    0  0.14847810246E+02 -0.96247321204E+01  0.71340433937E+00  0.17708808077E+02  0.51100000000E-03 0.  1.
         12    1    3    3    0    0 -0.24364549384E+02 -0.77523412384E+01  0.23346757706E+02  0.34623708015E+02  0.00000000000E+00 0. -1.
</event>
<event>
 7    1  0.3509180E-013  0.7246102E+02  0.7816164E-02  0.1226709E+00
        -11   -1    0    0    0    0  0.00000000000E+00  0.00000000000E+00  0.45593999997E+02  0.45594000000E+02  0.51100000000E-03 0.  1.
         11   -1    0    0    0    0 -0.00000000000E+00 -0.00000000000E+00 -0.45593999997E+02  0.45594000000E+02  0.51100000000E-03 0. -1.
    9900012    2    1    2    0    0 -0.12821568572E+01 -0.45667965928E+01 -0.18116301410E+02  0.72461015883E+02  0.69999277773E+02 0.  0.
        -12    1    1    2    0    0  0.12821568572E+01  0.45667965928E+01  0.18116301410E+02  0.18726984117E+02  0.00000000000E+00 0.  1.
         11    1    3    3    0    0 -0.25326897659E+01  0.24185453441E+02 -0.13915779746E+02  0.28017844347E+02  0.51100000000E-03 0. -1.
        -11    1    3    3    0    0  0.39453981290E+01  0.33405774804E+01  0.83973745181E+01  0.98611116694E+01  0.51100000000E-03 0.  1.
         12    1    3    3    0    0 -0.26948652204E+01 -0.32092827515E+02 -0.12597896182E+02  0.34582059867E+02  0.00000000000E+00 0. -1.
</event>
<event>
 7    1  0.3509180E-013  0.7246159E+02  0.7816164E-02  0.1226708E+00
        -11   -1    0    0    0    0  0.00000000000E+00  0.00000000000E+00  0.45593999997E+02  0.45594000000E+02  0.51100000000E-03 0.  1.
         11   -1    0    0    0    0 -0.00000000000E+00 -0.00000000000E+00 -0.45593999997E+02  0.45594000000E+02  0.51100000000E-03 0. -1.
    9900012    2    1    2    0    0  0.42662764131E+01  0.90141810951E+00 -0.18211669971E+02  0.72461585710E+02  0.70000020081E+02 0.  0.
        -12    1    1    2    0    0 -0.42662764131E+01 -0.90141810951E+00  0.18211669971E+02  0.18726414290E+02  0.00000000000E+00 0.  1.
         11    1    3    3    0    0 -0.11686947398E+02  0.52795235381E+01 -0.77802494936E+01  0.14999679687E+02  0.51100000000E-03 0. -1.
        -11    1    3    3    0    0 -0.16108450761E+02 -0.19370000118E+01  0.10286767391E+02  0.19210719367E+02  0.51100000000E-03 0.  1.
         12    1    3    3    0    0  0.32061674572E+02 -0.24411054168E+01 -0.20718187869E+02  0.38251186656E+02  0.00000000000E+00 0. -1.
</event>
<event>
 7    1  0.3509180E-013  0.7246159E+02  0.7816164E-02  0.1226708E+00
        -11   -1    0    0    0    0  0.00000000000E+00  0.00000000000E+00  0.45593999997E+02  0.45594000000E+02  0.51100000000E-03 0.  1.
         11   -1    0    0    0    0 -0.00000000000E+00 -0.00000000000E+00 -0.45593999997E+02  0.45594000000E+02  0.51100000000E-03 0. -1.
    9900012    2    1    2    0    0  0.24750247960E+00  0.12350153541E+02 -0.14074470916E+02  0.72461594004E+02  0.70000030887E+02 0.  0.
        -12    1    1    2    0    0 -0.24750247960E+00 -0.12350153541E+02  0.14074470916E+02  0.18726405996E+02  0.00000000000E+00 0.  1.
         11    1    3    3    0    0 -0.15399963873E+02  0.60798384867E+01 -0.14227455442E+02  0.21829883461E+02  0.51100000000E-03 0. -1.
        -11    1    3    3    0    0 -0.92443603638E+01  0.16014083829E+02 -0.11168625550E+02  0.21602020191E+02  0.51100000000E-03 0.  1.
        -12    1    3    3    0    0  0.24891826716E+02 -0.97437687752E+01  0.11321610076E+02  0.29029690352E+02  0.00000000000E+00 0.  1.
</event>
<event>
 7    1  0.3509180E-013  0.7246156E+02  0.7816164E-02  0.1226708E+00
        -11   -1    0    0    0    0  0.00000000000E+00  0.00000000000E+00  0.45593999997E+02  0.45594000000E+02  0.51100000000E-03 0.  1.
         11   -1    0    0    0    0 -0.00000000000E+00 -0.00000000000E+00 -0.45593999997E+02  0.45594000000E+02  0.51100000000E-03 0. -1.
    9900012    2    1    2    0    0  0.88811350114E+01  0.25412308854E+01 -0.16289482214E+02  0.72461557618E+02  0.69999983486E+02 0.  0.
        -12    1    1    2    0    0 -0.88811350114E+01 -0.25412308854E+01  0.16289482214E+02  0.18726442382E+02  0.00000000000E+00 0.  1.
         11    1    3    3    0    0  0.44001523136E+01  0.18563612048E+02 -0.15385151004E+01  0.19139907566E+02  0.51100000000E-03 0. -1.
        -11    1    3    3    0    0  0.10205196842E+02  0.11902689861E+02  0.72880866624E+01  0.17289773740E+02  0.51100000000E-03 0.  1.
         12    1    3    3    0    0 -0.57242141438E+01 -0.27925071024E+02 -0.22039053776E+02  0.36031876312E+02  0.00000000000E+00 0. -1.
</event>
<event>
 7    1  0.3509180E-013  0.7246160E+02  0.7816164E-02  0.1226708E+00
        -11   -1    0    0    0    0  0.00000000000E+00  0.00000000000E+00  0.45593999997E+02  0.45594000000E+02  0.51100000000E-03 0.  1.
         11   -1    0    0    0    0 -0.00000000000E+00 -0.00000000000E+00 -0.45593999997E+02  0.45594000000E+02  0.51100000000E-03 0. -1.
    9900012    2    1    2    0    0 -0.67640730252E+01  0.53194614692E+00 -0.17454004933E+02  0.72461603155E+02  0.70000042807E+02 0.  0.
        -12    1    1    2    0    0  0.67640730252E+01 -0.53194614692E+00  0.17454004933E+02  0.18726396845E+02  0.00000000000E+00 0.  1.
         11    1    3    3    0    0  0.70774062487E+01 -0.10135250646E+02 -0.12975414956E+02  0.17921338633E+02  0.51100000000E-03 0. -1.
        -11    1    3    3    0    0 -0.28919260055E+02  0.41835323164E+01 -0.17081725520E+02  0.33846874180E+02  0.51100000000E-03 0.  1.
        -12    1    3    3    0    0  0.15077780781E+02  0.64836644763E+01  0.12603135543E+02  0.20693390342E+02  0.00000000000E+00 0.  1.
</event>
<event>
 7    1  0.3509180E-013  0.7246165E+02  0.7816164E-02  0.1226708E+00
        -11   -1    0    0    0    0  0.00000000000E+00  0.00000000000E+00  0.45593999997E+02  0.45594000000E+02  0.51100000000E-03 0. -1.
         11   -1    0    0    0    0 -0.00000000000E+00 -0.00000000000E+00 -0.45593999997E+02  0.45594000000E+02  0.51100000000E-03 0.  1.
    9900012    2    1    2    0    0 -0.45528254090E+01 -0.16525044224E+02  0.75412743077E+01  0.72461651610E+02  0.70000105929E+02 0.  0.
        -12    1    1    2    0    0  0.45528254090E+01  0.16525044224E+02 -0.75412743077E+01  0.18726348390E+02  0.00000000000E+00 0.  1.
         11    1    3    3    0    0  0.15065445760E+02 -0.28244846137E+01 -0.14362570751E+01  0.15395070767E+02  0.51100000000E-03 0. -1.
        -11    1    3    3    0    0  0.22024117537E+01  0.24551686828E+01 -0.18291253640E+02  0.18586243052E+02  0.51100000000E-03 0.  1.
         12    1    3    3    0    0 -0.21820682923E+02 -0.16155728293E+02  0.27268785023E+02  0.38480337791E+02  0.00000000000E+00 0. -1.
</event>
<event>
 7    1  0.3509180E-013  0.7246150E+02  0.7816164E-02  0.1226708E+00
        -11   -1    0    0    0    0  0.00000000000E+00  0.00000000000E+00  0.45593999997E+02  0.45594000000E+02  0.51100000000E-03 0.  1.
         11   -1    0    0    0    0 -0.00000000000E+00 -0.00000000000E+00 -0.45593999997E+02  0.45594000000E+02  0.51100000000E-03 0. -1.
    9900012    2    1    2    0    0 -0.25716246210E+01  0.14180513071E+02 -0.11957492948E+02  0.72461498945E+02  0.69999907054E+02 0.  0.
        -12    1    1    2    0    0  0.25716246210E+01 -0.14180513071E+02  0.11957492948E+02  0.18726501055E+02  0.00000000000E+00 0.  1.
         11    1    3    3    0    0  0.54300701778E+01  0.85220934683E+01  0.87641299201E+01  0.13376162108E+02  0.51100000000E-03 0. -1.
        -11    1    3    3    0    0 -0.44734071521E+01  0.90852397760E+01  0.17677386095E+02  0.20372602503E+02  0.51100000000E-03 0.  1.
         12    1    3    3    0    0 -0.35282876467E+01 -0.34268201733E+01 -0.38399008964E+02  0.38712734334E+02  0.00000000000E+00 0. -1.
</event>
<event>
 7    1  0.3509180E-013  0.7246154E+02  0.7816164E-02  0.1226708E+00
        -11   -1    0    0    0    0  0.00000000000E+00  0.00000000000E+00  0.45593999997E+02  0.45594000000E+02  0.51100000000E-03 0. -1.
         11   -1    0    0    0    0 -0.00000000000E+00 -0.00000000000E+00 -0.45593999997E+02  0.45594000000E+02  0.51100000000E-03 0.  1.
    9900012    2    1    2    0    0 -0.73229483270E+01  0.71422577193E+01  0.15685754152E+02  0.72461540088E+02  0.69999960650E+02 0.  0.
        -12    1    1    2    0    0  0.73229483270E+01 -0.71422577193E+01 -0.15685754152E+02  0.18726459912E+02  0.00000000000E+00 0.  1.
         11    1    3    3    0    0 -0.51023582642E+01 -0.26772262110E+02  0.28338040641E+00  0.27255611956E+02  0.51100000000E-03 0. -1.
        -11    1    3    3    0    0 -0.94275278671E+01  0.49730296547E+01  0.10534145059E+02  0.14985910650E+02  0.51100000000E-03 0.  1.
        -12    1    3    3    0    0  0.72069378042E+01  0.28941490175E+02  0.48682286870E+01  0.30220017482E+02  0.00000000000E+00 0.  1.
</event>
<event>
 7    1  0.3509180E-013  0.7246148E+02  0.7816164E-02  0.1226708E+00
        -11   -1    0    0    0    0  0.00000000000E+00  0.00000000000E+00  0.45593999997E+02  0.45594000000E+02  0.51100000000E-03 0.  1.
         11   -1    0    0    0    0 -0.00000000000E+00 -0.00000000000E+00 -0.45593999997E+02  0.45594000000E+02  0.51100000000E-03 0. -1.
    9900012    2    1    2    0    0  0.12256333491E+02 -0.28391643698E+01 -0.13870970061E+02  0.72461484697E+02  0.69999888494E+02 0.  0.
        -12    1    1    2    0    0 -0.12256333491E+02  0.28391643698E+01  0.13870970061E+02  0.18726515303E+02  0.00000000000E+00 0.  1.
         11    1    3    3    0    0  0.28933464996E+02 -0.41978840151E+01 -0.31821623932E+02  0.43213231501E+02  0.51100000000E-03 0. -1.
        -11    1    3    3    0    0 -0.39370481670E+01  0.62756045663E+01  0.99141592505E+00  0.74743873822E+01  0.51100000000E-03 0.  1.
        -12    1    3    3    0    0 -0.12740083338E+02 -0.49168849211E+01  0.16959237946E+02  0.21773865814E+02  0.00000000000E+00 0.  1.
</event>
<event>
 7    1  0.3509180E-013  0.7246155E+02  0.7816164E-02  0.1226708E+00
        -11   -1    0    0    0    0  0.00000000000E+00  0.00000000000E+00  0.45593999997E+02  0.45594000000E+02  0.51100000000E-03 0.  1.
         11   -1    0    0    0    0 -0.00000000000E+00 -0.00000000000E+00 -0.45593999997E+02  0.45594000000E+02  0.51100000000E-03 0. -1.
    9900012    2    1    2    0    0  0.18379612001E+02 -0.38967047249E+00  0.35662045391E+01  0.72461553588E+02  0.69999978237E+02 0.  0.
        -12    1    1    2    0    0 -0.18379612001E+02  0.38967047249E+00 -0.35662045391E+01  0.18726446412E+02  0.00000000000E+00 0.  1.
         11    1    3    3    0    0  0.11031257367E+02  0.19923957497E+02  0.14269691609E+02  0.26875208284E+02  0.51100000000E-03 0. -1.
        -11    1    3    3    0    0  0.18316166063E+02 -0.10915331574E+02 -0.19315516224E+02  0.28770046400E+02  0.51100000000E-03 0.  1.
        -12    1    3    3    0    0 -0.10967811428E+02 -0.93982963956E+01  0.86120291540E+01  0.16816298904E+02  0.00000000000E+00 0.  1.
</event>
<event>
 7    1  0.3509180E-013  0.7246163E+02  0.7816164E-02  0.1226708E+00
        -11   -1    0    0    0    0  0.00000000000E+00  0.00000000000E+00  0.45593999997E+02  0.45594000000E+02  0.51100000000E-03 0.  1.
         11   -1    0    0    0    0 -0.00000000000E+00 -0.00000000000E+00 -0.45593999997E+02  0.45594000000E+02  0.51100000000E-03 0. -1.
    9900012    2    1    2    0    0  0.14689128262E+02 -0.92208326849E+01 -0.70627741720E+01  0.72461627593E+02  0.70000074643E+02 0.  0.
        -12    1    1    2    0    0 -0.14689128262E+02  0.92208326849E+01  0.70627741720E+01  0.18726372407E+02  0.00000000000E+00 0.  1.
         11    1    3    3    0    0  0.56358558027E+01 -0.34478272898E+02 -0.89623616799E+01  0.36067133235E+02  0.51100000000E-03 0. -1.
        -11    1    3    3    0    0  0.19896100899E+01 -0.30231873849E+01 -0.52542307191E+01  0.63800588543E+01  0.51100000000E-03 0.  1.
        -12    1    3    3    0    0  0.70636623696E+01  0.28280627598E+02  0.71538182270E+01  0.30014435504E+02  0.00000000000E+00 0.  1.
</event>
<event>
 7    1  0.3509180E-013  0.7246153E+02  0.7816164E-02  0.1226708E+00
        -11   -1    0    0    0    0  0.00000000000E+00  0.00000000000E+00  0.45593999997E+02  0.45594000000E+02  0.51100000000E-03 0. -1.
         11   -1    0    0    0    0 -0.00000000000E+00 -0.00000000000E+00 -0.45593999997E+02  0.45594000000E+02  0.51100000000E-03 0.  1.
    9900012    2    1    2    0    0  0.12053830539E+02 -0.13685995325E+02  0.42519860720E+01  0.72461529851E+02  0.69999947315E+02 0.  0.
        -12    1    1    2    0    0 -0.12053830539E+02  0.13685995325E+02 -0.42519860720E+01  0.18726470149E+02  0.00000000000E+00 0.  1.
         11    1    3    3    0    0  0.22168263098E+02  0.20499132108E+01 -0.76966797317E+01  0.23555740534E+02  0.51100000000E-03 0. -1.
        -11    1    3    3    0    0 -0.11157486671E+02 -0.41505046203E+01 -0.15237002181E+02  0.19336039748E+02  0.51100000000E-03 0.  1.
        -12    1    3    3    0    0  0.10430541119E+01 -0.11585403915E+02  0.27185667985E+02  0.29569749569E+02  0.00000000000E+00 0.  1.
</event>
<event>
 7    1  0.3509180E-013  0.7246169E+02  0.7816164E-02  0.1226708E+00
        -11   -1    0    0    0    0  0.00000000000E+00  0.00000000000E+00  0.45593999997E+02  0.45594000000E+02  0.51100000000E-03 0. -1.
         11   -1    0    0    0    0 -0.00000000000E+00 -0.00000000000E+00 -0.45593999997E+02  0.45594000000E+02  0.51100000000E-03 0.  1.
    9900012    2    1    2    0    0 -0.48008165348E+01 -0.38171885856E+01  0.17693381980E+02  0.72461694065E+02  0.70000161234E+02 0.  0.
        -12    1    1    2    0    0  0.48008165348E+01  0.38171885856E+01 -0.17693381980E+02  0.18726305935E+02  0.00000000000E+00 0.  1.
         11    1    3    3    0    0  0.39072090544E+00 -0.49490487284E+01 -0.89749128572E+01  0.10256451979E+02  0.51100000000E-03 0. -1.
        -11    1    3    3    0    0 -0.12928322884E+02 -0.13290609049E+02 -0.10701890786E+02  0.21408229449E+02  0.51100000000E-03 0.  1.
         12    1    3    3    0    0  0.77367854441E+01  0.14422469192E+02  0.37370185623E+02  0.40797012637E+02  0.00000000000E+00 0. -1.
</event>
<event>
 7    1  0.3509180E-013  0.7246156E+02  0.7816164E-02  0.1226708E+00
        -11   -1    0    0    0    0  0.00000000000E+00  0.00000000000E+00  0.45593999997E+02  0.45594000000E+02  0.51100000000E-03 0.  1.
         11   -1    0    0    0    0 -0.00000000000E+00 -0.00000000000E+00 -0.45593999997E+02  0.45594000000E+02  0.51100000000E-03 0. -1.
    9900012    2    1    2    0    0 -0.76282822913E+01  0.35386083026E+01 -0.16732215962E+02  0.72461561726E+02  0.69999988838E+02 0.  0.
        -12    1    1    2    0    0  0.76282822913E+01 -0.35386083026E+01  0.16732215962E+02  0.18726438274E+02  0.00000000000E+00 0.  1.
         11    1    3    3    0    0 -0.24933884369E+02  0.14167602500E+02 -0.87828492091E+01  0.29992632275E+02  0.51100000000E-03 0. -1.
        -11    1    3    3    0    0 -0.10123205076E+02 -0.71803266463E+01 -0.81059528983E+01  0.14823725726E+02  0.51100000000E-03 0.  1.
        -12    1    3    3    0    0  0.27428807153E+02 -0.34486675508E+01  0.15658614516E+00  0.27645203724E+02  0.00000000000E+00 0.  1.
</event>
<event>
 7    1  0.3509180E-013  0.7246148E+02  0.7816164E-02  0.1226708E+00
        -11   -1    0    0    0    0  0.00000000000E+00  0.00000000000E+00  0.45593999997E+02  0.45594000000E+02  0.51100000000E-03 0. -1.
         11   -1    0    0    0    0 -0.00000000000E+00 -0.00000000000E+00 -0.45593999997E+02  0.45594000000E+02  0.51100000000E-03 0.  1.
    9900012    2    1    2    0    0 -0.13132329002E+02  0.78828610122E+01 -0.10774266953E+02  0.72461484277E+02  0.69999887946E+02 0.  0.
        -12    1    1    2    0    0  0.13132329002E+02 -0.78828610122E+01  0.10774266953E+02  0.18726515723E+02  0.00000000000E+00 0.  1.
         11    1    3    3    0    0  0.97234963904E+01  0.80951964966E+01  0.14336848709E+02  0.19121292308E+02  0.51100000000E-03 0. -1.
        -11    1    3    3    0    0  0.11265449525E+02 -0.32129124693E+01 -0.16674812735E+01  0.11832736522E+02  0.51100000000E-03 0.  1.
        -12    1    3    3    0    0 -0.34121274918E+02  0.30005769850E+01 -0.23443634389E+02  0.41507455446E+02  0.00000000000E+00 0.  1.
</event>
<event>
 7    1  0.3509180E-013  0.7246156E+02  0.7816164E-02  0.1226708E+00
        -11   -1    0    0    0    0  0.00000000000E+00  0.00000000000E+00  0.45593999997E+02  0.45594000000E+02  0.51100000000E-03 0. -1.
         11   -1    0    0    0    0 -0.00000000000E+00 -0.00000000000E+00 -0.45593999997E+02  0.45594000000E+02  0.51100000000E-03 0.  1.
    9900012    2    1    2    0    0 -0.77077231295E+01  0.69323993038E+01  0.15595267571E+02  0.72461560761E+02  0.69999987581E+02 0.  0.
        -12    1    1    2    0    0  0.77077231295E+01 -0.69323993038E+01 -0.15595267571E+02  0.18726439239E+02  0.00000000000E+00 0.  1.
         11    1    3    3    0    0  0.12690979605E+02 -0.52269594845E+01  0.77643784934E+01  0.15769199169E+02  0.51100000000E-03 0.  1.
        -11    1    3    3    0    0 -0.22477031466E+02  0.20476305147E+02 -0.13825304464E+02  0.33401123630E+02  0.51100000000E-03 0. -1.
         12    1    3    3    0    0  0.20783287313E+01 -0.83169463589E+01  0.21656193542E+02  0.23291237961E+02  0.00000000000E+00 0. -1.
</event>
<event>
 7    1  0.3509180E-013  0.7246156E+02  0.7816164E-02  0.1226708E+00
        -11   -1    0    0    0    0  0.00000000000E+00  0.00000000000E+00  0.45593999997E+02  0.45594000000E+02  0.51100000000E-03 0.  1.
         11   -1    0    0    0    0 -0.00000000000E+00 -0.00000000000E+00 -0.45593999997E+02  0.45594000000E+02  0.51100000000E-03 0. -1.
    9900012    2    1    2    0    0  0.13502082492E+02 -0.69412345618E-01  0.12975691088E+02  0.72461558563E+02  0.69999984717E+02 0.  0.
        -12    1    1    2    0    0 -0.13502082492E+02  0.69412345618E-01 -0.12975691088E+02  0.18726441437E+02  0.00000000000E+00 0.  1.
         11    1    3    3    0    0  0.12054221870E+02  0.78041672754E+01  0.10528624906E+02  0.17806213365E+02  0.51100000000E-03 0. -1.
        -11    1    3    3    0    0 -0.22445022997E+02 -0.58181609734E+00  0.14694613137E+02  0.26833732927E+02  0.51100000000E-03 0.  1.
         12    1    3    3    0    0  0.23892883619E+02 -0.72917635237E+01 -0.12247546955E+02  0.27821612270E+02  0.00000000000E+00 0. -1.
</event>
<event>
 7    1  0.3509180E-013  0.7246154E+02  0.7816164E-02  0.1226708E+00
        -11   -1    0    0    0    0  0.00000000000E+00  0.00000000000E+00  0.45593999997E+02  0.45594000000E+02  0.51100000000E-03 0. -1.
         11   -1    0    0    0    0 -0.00000000000E+00 -0.00000000000E+00 -0.45593999997E+02  0.45594000000E+02  0.51100000000E-03 0.  1.
    9900012    2    1    2    0    0  0.50061185599E+01  0.17785648524E+02  0.30479274558E+01  0.72461538021E+02  0.69999957958E+02 0.  0.
        -12    1    1    2    0    0 -0.50061185599E+01 -0.17785648524E+02 -0.30479274558E+01  0.18726461979E+02  0.00000000000E+00 0.  1.
         11    1    3    3    0    0 -0.12257373144E+01  0.11445274491E+02  0.18248262082E+02  0.21575351895E+02  0.51100000000E-03 0. -1.
        -11    1    3    3    0    0  0.60185172361E+01 -0.20552764204E+02 -0.41698619980E+01  0.21818029597E+02  0.51100000000E-03 0.  1.
         12    1    3    3    0    0  0.21333863823E+00  0.26893138237E+02 -0.11030472628E+02  0.29068156529E+02  0.00000000000E+00 0. -1.
</event>
<event>
 7    1  0.3509180E-013  0.7246159E+02  0.7816164E-02  0.1226708E+00
        -11   -1    0    0    0    0  0.00000000000E+00  0.00000000000E+00  0.45593999997E+02  0.45594000000E+02  0.51100000000E-03 0. -1.
         11   -1    0    0    0    0 -0.00000000000E+00 -0.00000000000E+00 -0.45593999997E+02  0.45594000000E+02  0.51100000000E-03 0.  1.
    9900012    2    1    2    0    0 -0.63715308677E+01 -0.12898861242E+02  0.11987556557E+02  0.72461587125E+02  0.70000021926E+02 0.  0.
        -12    1    1    2    0    0  0.63715308677E+01  0.12898861242E+02 -0.11987556557E+02  0.18726412875E+02  0.00000000000E+00 0.  1.
         11    1    3    3    0    0 -0.20205020343E+02 -0.94247169448E+01  0.12217488300E+02  0.25423122491E+02  0.51100000000E-03 0. -1.
        -11    1    3    3    0    0 -0.19647009844E+01  0.99681833685E+01  0.17178670442E+02  0.19958242609E+02  0.51100000000E-03 0.  1.
        -12    1    3    3    0    0  0.15798190460E+02 -0.13442327665E+02 -0.17408602186E+02  0.27080222025E+02  0.00000000000E+00 0.  1.
</event>
<event>
 7    1  0.3509180E-013  0.7246154E+02  0.7816164E-02  0.1226708E+00
        -11   -1    0    0    0    0  0.00000000000E+00  0.00000000000E+00  0.45593999997E+02  0.45594000000E+02  0.51100000000E-03 0. -1.
         11   -1    0    0    0    0 -0.00000000000E+00 -0.00000000000E+00 -0.45593999997E+02  0.45594000000E+02  0.51100000000E-03 0.  1.
    9900012    2    1    2    0    0 -0.12315068727E+02  0.11353953030E+01  0.14061663223E+02  0.72461537097E+02  0.69999956755E+02 0.  0.
        -12    1    1    2    0    0  0.12315068727E+02 -0.11353953030E+01 -0.14061663223E+02  0.18726462903E+02  0.00000000000E+00 0.  1.
         11    1    3    3    0    0 -0.36731100074E+01  0.14524072902E+01  0.10084142540E+02  0.10830104113E+02  0.51100000000E-03 0. -1.
        -11    1    3    3    0    0 -0.16346991604E+02 -0.15036689941E+02  0.25903249545E+02  0.34121906690E+02  0.51100000000E-03 0.  1.
        -12    1    3    3    0    0  0.77050328843E+01  0.14719677954E+02 -0.21925728862E+02  0.27509526295E+02  0.00000000000E+00 0.  1.
</event>
<event>
 7    1  0.3509180E-013  0.7246157E+02  0.7816164E-02  0.1226708E+00
        -11   -1    0    0    0    0  0.00000000000E+00  0.00000000000E+00  0.45593999997E+02  0.45594000000E+02  0.51100000000E-03 0. -1.
         11   -1    0    0    0    0 -0.00000000000E+00 -0.00000000000E+00 -0.45593999997E+02  0.45594000000E+02  0.51100000000E-03 0.  1.
    9900012    2    1    2    0    0 -0.26291883139E+01  0.42110308912E+01  0.18056403885E+02  0.72461571253E+02  0.70000001249E+02 0.  0.
        -12    1    1    2    0    0  0.26291883139E+01 -0.42110308912E+01 -0.18056403885E+02  0.18726428747E+02  0.00000000000E+00 0.  1.
         11    1    3    3    0    0 -0.56885415651E+01 -0.37831743761E+01 -0.19828213042E+01  0.71136132931E+01  0.51100000000E-03 0. -1.
        -11    1    3    3    0    0  0.60982497575E+01  0.56727562264E+01 -0.21798692506E+02  0.23335633879E+02  0.51100000000E-03 0.  1.
         12    1    3    3    0    0 -0.30388965063E+01  0.23214490409E+01  0.41837917695E+02  0.42012324081E+02  0.00000000000E+00 0. -1.
</event>
<event>
 7    1  0.3509180E-013  0.7246155E+02  0.7816164E-02  0.1226708E+00
        -11   -1    0    0    0    0  0.00000000000E+00  0.00000000000E+00  0.45593999997E+02  0.45594000000E+02  0.51100000000E-03 0.  1.
         11   -1    0    0    0    0 -0.00000000000E+00 -0.00000000000E+00 -0.45593999997E+02  0.45594000000E+02  0.51100000000E-03 0. -1.
    9900012    2    1    2    0    0 -0.14381847939E+01  0.12821618411E+02 -0.13572683389E+02  0.72461547892E+02  0.69999970817E+02 0.  0.
        -12    1    1    2    0    0  0.14381847939E+01 -0.12821618411E+02  0.13572683389E+02  0.18726452108E+02  0.00000000000E+00 0.  1.
         11    1    3    3    0    0 -0.18536317975E+02  0.58051263564E+01 -0.24111210705E+02  0.30961993767E+02  0.51100000000E-03 0. -1.
        -11    1    3    3    0    0 -0.63340734436E+01  0.81481639678E+01 -0.67726911145E+01  0.12344326941E+02  0.51100000000E-03 0.  1.
        -12    1    3    3    0    0  0.23432206624E+02 -0.11316719131E+01  0.17311218431E+02  0.29155227184E+02  0.00000000000E+00 0.  1.
</event>
<event>
 7    1  0.3509180E-013  0.7246157E+02  0.7816164E-02  0.1226708E+00
        -11   -1    0    0    0    0  0.00000000000E+00  0.00000000000E+00  0.45593999997E+02  0.45594000000E+02  0.51100000000E-03 0. -1.
         11   -1    0    0    0    0 -0.00000000000E+00 -0.00000000000E+00 -0.45593999997E+02  0.45594000000E+02  0.51100000000E-03 0.  1.
    9900012    2    1    2    0    0  0.11288128666E+02  0.12706862063E+02  0.78608438340E+01  0.72461573270E+02  0.70000003877E+02 0.  0.
        -12    1    1    2    0    0 -0.11288128666E+02 -0.12706862063E+02 -0.78608438340E+01  0.18726426730E+02  0.00000000000E+00 0.  1.
         11    1    3    3    0    0 -0.86012968084E+01  0.59407841458E+01  0.26536523066E+02  0.28521260136E+02  0.51100000000E-03 0. -1.
        -11    1    3    3    0    0 -0.47130845849E+00  0.15998219355E+02 -0.21706487432E+01  0.16151683207E+02  0.51100000000E-03 0.  1.
        -12    1    3    3    0    0  0.20360733933E+02 -0.92321414376E+01 -0.16505030489E+02  0.27788629927E+02  0.00000000000E+00 0.  1.
</event>
<event>
 7    1  0.3509180E-013  0.7246158E+02  0.7816164E-02  0.1226708E+00
        -11   -1    0    0    0    0  0.00000000000E+00  0.00000000000E+00  0.45593999997E+02  0.45594000000E+02  0.51100000000E-03 0.  1.
         11   -1    0    0    0    0 -0.00000000000E+00 -0.00000000000E+00 -0.45593999997E+02  0.45594000000E+02  0.51100000000E-03 0. -1.
    9900012    2    1    2    0    0 -0.65400390232E+01 -0.53374501183E+01 -0.16715812370E+02  0.72461578362E+02  0.70000010509E+02 0.  0.
        -12    1    1    2    0    0  0.65400390232E+01  0.53374501183E+01  0.16715812370E+02  0.18726421638E+02  0.00000000000E+00 0.  1.
         11    1    3    3    0    0 -0.14992925839E+01  0.24486936070E+01  0.12281654955E+02  0.12612812031E+02  0.51100000000E-03 0. -1.
        -11    1    3    3    0    0 -0.27063712382E+01 -0.13112404382E+02  0.12277699297E+02  0.18165943252E+02  0.51100000000E-03 0.  1.
         12    1    3    3    0    0 -0.23343752011E+01  0.53262606571E+01 -0.41275166622E+02  0.41682823079E+02  0.00000000000E+00 0. -1.
</event>
<event>
 7    1  0.3509180E-013  0.7246156E+02  0.7816164E-02  0.1226708E+00
        -11   -1    0    0    0    0  0.00000000000E+00  0.00000000000E+00  0.45593999997E+02  0.45594000000E+02  0.51100000000E-03 0.  1.
         11   -1    0    0    0    0 -0.00000000000E+00 -0.00000000000E+00 -0.45593999997E+02  0.45594000000E+02  0.51100000000E-03 0. -1.
    9900012    2    1    2    0    0 -0.56760807397E+01 -0.17110103333E+02 -0.50701206724E+01  0.72461557405E+02  0.69999983209E+02 0.  0.
        -12    1    1    2    0    0  0.56760807397E+01  0.17110103333E+02  0.50701206724E+01  0.18726442595E+02  0.00000000000E+00 0.  1.
         11    1    3    3    0    0 -0.60216103610E+01 -0.21149126157E+02  0.22700120148E+02  0.31604442465E+02  0.51100000000E-03 0. -1.
        -11    1    3    3    0    0  0.11750013898E+02  0.19383923963E+01 -0.13265369184E+01  0.11982482720E+02  0.51100000000E-03 0.  1.
         12    1    3    3    0    0 -0.11404484277E+02  0.21006304273E+01 -0.26443703902E+02  0.28874632220E+02  0.00000000000E+00 0. -1.
</event>
<event>
 7    1  0.3509180E-013  0.7246161E+02  0.7816164E-02  0.1226708E+00
        -11   -1    0    0    0    0  0.00000000000E+00  0.00000000000E+00  0.45593999997E+02  0.45594000000E+02  0.51100000000E-03 0. -1.
         11   -1    0    0    0    0 -0.00000000000E+00 -0.00000000000E+00 -0.45593999997E+02  0.45594000000E+02  0.51100000000E-03 0.  1.
    9900012    2    1    2    0    0 -0.13447713898E+01  0.21710762582E+01  0.18551432804E+02  0.72461611098E+02  0.70000053155E+02 0.  0.
        -12    1    1    2    0    0  0.13447713898E+01 -0.21710762582E+01 -0.18551432804E+02  0.18726388902E+02  0.00000000000E+00 0.  1.
         11    1    3    3    0    0 -0.13431976020E+02  0.13890584891E+01 -0.14200270591E+01  0.13578068360E+02  0.51100000000E-03 0.  1.
        -11    1    3    3    0    0 -0.21602952799E+01 -0.22870937044E+02  0.21177397688E+02  0.31244660505E+02  0.51100000000E-03 0. -1.
        -12    1    3    3    0    0  0.14247499910E+02  0.23652954813E+02 -0.12059378253E+01  0.27638882233E+02  0.00000000000E+00 0.  1.
</event>
<event>
 7    1  0.3509180E-013  0.7246158E+02  0.7816164E-02  0.1226708E+00
        -11   -1    0    0    0    0  0.00000000000E+00  0.00000000000E+00  0.45593999997E+02  0.45594000000E+02  0.51100000000E-03 0.  1.
         11   -1    0    0    0    0 -0.00000000000E+00 -0.00000000000E+00 -0.45593999997E+02  0.45594000000E+02  0.51100000000E-03 0. -1.
    9900012    2    1    2    0    0 -0.17779737587E+01  0.28157955170E+01 -0.18427935047E+02  0.72461583227E+02  0.70000016847E+02 0.  0.
        -12    1    1    2    0    0  0.17779737587E+01 -0.28157955170E+01  0.18427935047E+02  0.18726416773E+02  0.00000000000E+00 0.  1.
         11    1    3    3    0    0 -0.16345678730E+02  0.61410472538E+01 -0.56574005509E+01  0.18354831947E+02  0.51100000000E-03 0. -1.
        -11    1    3    3    0    0 -0.95290378248E+01  0.17801776137E+02 -0.79449144378E+01  0.21698558965E+02  0.51100000000E-03 0.  1.
         12    1    3    3    0    0  0.24096742797E+02 -0.21127027873E+02 -0.48256200580E+01  0.32408192315E+02  0.00000000000E+00 0. -1.
</event>
<event>
 7    1  0.3509180E-013  0.7246160E+02  0.7816164E-02  0.1226708E+00
        -11   -1    0    0    0    0  0.00000000000E+00  0.00000000000E+00  0.45593999997E+02  0.45594000000E+02  0.51100000000E-03 0. -1.
         11   -1    0    0    0    0 -0.00000000000E+00 -0.00000000000E+00 -0.45593999997E+02  0.45594000000E+02  0.51100000000E-03 0.  1.
    9900012    2    1    2    0    0 -0.22894262048E+01 -0.14845673155E+02  0.11182245597E+02  0.72461598841E+02  0.70000037187E+02 0.  0.
        -12    1    1    2    0    0  0.22894262048E+01  0.14845673155E+02 -0.11182245597E+02  0.18726401159E+02  0.00000000000E+00 0.  1.
         11    1    3    3    0    0  0.10615093938E+02 -0.30115778028E+02  0.12023026334E+02  0.34120279426E+02  0.51100000000E-03 0. -1.
        -11    1    3    3    0    0  0.89510592248E+01  0.79220004739E+01 -0.77798576538E+01  0.14262038358E+02  0.51100000000E-03 0.  1.
        -12    1    3    3    0    0 -0.21855579368E+02  0.73481043993E+01  0.69390769167E+01  0.24079281057E+02  0.00000000000E+00 0.  1.
</event>
<event>
 7    1  0.3509180E-013  0.7246156E+02  0.7816164E-02  0.1226708E+00
        -11   -1    0    0    0    0  0.00000000000E+00  0.00000000000E+00  0.45593999997E+02  0.45594000000E+02  0.51100000000E-03 0.  1.
         11   -1    0    0    0    0 -0.00000000000E+00 -0.00000000000E+00 -0.45593999997E+02  0.45594000000E+02  0.51100000000E-03 0. -1.
    9900012    2    1    2    0    0 -0.59533818541E+01  0.79261257580E+01 -0.15887518896E+02  0.72461561959E+02  0.69999989141E+02 0.  0.
        -12    1    1    2    0    0  0.59533818541E+01 -0.79261257580E+01  0.15887518896E+02  0.18726438041E+02  0.00000000000E+00 0.  1.
         11    1    3    3    0    0 -0.12027145232E+02  0.26385936604E+02 -0.19498717888E+02  0.34943810217E+02  0.51100000000E-03 0. -1.
        -11    1    3    3    0    0  0.52740513291E+01 -0.69817624398E+01 -0.13983215446E+02  0.16495179255E+02  0.51100000000E-03 0.  1.
        -12    1    3    3    0    0  0.79971204908E+00 -0.11478048406E+02  0.17594414437E+02  0.21022572487E+02  0.00000000000E+00 0.  1.
</event>
<event>
 7    1  0.3509180E-013  0.7246159E+02  0.7816164E-02  0.1226708E+00
        -11   -1    0    0    0    0  0.00000000000E+00  0.00000000000E+00  0.45593999997E+02  0.45594000000E+02  0.51100000000E-03 0. -1.
         11   -1    0    0    0    0 -0.00000000000E+00 -0.00000000000E+00 -0.45593999997E+02  0.45594000000E+02  0.51100000000E-03 0.  1.
    9900012    2    1    2    0    0  0.11691532325E+02  0.14520554554E+02  0.17719971827E+01  0.72461590662E+02  0.70000026533E+02 0.  0.
        -12    1    1    2    0    0 -0.11691532325E+02 -0.14520554554E+02 -0.17719971827E+01  0.18726409338E+02  0.00000000000E+00 0.  1.
         11    1    3    3    0    0 -0.56541527884E+01 -0.40255694437E+01  0.15734157899E+00  0.69425794726E+01  0.51100000000E-03 0. -1.
        -11    1    3    3    0    0  0.19188919290E+02  0.32585144615E+02 -0.17551253365E+02  0.41689960039E+02  0.51100000000E-03 0.  1.
         12    1    3    3    0    0 -0.18432341762E+01 -0.14039020617E+02  0.19165908969E+02  0.23829051150E+02  0.00000000000E+00 0. -1.
</event>
<event>
 7    1  0.3509180E-013  0.7246146E+02  0.7816164E-02  0.1226708E+00
        -11   -1    0    0    0    0  0.00000000000E+00  0.00000000000E+00  0.45593999997E+02  0.45594000000E+02  0.51100000000E-03 0. -1.
         11   -1    0    0    0    0 -0.00000000000E+00 -0.00000000000E+00 -0.45593999997E+02  0.45594000000E+02  0.51100000000E-03 0.  1.
    9900012    2    1    2    0    0 -0.15173587109E+02 -0.10967819039E+02 -0.39054611651E+00  0.72461459302E+02  0.69999855412E+02 0.  0.
        -12    1    1    2    0    0  0.15173587109E+02  0.10967819039E+02  0.39054611651E+00  0.18726540698E+02  0.00000000000E+00 0.  1.
         11    1    3    3    0    0 -0.21329934037E+02  0.11086345098E+02  0.12711595529E+02  0.27192973262E+02  0.51100000000E-03 0. -1.
        -11    1    3    3    0    0 -0.16578877751E+01  0.67782942638E+01  0.65018377364E+01  0.95377019881E+01  0.51100000000E-03 0.  1.
        -12    1    3    3    0    0  0.78142347033E+01 -0.28832458401E+02 -0.19603979382E+02  0.35730784053E+02  0.00000000000E+00 0.  1.
</event>
<event>
 7    1  0.3509180E-013  0.7246156E+02  0.7816164E-02  0.1226708E+00
        -11   -1    0    0    0    0  0.00000000000E+00  0.00000000000E+00  0.45593999997E+02  0.45594000000E+02  0.51100000000E-03 0.  1.
         11   -1    0    0    0    0 -0.00000000000E+00 -0.00000000000E+00 -0.45593999997E+02  0.45594000000E+02  0.51100000000E-03 0. -1.
    9900012    2    1    2    0    0 -0.14428802910E+02  0.48829170321E+01 -0.10892482377E+02  0.72461564021E+02  0.69999991828E+02 0.  0.
        -12    1    1    2    0    0  0.14428802910E+02 -0.48829170321E+01  0.10892482377E+02  0.18726435979E+02  0.00000000000E+00 0.  1.
         11    1    3    3    0    0 -0.23584747588E+01  0.10572569942E+01 -0.16447923880E+02  0.16649756627E+02  0.51100000000E-03 0. -1.
        -11    1    3    3    0    0  0.12468176871E+02 -0.12827288186E-01 -0.17790828666E+02  0.21724851759E+02  0.51100000000E-03 0.  1.
         12    1    3    3    0    0 -0.24538505022E+02  0.38384873260E+01  0.23346270169E+02  0.34086955635E+02  0.00000000000E+00 0. -1.
</event>
<event>
 7    1  0.3509180E-013  0.7246157E+02  0.7816164E-02  0.1226708E+00
        -11   -1    0    0    0    0  0.00000000000E+00  0.00000000000E+00  0.45593999997E+02  0.45594000000E+02  0.51100000000E-03 0.  1.
         11   -1    0    0    0    0 -0.00000000000E+00 -0.00000000000E+00 -0.45593999997E+02  0.45594000000E+02  0.51100000000E-03 0. -1.
    9900012    2    1    2    0    0 -0.24924088078E+01  0.19180840357E+01 -0.18460441903E+02  0.72461573131E+02  0.70000003695E+02 0.  0.
        -12    1    1    2    0    0  0.24924088078E+01 -0.19180840357E+01  0.18460441903E+02  0.18726426869E+02  0.00000000000E+00 0.  1.
         11    1    3    3    0    0  0.68482474869E+01 -0.51071527480E+01 -0.71009919642E+01  0.11108806865E+02  0.51100000000E-03 0. -1.
        -11    1    3    3    0    0 -0.11648069978E+02 -0.23127594876E+02  0.58641216314E+01  0.26550915271E+02  0.51100000000E-03 0.  1.
        -12    1    3    3    0    0  0.23074136832E+01  0.30152831660E+02 -0.17223571570E+02  0.34801850994E+02  0.00000000000E+00 0.  1.
</event>
<event>
 7    1  0.3509180E-013  0.7246157E+02  0.7816164E-02  0.1226708E+00
        -11   -1    0    0    0    0  0.00000000000E+00  0.00000000000E+00  0.45593999997E+02  0.45594000000E+02  0.51100000000E-03 0.  1.
         11   -1    0    0    0    0 -0.00000000000E+00 -0.00000000000E+00 -0.45593999997E+02  0.45594000000E+02  0.51100000000E-03 0. -1.
    9900012    2    1    2    0    0 -0.87181985051E+01  0.16506835603E+02  0.14821017643E+01  0.72461568614E+02  0.69999997811E+02 0.  0.
        -12    1    1    2    0    0  0.87181985051E+01 -0.16506835603E+02 -0.14821017643E+01  0.18726431386E+02  0.00000000000E+00 0.  1.
         11    1    3    3    0    0  0.37450411772E+01  0.19199836531E+02 -0.16825367742E+01  0.19633898912E+02  0.51100000000E-03 0. -1.
        -11    1    3    3    0    0 -0.24761943801E+00  0.22417719729E+02  0.92425147426E+01  0.24249526847E+02  0.51100000000E-03 0.  1.
        -12    1    3    3    0    0 -0.12215620244E+02 -0.25110720657E+02 -0.60778762040E+01  0.28578142855E+02  0.00000000000E+00 0.  1.
</event>
<event>
 7    1  0.3509180E-013  0.7246159E+02  0.7816164E-02  0.1226708E+00
        -11   -1    0    0    0    0  0.00000000000E+00  0.00000000000E+00  0.45593999997E+02  0.45594000000E+02  0.51100000000E-03 0.  1.
         11   -1    0    0    0    0 -0.00000000000E+00 -0.00000000000E+00 -0.45593999997E+02  0.45594000000E+02  0.51100000000E-03 0. -1.
    9900012    2    1    2    0    0 -0.15236557318E+02 -0.87652468491E+01 -0.64572576820E+01  0.72461590627E+02  0.70000026487E+02 0.  0.
        -12    1    1    2    0    0  0.15236557318E+02  0.87652468491E+01  0.64572576820E+01  0.18726409373E+02  0.00000000000E+00 0.  1.
         11    1    3    3    0    0  0.21244893749E+02 -0.21020597200E+02  0.18536008711E+01  0.29944062074E+02  0.51100000000E-03 0. -1.
        -11    1    3    3    0    0 -0.67600476803E+01  0.59045715531E+01 -0.81515588313E+01  0.12124773050E+02  0.51100000000E-03 0.  1.
        -12    1    3    3    0    0 -0.29721403387E+02  0.63507787976E+01 -0.15929972180E+00  0.30392755503E+02  0.00000000000E+00 0.  1.
</event>
<event>
 7    1  0.3509180E-013  0.7246159E+02  0.7816164E-02  0.1226708E+00
        -11   -1    0    0    0    0  0.00000000000E+00  0.00000000000E+00  0.45593999997E+02  0.45594000000E+02  0.51100000000E-03 0. -1.
         11   -1    0    0    0    0 -0.00000000000E+00 -0.00000000000E+00 -0.45593999997E+02  0.45594000000E+02  0.51100000000E-03 0.  1.
    9900012    2    1    2    0    0  0.14799926484E+02 -0.40534753618E+01  0.10733589282E+02  0.72461590165E+02  0.70000025885E+02 0.  0.
        -12    1    1    2    0    0 -0.14799926484E+02  0.40534753618E+01 -0.10733589282E+02  0.18726409835E+02  0.00000000000E+00 0.  1.
         11    1    3    3    0    0  0.22873033200E+02  0.63958290166E+01 -0.70627194140E+00  0.23760915321E+02  0.51100000000E-03 0. -1.
        -11    1    3    3    0    0  0.16283553807E+02  0.56009583355E+01  0.89982773401E+01  0.19429201070E+02  0.51100000000E-03 0.  1.
        -12    1    3    3    0    0 -0.24356660523E+02 -0.16050262714E+02  0.24415838831E+01  0.29271473774E+02  0.00000000000E+00 0.  1.
</event>
<event>
 7    1  0.3509180E-013  0.7246159E+02  0.7816164E-02  0.1226708E+00
        -11   -1    0    0    0    0  0.00000000000E+00  0.00000000000E+00  0.45593999997E+02  0.45594000000E+02  0.51100000000E-03 0. -1.
         11   -1    0    0    0    0 -0.00000000000E+00 -0.00000000000E+00 -0.45593999997E+02  0.45594000000E+02  0.51100000000E-03 0.  1.
    9900012    2    1    2    0    0 -0.94765391195E+01  0.14033342935E+02  0.79961886857E+01  0.72461587073E+02  0.70000021858E+02 0.  0.
        -12    1    1    2    0    0  0.94765391195E+01 -0.14033342935E+02 -0.79961886857E+01  0.18726412927E+02  0.00000000000E+00 0.  1.
         11    1    3    3    0    0  0.61734278383E+01 -0.11640996369E+01  0.98497606449E+00  0.63589714065E+01  0.51100000000E-03 0. -1.
        -11    1    3    3    0    0 -0.13791653257E+02  0.10704634713E+02 -0.26777371454E+02  0.31966021431E+02  0.51100000000E-03 0.  1.
         12    1    3    3    0    0 -0.18583137007E+01  0.44928078589E+01  0.33788584075E+02  0.34136594236E+02  0.00000000000E+00 0. -1.
</event>
<event>
 7    1  0.3509180E-013  0.7246153E+02  0.7816164E-02  0.1226708E+00
        -11   -1    0    0    0    0  0.00000000000E+00  0.00000000000E+00  0.45593999997E+02  0.45594000000E+02  0.51100000000E-03 0.  1.
         11   -1    0    0    0    0 -0.00000000000E+00 -0.00000000000E+00 -0.45593999997E+02  0.45594000000E+02  0.51100000000E-03 0. -1.
    9900012    2    1    2    0    0  0.96323623675E+01 -0.10363055706E+02 -0.12268059209E+02  0.72461531964E+02  0.69999950068E+02 0.  0.
        -12    1    1    2    0    0 -0.96323623675E+01  0.10363055706E+02  0.12268059209E+02  0.18726468036E+02  0.00000000000E+00 0.  1.
         11    1    3    3    0    0  0.13883461359E+02 -0.31032032912E+02 -0.15915977427E+02  0.37537393405E+02  0.51100000000E-03 0. -1.
        -11    1    3    3    0    0  0.65233898703E+01  0.48009530546E+01 -0.88767638080E+01  0.12016684301E+02  0.51100000000E-03 0.  1.
        -12    1    3    3    0    0 -0.10774488862E+02  0.15868024151E+02  0.12524682026E+02  0.22907454257E+02  0.00000000000E+00 0.  1.
</event>
<event>
 7    1  0.3509180E-013  0.7246166E+02  0.7816164E-02  0.1226708E+00
        -11   -1    0    0    0    0  0.00000000000E+00  0.00000000000E+00  0.45593999997E+02  0.45594000000E+02  0.51100000000E-03 0. -1.
         11   -1    0    0    0    0 -0.00000000000E+00 -0.00000000000E+00 -0.45593999997E+02  0.45594000000E+02  0.51100000000E-03 0.  1.
    9900012    2    1    2    0    0 -0.39345128295E+01  0.15210848831E+02  0.10189484856E+02  0.72461657191E+02  0.70000113199E+02 0.  0.
        -12    1    1    2    0    0  0.39345128295E+01 -0.15210848831E+02 -0.10189484856E+02  0.18726342809E+02  0.00000000000E+00 0.  1.
         11    1    3    3    0    0  0.14553171827E+02  0.20388008275E+02 -0.15298411221E+01  0.25095938033E+02  0.51100000000E-03 0. -1.
        -11    1    3    3    0    0  0.79440957722E+01  0.11120273729E+02  0.86231320114E+01  0.16159441556E+02  0.51100000000E-03 0.  1.
        -12    1    3    3    0    0 -0.26431780429E+02 -0.16297433173E+02  0.30961939669E+01  0.31206277601E+02  0.00000000000E+00 0.  1.
</event>
<event>
 7    1  0.3509180E-013  0.7246155E+02  0.7816164E-02  0.1226708E+00
        -11   -1    0    0    0    0  0.00000000000E+00  0.00000000000E+00  0.45593999997E+02  0.45594000000E+02  0.51100000000E-03 0. -1.
         11   -1    0    0    0    0 -0.00000000000E+00 -0.00000000000E+00 -0.45593999997E+02  0.45594000000E+02  0.51100000000E-03 0.  1.
    9900012    2    1    2    0    0 -0.14599702686E+02  0.11598175954E+02 -0.17351608148E+01  0.72461553806E+02  0.69999978521E+02 0.  0.
        -12    1    1    2    0    0  0.14599702686E+02 -0.11598175954E+02  0.17351608148E+01  0.18726446194E+02  0.00000000000E+00 0.  1.
         11    1    3    3    0    0 -0.23528895328E+02  0.11404073792E+01  0.24309483906E+02  0.33850560592E+02  0.51100000000E-03 0. -1.
        -11    1    3    3    0    0 -0.67661218978E+01 -0.28994354219E+01 -0.10373917949E+02  0.12720271427E+02  0.51100000000E-03 0.  1.
        -12    1    3    3    0    0  0.15695314540E+02  0.13357203997E+02 -0.15670726771E+02  0.25890721787E+02  0.00000000000E+00 0.  1.
</event>
<event>
 7    1  0.3509180E-013  0.7246162E+02  0.7816164E-02  0.1226708E+00
        -11   -1    0    0    0    0  0.00000000000E+00  0.00000000000E+00  0.45593999997E+02  0.45594000000E+02  0.51100000000E-03 0. -1.
         11   -1    0    0    0    0 -0.00000000000E+00 -0.00000000000E+00 -0.45593999997E+02  0.45594000000E+02  0.51100000000E-03 0.  1.
    9900012    2    1    2    0    0  0.14334294769E+02  0.11085316822E+02 -0.47245291140E+01  0.72461616716E+02  0.70000060472E+02 0.  0.
        -12    1    1    2    0    0 -0.14334294769E+02 -0.11085316822E+02  0.47245291140E+01  0.18726383284E+02  0.00000000000E+00 0.  1.
         11    1    3    3    0    0  0.15399499943E+02 -0.19242821981E+02  0.13928660202E+02  0.28309686885E+02  0.51100000000E-03 0. -1.
        -11    1    3    3    0    0 -0.93497746646E+01  0.64347439361E+01  0.19702569188E+01  0.11519814599E+02  0.51100000000E-03 0.  1.
        -12    1    3    3    0    0  0.82845694906E+01  0.23893394867E+02 -0.20623446235E+02  0.32632115232E+02  0.00000000000E+00 0.  1.
</event>
<event>
 7    1  0.3509180E-013  0.7246155E+02  0.7816164E-02  0.1226708E+00
        -11   -1    0    0    0    0  0.00000000000E+00  0.00000000000E+00  0.45593999997E+02  0.45594000000E+02  0.51100000000E-03 0. -1.
         11   -1    0    0    0    0 -0.00000000000E+00 -0.00000000000E+00 -0.45593999997E+02  0.45594000000E+02  0.51100000000E-03 0.  1.
    9900012    2    1    2    0    0  0.80322381870E+01  0.11286484412E+02  0.12600722396E+02  0.72461553845E+02  0.69999978572E+02 0.  0.
        -12    1    1    2    0    0 -0.80322381870E+01 -0.11286484412E+02 -0.12600722396E+02  0.18726446155E+02  0.00000000000E+00 0.  1.
         11    1    3    3    0    0  0.11456558675E+02  0.15694343013E+02  0.82717728564E+01  0.21118412955E+02  0.51100000000E-03 0. -1.
        -11    1    3    3    0    0 -0.23311707705E+02  0.10692244937E+02 -0.15374806793E+01  0.25692871872E+02  0.51100000000E-03 0.  1.
         12    1    3    3    0    0  0.19887387217E+02 -0.15100103538E+02  0.58664302194E+01  0.25650269018E+02  0.00000000000E+00 0. -1.
</event>
<event>
 7    1  0.3509180E-013  0.7246156E+02  0.7816164E-02  0.1226708E+00
        -11   -1    0    0    0    0  0.00000000000E+00  0.00000000000E+00  0.45593999997E+02  0.45594000000E+02  0.51100000000E-03 0. -1.
         11   -1    0    0    0    0 -0.00000000000E+00 -0.00000000000E+00 -0.45593999997E+02  0.45594000000E+02  0.51100000000E-03 0.  1.
    9900012    2    1    2    0    0 -0.38530057617E+01  0.18034132357E+02 -0.32563587724E+01  0.72461562653E+02  0.69999990045E+02 0.  0.
        -12    1    1    2    0    0  0.38530057617E+01 -0.18034132357E+02  0.32563587724E+01  0.18726437347E+02  0.00000000000E+00 0.  1.
         11    1    3    3    0    0  0.76354011836E+01  0.18364669215E+02  0.18841332528E+02  0.27396281468E+02  0.51100000000E-03 0. -1.
        -11    1    3    3    0    0  0.88532448619E+01  0.93475019892E-01  0.57645926156E+01  0.10564999311E+02  0.51100000000E-03 0.  1.
        -12    1    3    3    0    0 -0.20341651807E+02 -0.42401187788E+00 -0.27862283916E+02  0.34500281873E+02  0.00000000000E+00 0.  1.
</event>
<event>
 7    1  0.3509180E-013  0.7246159E+02  0.7816164E-02  0.1226708E+00
        -11   -1    0    0    0    0  0.00000000000E+00  0.00000000000E+00  0.45593999997E+02  0.45594000000E+02  0.51100000000E-03 0.  1.
         11   -1    0    0    0    0 -0.00000000000E+00 -0.00000000000E+00 -0.45593999997E+02  0.45594000000E+02  0.51100000000E-03 0. -1.
    9900012    2    1    2    0    0  0.18517555494E+02  0.22967244853E+01  0.15822521341E+01  0.72461592799E+02  0.70000029317E+02 0.  0.
        -12    1    1    2    0    0 -0.18517555494E+02 -0.22967244853E+01 -0.15822521341E+01  0.18726407201E+02  0.00000000000E+00 0.  1.
         11    1    3    3    0    0  0.77911838192E+00 -0.10448446328E+02 -0.26925744712E+01  0.10817902462E+02  0.51100000000E-03 0. -1.
        -11    1    3    3    0    0  0.15495125849E+02 -0.85108944906E+01  0.25821727736E+02  0.31293703418E+02  0.51100000000E-03 0.  1.
         12    1    3    3    0    0  0.22433112634E+01  0.21256065304E+02 -0.21546901131E+02  0.30349986919E+02  0.00000000000E+00 0. -1.
</event>
<event>
 7    1  0.3523045E-013  0.7246155E+02  0.7816164E-02  0.1226708E+00
        -11   -1    0    0    0    0  0.00000000000E+00  0.00000000000E+00  0.45593999997E+02  0.45594000000E+02  0.51100000000E-03 0. -1.
         11   -1    0    0    0    0 -0.00000000000E+00 -0.00000000000E+00 -0.45593999997E+02  0.45594000000E+02  0.51100000000E-03 0.  1.
    9900012    2    1    2    0    0 -0.46298993891E+01  0.15251765056E+02  0.98299390213E+01  0.72461547938E+02  0.69999970876E+02 0.  0.
        -12    1    1    2    0    0  0.46298993891E+01 -0.15251765056E+02 -0.98299390213E+01  0.18726452062E+02  0.00000000000E+00 0.  1.
         11    1    3    3    0    0 -0.15878112199E+02 -0.37153782111E+01  0.25395420974E+02  0.30180223474E+02  0.51100000000E-03 0. -1.
        -11    1    3    3    0    0 -0.89203404497E+01  0.17978920579E+00 -0.11287649330E+02  0.14388044535E+02  0.51100000000E-03 0.  1.
        -12    1    3    3    0    0  0.20168553260E+02  0.18787354061E+02 -0.42778326229E+01  0.27893279928E+02  0.00000000000E+00 0.  1.
</event>
<event>
 7    1  0.3509180E-013  0.7246158E+02  0.7816164E-02  0.1226708E+00
        -11   -1    0    0    0    0  0.00000000000E+00  0.00000000000E+00  0.45593999997E+02  0.45594000000E+02  0.51100000000E-03 0.  1.
         11   -1    0    0    0    0 -0.00000000000E+00 -0.00000000000E+00 -0.45593999997E+02  0.45594000000E+02  0.51100000000E-03 0. -1.
    9900012    2    1    2    0    0  0.46076374926E+01 -0.68680360706E+01 -0.16801150961E+02  0.72461577054E+02  0.70000008806E+02 0.  0.
        -12    1    1    2    0    0 -0.46076374926E+01  0.68680360706E+01  0.16801150961E+02  0.18726422946E+02  0.00000000000E+00 0.  1.
         11    1    3    3    0    0 -0.16008984772E+02  0.20961048957E+01 -0.82776218862E+01  0.18143877026E+02  0.51100000000E-03 0. -1.
        -11    1    3    3    0    0  0.45506794588E+01  0.19813070206E+02 -0.22234253039E+00  0.20330171446E+02  0.51100000000E-03 0.  1.
         12    1    3    3    0    0  0.16065942806E+02 -0.28777211173E+02 -0.83011865441E+01  0.33987528583E+02  0.00000000000E+00 0. -1.
</event>
<event>
 7    1  0.3509180E-013  0.7246146E+02  0.7816164E-02  0.1226708E+00
        -11   -1    0    0    0    0  0.00000000000E+00  0.00000000000E+00  0.45593999997E+02  0.45594000000E+02  0.51100000000E-03 0.  1.
         11   -1    0    0    0    0 -0.00000000000E+00 -0.00000000000E+00 -0.45593999997E+02  0.45594000000E+02  0.51100000000E-03 0. -1.
    9900012    2    1    2    0    0 -0.11314745179E+02 -0.33291713683E+00 -0.14918079262E+02  0.72461457843E+02  0.69999853511E+02 0.  0.
        -12    1    1    2    0    0  0.11314745179E+02  0.33291713683E+00  0.14918079262E+02  0.18726542157E+02  0.00000000000E+00 0.  1.
         11    1    3    3    0    0 -0.43615430901E+01 -0.12183813038E+01 -0.16526894689E+02  0.17136095222E+02  0.51100000000E-03 0. -1.
        -11    1    3    3    0    0 -0.14823668932E+02  0.24599988005E+02 -0.57223827133E+01  0.29285597734E+02  0.51100000000E-03 0.  1.
        -12    1    3    3    0    0  0.78704668425E+01 -0.23714523838E+02  0.73311981406E+01  0.26039764887E+02  0.00000000000E+00 0.  1.
</event>
<event>
 7    1  0.3509180E-013  0.7246165E+02  0.7816164E-02  0.1226708E+00
        -11   -1    0    0    0    0  0.00000000000E+00  0.00000000000E+00  0.45593999997E+02  0.45594000000E+02  0.51100000000E-03 0. -1.
         11   -1    0    0    0    0 -0.00000000000E+00 -0.00000000000E+00 -0.45593999997E+02  0.45594000000E+02  0.51100000000E-03 0.  1.
    9900012    2    1    2    0    0  0.16904247265E+00  0.86121482813E+00  0.18705772319E+02  0.72461649998E+02  0.70000103829E+02 0.  0.
        -12    1    1    2    0    0 -0.16904247265E+00 -0.86121482813E+00 -0.18705772319E+02  0.18726350002E+02  0.00000000000E+00 0.  1.
         11    1    3    3    0    0  0.41038676567E+01  0.22229947662E+01 -0.67822105042E+01  0.82329712169E+01  0.51100000000E-03 0. -1.
        -11    1    3    3    0    0 -0.21760178535E+02 -0.54032671261E+01 -0.98146340069E+01  0.24475042522E+02  0.51100000000E-03 0.  1.
         12    1    3    3    0    0  0.17825353351E+02  0.40414871881E+01  0.35302616830E+02  0.39753636259E+02  0.00000000000E+00 0. -1.
</event>
<event>
 7    1  0.3509180E-013  0.7246155E+02  0.7816164E-02  0.1226708E+00
        -11   -1    0    0    0    0  0.00000000000E+00  0.00000000000E+00  0.45593999997E+02  0.45594000000E+02  0.51100000000E-03 0.  1.
         11   -1    0    0    0    0 -0.00000000000E+00 -0.00000000000E+00 -0.45593999997E+02  0.45594000000E+02  0.51100000000E-03 0. -1.
    9900012    2    1    2    0    0 -0.10854377993E+02 -0.14820112909E+02  0.36368381570E+01  0.72461551857E+02  0.69999975982E+02 0.  0.
        -12    1    1    2    0    0  0.10854377993E+02  0.14820112909E+02 -0.36368381570E+01  0.18726448143E+02  0.00000000000E+00 0.  1.
         11    1    3    3    0    0 -0.79058931797E+01 -0.29206234131E+01 -0.52314084773E+01  0.99197188976E+01  0.51100000000E-03 0. -1.
        -11    1    3    3    0    0 -0.17097373585E+02  0.20300597303E+02  0.62874095379E+01  0.27275739280E+02  0.51100000000E-03 0.  1.
        -12    1    3    3    0    0  0.14148888771E+02 -0.32200086799E+02  0.25808370964E+01  0.35266093679E+02  0.00000000000E+00 0.  1.
</event>
<event>
 7    1  0.3509180E-013  0.7246160E+02  0.7816164E-02  0.1226708E+00
        -11   -1    0    0    0    0  0.00000000000E+00  0.00000000000E+00  0.45593999997E+02  0.45594000000E+02  0.51100000000E-03 0.  1.
         11   -1    0    0    0    0 -0.00000000000E+00 -0.00000000000E+00 -0.45593999997E+02  0.45594000000E+02  0.51100000000E-03 0. -1.
    9900012    2    1    2    0    0  0.30478982959E+01 -0.15854196053E+01 -0.18408548205E+02  0.72461604555E+02  0.70000044631E+02 0.  0.
        -12    1    1    2    0    0 -0.30478982959E+01  0.15854196053E+01  0.18408548205E+02  0.18726395445E+02  0.00000000000E+00 0.  1.
         11    1    3    3    0    0  0.21272655495E+02 -0.10033999908E+02 -0.80524401309E+01  0.24860587650E+02  0.51100000000E-03 0. -1.
        -11    1    3    3    0    0  0.15380143436E+01  0.13593684618E+02  0.11366607225E+02  0.17786329293E+02  0.51100000000E-03 0.  1.
        -12    1    3    3    0    0 -0.19762771543E+02 -0.51451043158E+01 -0.21722715299E+02  0.29814687613E+02  0.00000000000E+00 0.  1.
</event>
<event>
 7    1  0.3509180E-013  0.7246157E+02  0.7816164E-02  0.1226708E+00
        -11   -1    0    0    0    0  0.00000000000E+00  0.00000000000E+00  0.45593999997E+02  0.45594000000E+02  0.51100000000E-03 0.  1.
         11   -1    0    0    0    0 -0.00000000000E+00 -0.00000000000E+00 -0.45593999997E+02  0.45594000000E+02  0.51100000000E-03 0. -1.
    9900012    2    1    2    0    0  0.53215962103E+00 -0.44011500292E+01 -0.18194113969E+02  0.72461572189E+02  0.70000002468E+02 0.  0.
        -12    1    1    2    0    0 -0.53215962103E+00  0.44011500292E+01  0.18194113969E+02  0.18726427811E+02  0.00000000000E+00 0.  1.
         11    1    3    3    0    0  0.28666765502E+01  0.12520837562E+02 -0.32701250913E+02  0.35133474341E+02  0.51100000000E-03 0. -1.
        -11    1    3    3    0    0 -0.10715789200E+02  0.16112802115E+00 -0.33546620762E+01  0.11229775524E+02  0.51100000000E-03 0.  1.
        -12    1    3    3    0    0  0.83812722705E+01 -0.17083115612E+02  0.17861799021E+02  0.26098322324E+02  0.00000000000E+00 0.  1.
</event>
<event>
 7    1  0.3509180E-013  0.7246220E+02  0.7816164E-02  0.1226706E+00
        -11   -1    0    0    0    0  0.00000000000E+00  0.00000000000E+00  0.45593999997E+02  0.45594000000E+02  0.51100000000E-03 0. -1.
         11   -1    0    0    0    0 -0.00000000000E+00 -0.00000000000E+00 -0.45593999997E+02  0.45594000000E+02  0.51100000000E-03 0.  1.
    9900012    2    1    2    0    0 -0.26560301031E+00 -0.16991672458E+02  0.78656354640E+01  0.72462196970E+02  0.70000816357E+02 0.  0.
        -12    1    1    2    0    0  0.26560301031E+00  0.16991672458E+02 -0.78656354640E+01  0.18725803030E+02  0.00000000000E+00 0.  1.
         11    1    3    3    0    0  0.52327572138E+00 -0.10711710714E+02  0.87400739990E+01  0.13834863847E+02  0.51100000000E-03 0. -1.
        -11    1    3    3    0    0  0.27234362334E+02  0.48309953164E+01  0.44498801504E+01  0.28015182332E+02  0.51100000000E-03 0.  1.
         12    1    3    3    0    0 -0.28023241065E+02 -0.11110957060E+02 -0.53243186855E+01  0.30612150791E+02  0.00000000000E+00 0. -1.
</event>
<event>
 7    1  0.3509180E-013  0.7246153E+02  0.7816164E-02  0.1226708E+00
        -11   -1    0    0    0    0  0.00000000000E+00  0.00000000000E+00  0.45593999997E+02  0.45594000000E+02  0.51100000000E-03 0.  1.
         11   -1    0    0    0    0 -0.00000000000E+00 -0.00000000000E+00 -0.45593999997E+02  0.45594000000E+02  0.51100000000E-03 0. -1.
    9900012    2    1    2    0    0 -0.25192855495E+01  0.18279643048E+02  0.31919209663E+01  0.72461534528E+02  0.69999953407E+02 0.  0.
        -12    1    1    2    0    0  0.25192855495E+01 -0.18279643048E+02 -0.31919209663E+01  0.18726465472E+02  0.00000000000E+00 0.  1.
         11    1    3    3    0    0  0.65946738992E+01 -0.16389581816E+02 -0.19260973084E+02  0.26136051736E+02  0.51100000000E-03 0. -1.
        -11    1    3    3    0    0 -0.28173602575E+01 -0.64805048138E+00 -0.14332354744E+01  0.32267092266E+01  0.51100000000E-03 0.  1.
        -12    1    3    3    0    0 -0.62965991912E+01  0.35317275345E+02  0.23886129525E+02  0.43098773565E+02  0.00000000000E+00 0.  1.
</event>
<event>
 7    1  0.3509180E-013  0.7246155E+02  0.7816164E-02  0.1226708E+00
        -11   -1    0    0    0    0  0.00000000000E+00  0.00000000000E+00  0.45593999997E+02  0.45594000000E+02  0.51100000000E-03 0.  1.
         11   -1    0    0    0    0 -0.00000000000E+00 -0.00000000000E+00 -0.45593999997E+02  0.45594000000E+02  0.51100000000E-03 0. -1.
    9900012    2    1    2    0    0 -0.17367506158E+02  0.69995234353E+01 -0.23740604786E+00  0.72461549185E+02  0.69999972501E+02 0.  0.
        -12    1    1    2    0    0  0.17367506158E+02 -0.69995234353E+01  0.23740604786E+00  0.18726450815E+02  0.00000000000E+00 0.  1.
         11    1    3    3    0    0 -0.28751420801E+02  0.72452871543E+01  0.77477059280E+01  0.30645804467E+02  0.51100000000E-03 0. -1.
        -11    1    3    3    0    0  0.13215869040E+02  0.42321928775E+01  0.13757870314E+02  0.19540973540E+02  0.51100000000E-03 0.  1.
         12    1    3    3    0    0 -0.18319543974E+01 -0.44779565965E+01 -0.21742982290E+02  0.22274771178E+02  0.00000000000E+00 0. -1.
</event>
<event>
 7    1  0.3509180E-013  0.7246175E+02  0.7816164E-02  0.1226708E+00
        -11   -1    0    0    0    0  0.00000000000E+00  0.00000000000E+00  0.45593999997E+02  0.45594000000E+02  0.51100000000E-03 0.  1.
         11   -1    0    0    0    0 -0.00000000000E+00 -0.00000000000E+00 -0.45593999997E+02  0.45594000000E+02  0.51100000000E-03 0. -1.
    9900012    2    1    2    0    0  0.10578226189E+02  0.14931501856E+02 -0.39779383335E+01  0.72461745426E+02  0.70000228141E+02 0.  0.
        -12    1    1    2    0    0 -0.10578226189E+02 -0.14931501856E+02  0.39779383335E+01  0.18726254574E+02  0.00000000000E+00 0.  1.
         11    1    3    3    0    0  0.43497112586E+00  0.53206567706E+01 -0.12590206289E+02  0.13675228810E+02  0.51100000000E-03 0. -1.
        -11    1    3    3    0    0 -0.54920586507E+01 -0.19337542218E+02  0.15238072229E+02  0.25225029094E+02  0.51100000000E-03 0.  1.
         12    1    3    3    0    0  0.15635313714E+02  0.28948387304E+02 -0.66258042737E+01  0.33561487522E+02  0.00000000000E+00 0. -1.
</event>
<event>
 7    1  0.3509180E-013  0.7246165E+02  0.7816164E-02  0.1226708E+00
        -11   -1    0    0    0    0  0.00000000000E+00  0.00000000000E+00  0.45593999997E+02  0.45594000000E+02  0.51100000000E-03 0.  1.
         11   -1    0    0    0    0 -0.00000000000E+00 -0.00000000000E+00 -0.45593999997E+02  0.45594000000E+02  0.51100000000E-03 0. -1.
    9900012    2    1    2    0    0  0.32127764706E+01 -0.56057959393E+01 -0.17576380804E+02  0.72461653775E+02  0.70000108749E+02 0.  0.
        -12    1    1    2    0    0 -0.32127764706E+01  0.56057959393E+01  0.17576380804E+02  0.18726346225E+02  0.00000000000E+00 0.  1.
         11    1    3    3    0    0 -0.98943767550E+01 -0.23370121281E+02 -0.15113217110E+02  0.29537613170E+02  0.51100000000E-03 0. -1.
        -11    1    3    3    0    0  0.13505380145E+02 -0.83994470329E+01 -0.49052139909E+01  0.16643531112E+02  0.51100000000E-03 0.  1.
         12    1    3    3    0    0 -0.39822691909E+00  0.26163772375E+02  0.24420502967E+01  0.26280509493E+02  0.00000000000E+00 0. -1.
</event>
<event>
 7    1  0.3509180E-013  0.7246094E+02  0.7816164E-02  0.1226710E+00
        -11   -1    0    0    0    0  0.00000000000E+00  0.00000000000E+00  0.45593999997E+02  0.45594000000E+02  0.51100000000E-03 0.  1.
         11   -1    0    0    0    0 -0.00000000000E+00 -0.00000000000E+00 -0.45593999997E+02  0.45594000000E+02  0.51100000000E-03 0. -1.
    9900012    2    1    2    0    0  0.10208538371E+02 -0.17335019745E+01 -0.15603959530E+02  0.72460938357E+02  0.69999176779E+02 0.  0.
        -12    1    1    2    0    0 -0.10208538371E+02  0.17335019745E+01  0.15603959530E+02  0.18727061643E+02  0.00000000000E+00 0.  1.
         11    1    3    3    0    0 -0.48001978095E-01  0.22370303312E+02 -0.46275706268E+01  0.22843974800E+02  0.51100000000E-03 0. -1.
        -11    1    3    3    0    0  0.67474204010E+01 -0.77025171790E+01  0.15319903548E+02  0.18427042572E+02  0.51100000000E-03 0.  1.
        -12    1    3    3    0    0  0.35091199484E+01 -0.16401288108E+02 -0.26296292451E+02  0.31189920986E+02  0.00000000000E+00 0.  1.
</event>
<event>
 7    1  0.3509180E-013  0.7246160E+02  0.7816164E-02  0.1226708E+00
        -11   -1    0    0    0    0  0.00000000000E+00  0.00000000000E+00  0.45593999997E+02  0.45594000000E+02  0.51100000000E-03 0.  1.
         11   -1    0    0    0    0 -0.00000000000E+00 -0.00000000000E+00 -0.45593999997E+02  0.45594000000E+02  0.51100000000E-03 0. -1.
    9900012    2    1    2    0    0 -0.73158984486E+01  0.11964024866E+02 -0.12410386824E+02  0.72461602529E+02  0.70000041992E+02 0.  0.
        -12    1    1    2    0    0  0.73158984486E+01 -0.11964024866E+02  0.12410386824E+02  0.18726397471E+02  0.00000000000E+00 0.  1.
         11    1    3    3    0    0  0.48798157328E+00 -0.71021905461E+01 -0.16843642285E+02  0.18286265946E+02  0.51100000000E-03 0. -1.
        -11    1    3    3    0    0  0.11366663369E+02 -0.10204031215E+02  0.10672540323E+02  0.18634012085E+02  0.51100000000E-03 0.  1.
         12    1    3    3    0    0 -0.19170543391E+02  0.29270246627E+02 -0.62392848624E+01  0.35541324498E+02  0.00000000000E+00 0. -1.
</event>
<event>
 7    1  0.3509180E-013  0.7246162E+02  0.7816164E-02  0.1226708E+00
        -11   -1    0    0    0    0  0.00000000000E+00  0.00000000000E+00  0.45593999997E+02  0.45594000000E+02  0.51100000000E-03 0. -1.
         11   -1    0    0    0    0 -0.00000000000E+00 -0.00000000000E+00 -0.45593999997E+02  0.45594000000E+02  0.51100000000E-03 0.  1.
    9900012    2    1    2    0    0  0.16100578857E+02  0.16180253809E+01 -0.94250003975E+01  0.72461620795E+02  0.70000065786E+02 0.  0.
        -12    1    1    2    0    0 -0.16100578857E+02 -0.16180253809E+01  0.94250003975E+01  0.18726379205E+02  0.00000000000E+00 0.  1.
         11    1    3    3    0    0  0.29446313429E+02 -0.67234530414E+01  0.19776928388E+01  0.30268820007E+02  0.51100000000E-03 0. -1.
        -11    1    3    3    0    0  0.58651870781E+01  0.11626665743E+02 -0.17461794978E+02  0.21782884563E+02  0.51100000000E-03 0.  1.
        -12    1    3    3    0    0 -0.19210921651E+02 -0.32851873211E+01  0.60591017415E+01  0.20409916225E+02  0.00000000000E+00 0.  1.
</event>
<event>
 7    1  0.3509180E-013  0.7246161E+02  0.7816164E-02  0.1226708E+00
        -11   -1    0    0    0    0  0.00000000000E+00  0.00000000000E+00  0.45593999997E+02  0.45594000000E+02  0.51100000000E-03 0. -1.
         11   -1    0    0    0    0 -0.00000000000E+00 -0.00000000000E+00 -0.45593999997E+02  0.45594000000E+02  0.51100000000E-03 0.  1.
    9900012    2    1    2    0    0 -0.67162665184E+01  0.61107199367E+01 -0.16377688677E+02  0.72461606314E+02  0.70000046923E+02 0.  0.
        -12    1    1    2    0    0  0.67162665184E+01 -0.61107199367E+01  0.16377688677E+02  0.18726393686E+02  0.00000000000E+00 0.  1.
         11    1    3    3    0    0 -0.58869527020E+01  0.12283982937E+02  0.28557625760E+00  0.13624756988E+02  0.51100000000E-03 0. -1.
        -11    1    3    3    0    0  0.18845922996E+02  0.34950892756E+01 -0.28174337439E+02  0.34076058355E+02  0.51100000000E-03 0.  1.
         12    1    3    3    0    0 -0.19675236812E+02 -0.96683522760E+01  0.11511072505E+02  0.24760790972E+02  0.00000000000E+00 0. -1.
</event>
<event>
 7    1  0.3509180E-013  0.7246155E+02  0.7816164E-02  0.1226708E+00
        -11   -1    0    0    0    0  0.00000000000E+00  0.00000000000E+00  0.45593999997E+02  0.45594000000E+02  0.51100000000E-03 0.  1.
         11   -1    0    0    0    0 -0.00000000000E+00 -0.00000000000E+00 -0.45593999997E+02  0.45594000000E+02  0.51100000000E-03 0. -1.
    9900012    2    1    2    0    0 -0.85693367669E+01  0.16316588435E+02 -0.33189296418E+01  0.72461551197E+02  0.69999975123E+02 0.  0.
        -12    1    1    2    0    0  0.85693367669E+01 -0.16316588435E+02  0.33189296418E+01  0.18726448803E+02  0.00000000000E+00 0.  1.
         11    1    3    3    0    0  0.21220675746E+02 -0.11715403868E+02  0.13272597974E+01  0.24276107302E+02  0.51100000000E-03 0. -1.
        -11    1    3    3    0    0  0.14540810511E+01  0.36831225579E+01  0.59812404223E+01  0.71732127203E+01  0.51100000000E-03 0.  1.
         12    1    3    3    0    0 -0.31244093564E+02  0.24348869746E+02 -0.10627429862E+02  0.41012231175E+02  0.00000000000E+00 0. -1.
</event>
<event>
 7    1  0.3509180E-013  0.7246152E+02  0.7816164E-02  0.1226708E+00
        -11   -1    0    0    0    0  0.00000000000E+00  0.00000000000E+00  0.45593999997E+02  0.45594000000E+02  0.51100000000E-03 0.  1.
         11   -1    0    0    0    0 -0.00000000000E+00 -0.00000000000E+00 -0.45593999997E+02  0.45594000000E+02  0.51100000000E-03 0. -1.
    9900012    2    1    2    0    0 -0.15077496442E+02 -0.76305814558E+01 -0.80699781408E+01  0.72461515560E+02  0.69999928698E+02 0.  0.
        -12    1    1    2    0    0  0.15077496442E+02  0.76305814558E+01  0.80699781408E+01  0.18726484440E+02  0.00000000000E+00 0.  1.
         11    1    3    3    0    0 -0.86066175726E+01 -0.38556105337E+01  0.25185523347E+01  0.97612860194E+01  0.51100000000E-03 0.  1.
        -11    1    3    3    0    0  0.46770800101E+01  0.25282701645E+02  0.73967778492E+01  0.26754483787E+02  0.51100000000E-03 0. -1.
         12    1    3    3    0    0 -0.11147958879E+02 -0.29057672567E+02 -0.17985308325E+02  0.35945745753E+02  0.00000000000E+00 0. -1.
</event>
<event>
 7    1  0.3509180E-013  0.7246155E+02  0.7816164E-02  0.1226708E+00
        -11   -1    0    0    0    0  0.00000000000E+00  0.00000000000E+00  0.45593999997E+02  0.45594000000E+02  0.51100000000E-03 0. -1.
         11   -1    0    0    0    0 -0.00000000000E+00 -0.00000000000E+00 -0.45593999997E+02  0.45594000000E+02  0.51100000000E-03 0.  1.
    9900012    2    1    2    0    0  0.15802705933E+01  0.29215001085E+01  0.18429532893E+02  0.72461545432E+02  0.69999967612E+02 0.  0.
        -12    1    1    2    0    0 -0.15802705933E+01 -0.29215001085E+01 -0.18429532893E+02  0.18726454568E+02  0.00000000000E+00 0.  1.
         11    1    3    3    0    0 -0.14853286138E+02  0.11398322655E+02 -0.35320262765E+01  0.19053007068E+02  0.51100000000E-03 0. -1.
        -11    1    3    3    0    0  0.87204314058E+01  0.13161804466E+02 -0.62905348872E+01  0.16995583254E+02  0.51100000000E-03 0.  1.
        -12    1    3    3    0    0  0.77131253253E+01 -0.21638627012E+02  0.28252094057E+02  0.36412955110E+02  0.00000000000E+00 0.  1.
</event>
<event>
 7    1  0.3509180E-013  0.7246141E+02  0.7816164E-02  0.1226708E+00
        -11   -1    0    0    0    0  0.00000000000E+00  0.00000000000E+00  0.45593999997E+02  0.45594000000E+02  0.51100000000E-03 0. -1.
         11   -1    0    0    0    0 -0.00000000000E+00 -0.00000000000E+00 -0.45593999997E+02  0.45594000000E+02  0.51100000000E-03 0.  1.
    9900012    2    1    2    0    0 -0.56282061962E+01  0.16412003198E+01  0.17785244161E+02  0.72461410525E+02  0.69999791871E+02 0.  0.
        -12    1    1    2    0    0  0.56282061962E+01 -0.16412003198E+01 -0.17785244161E+02  0.18726589475E+02  0.00000000000E+00 0.  1.
         11    1    3    3    0    0 -0.22153119345E+02  0.24452548001E+02  0.10666609561E+02  0.34676567884E+02  0.51100000000E-03 0. -1.
        -11    1    3    3    0    0  0.13497651913E+02 -0.18850952404E+01  0.93435997875E+01  0.16524014297E+02  0.51100000000E-03 0.  1.
        -12    1    3    3    0    0  0.30272612356E+01 -0.20926252441E+02 -0.22249651872E+01  0.21260828344E+02  0.00000000000E+00 0.  1.
</event>
<event>
 7    1  0.3509180E-013  0.7246159E+02  0.7816164E-02  0.1226708E+00
        -11   -1    0    0    0    0  0.00000000000E+00  0.00000000000E+00  0.45593999997E+02  0.45594000000E+02  0.51100000000E-03 0.  1.
         11   -1    0    0    0    0 -0.00000000000E+00 -0.00000000000E+00 -0.45593999997E+02  0.45594000000E+02  0.51100000000E-03 0. -1.
    9900012    2    1    2    0    0  0.15465804633E+02  0.83657916890E+01 -0.64421254072E+01  0.72461586481E+02  0.70000021086E+02 0.  0.
        -12    1    1    2    0    0 -0.15465804633E+02 -0.83657916890E+01  0.64421254072E+01  0.18726413519E+02  0.00000000000E+00 0.  1.
         11    1    3    3    0    0 -0.12341105335E+02  0.15905782637E+02 -0.54672301334E+01  0.20861145888E+02  0.51100000000E-03 0. -1.
        -11    1    3    3    0    0  0.15233326171E+02  0.92435348371E+01  0.16513808816E+02  0.24294094846E+02  0.51100000000E-03 0.  1.
         12    1    3    3    0    0  0.12573583796E+02 -0.16783525785E+02 -0.17488704090E+02  0.27306345746E+02  0.00000000000E+00 0. -1.
</event>
<event>
 7    1  0.3509180E-013  0.7246154E+02  0.7816164E-02  0.1226708E+00
        -11   -1    0    0    0    0  0.00000000000E+00  0.00000000000E+00  0.45593999997E+02  0.45594000000E+02  0.51100000000E-03 0. -1.
         11   -1    0    0    0    0 -0.00000000000E+00 -0.00000000000E+00 -0.45593999997E+02  0.45594000000E+02  0.51100000000E-03 0.  1.
    9900012    2    1    2    0    0 -0.74380935218E+01 -0.15420842933E+02 -0.75863477499E+01  0.72461539998E+02  0.69999960534E+02 0.  0.
        -12    1    1    2    0    0  0.74380935218E+01  0.15420842933E+02  0.75863477499E+01  0.18726460002E+02  0.00000000000E+00 0.  1.
         11    1    3    3    0    0  0.24048995057E+01 -0.14413619542E+02 -0.27710514588E+01  0.14873288015E+02  0.51100000000E-03 0. -1.
        -11    1    3    3    0    0  0.22124914456E+02  0.60623945245E+01 -0.88747240188E+01  0.24597259882E+02  0.51100000000E-03 0.  1.
         12    1    3    3    0    0 -0.31967907483E+02 -0.70696179156E+01  0.40594277277E+01  0.32990992101E+02  0.00000000000E+00 0. -1.
</event>
<event>
 7    1  0.3509180E-013  0.7246152E+02  0.7816164E-02  0.1226708E+00
        -11   -1    0    0    0    0  0.00000000000E+00  0.00000000000E+00  0.45593999997E+02  0.45594000000E+02  0.51100000000E-03 0. -1.
         11   -1    0    0    0    0 -0.00000000000E+00 -0.00000000000E+00 -0.45593999997E+02  0.45594000000E+02  0.51100000000E-03 0.  1.
    9900012    2    1    2    0    0 -0.46408274929E+01  0.88054107462E+01  0.15862172653E+02  0.72461519832E+02  0.69999934263E+02 0.  0.
        -12    1    1    2    0    0  0.46408274929E+01 -0.88054107462E+01 -0.15862172653E+02  0.18726480168E+02  0.00000000000E+00 0.  1.
         11    1    3    3    0    0  0.17976326513E+01  0.67805976335E+01  0.35834663879E+02  0.36514806900E+02  0.51100000000E-03 0. -1.
        -11    1    3    3    0    0  0.66369425480E+01 -0.57145537893E+01  0.22349621098E+01  0.90388155911E+01  0.51100000000E-03 0.  1.
         12    1    3    3    0    0 -0.13075402692E+02  0.77393669021E+01 -0.22207453336E+02  0.26907897340E+02  0.00000000000E+00 0. -1.
</event>
<event>
 7    1  0.3509180E-013  0.7246160E+02  0.7816164E-02  0.1226708E+00
        -11   -1    0    0    0    0  0.00000000000E+00  0.00000000000E+00  0.45593999997E+02  0.45594000000E+02  0.51100000000E-03 0. -1.
         11   -1    0    0    0    0 -0.00000000000E+00 -0.00000000000E+00 -0.45593999997E+02  0.45594000000E+02  0.51100000000E-03 0.  1.
    9900012    2    1    2    0    0 -0.50429243530E+01 -0.16462157467E+02  0.73650642365E+01  0.72461604573E+02  0.70000044654E+02 0.  0.
        -12    1    1    2    0    0  0.50429243530E+01  0.16462157467E+02 -0.73650642365E+01  0.18726395427E+02  0.00000000000E+00 0.  1.
         11    1    3    3    0    0  0.82963349353E+01 -0.72751045798E+01  0.96087208131E+01  0.14631604011E+02  0.51100000000E-03 0. -1.
        -11    1    3    3    0    0 -0.21883724270E+02 -0.25289938772E+02 -0.13873167796E+02  0.36206949277E+02  0.51100000000E-03 0.  1.
         12    1    3    3    0    0  0.85444649816E+01  0.16102885885E+02  0.11629511219E+02  0.21623051285E+02  0.00000000000E+00 0. -1.
</event>
<event>
 7    1  0.3509180E-013  0.7246162E+02  0.7816164E-02  0.1226708E+00
        -11   -1    0    0    0    0  0.00000000000E+00  0.00000000000E+00  0.45593999997E+02  0.45594000000E+02  0.51100000000E-03 0.  1.
         11   -1    0    0    0    0 -0.00000000000E+00 -0.00000000000E+00 -0.45593999997E+02  0.45594000000E+02  0.51100000000E-03 0. -1.
    9900012    2    1    2    0    0 -0.96489704055E+01 -0.84930640679E+01 -0.13617734825E+02  0.72461615701E+02  0.70000059151E+02 0.  0.
        -12    1    1    2    0    0  0.96489704055E+01  0.84930640679E+01  0.13617734825E+02  0.18726384299E+02  0.00000000000E+00 0.  1.
         11    1    3    3    0    0 -0.14615170071E+02  0.13480798521E+02 -0.84470070041E+01  0.21602940831E+02  0.51100000000E-03 0. -1.
        -11    1    3    3    0    0 -0.77403275471E-01 -0.26622167792E+01  0.19185192987E+02  0.19369177052E+02  0.51100000000E-03 0.  1.
         12    1    3    3    0    0  0.50436029413E+01 -0.19311645809E+02 -0.24355920807E+02  0.31489497819E+02  0.00000000000E+00 0. -1.
</event>
<event>
 7    1  0.3509180E-013  0.7246155E+02  0.7816164E-02  0.1226708E+00
        -11   -1    0    0    0    0  0.00000000000E+00  0.00000000000E+00  0.45593999997E+02  0.45594000000E+02  0.51100000000E-03 0.  1.
         11   -1    0    0    0    0 -0.00000000000E+00 -0.00000000000E+00 -0.45593999997E+02  0.45594000000E+02  0.51100000000E-03 0. -1.
    9900012    2    1    2    0    0 -0.77740513507E+01  0.17019466307E+02 -0.76285738371E+00  0.72461546541E+02  0.69999969056E+02 0.  0.
        -12    1    1    2    0    0  0.77740513507E+01 -0.17019466307E+02  0.76285738371E+00  0.18726453459E+02  0.00000000000E+00 0.  1.
         11    1    3    3    0    0 -0.25133294280E+02  0.90559533137E+01 -0.19532192965E+02  0.33093796006E+02  0.51100000000E-03 0. -1.
        -11    1    3    3    0    0 -0.78509204206E+01  0.44709294174E+01  0.35080654260E+01  0.96918875664E+01  0.51100000000E-03 0.  1.
        -12    1    3    3    0    0  0.25210163350E+02  0.34925835760E+01  0.15261270156E+02  0.29675862968E+02  0.00000000000E+00 0.  1.
</event>
<event>
 7    1  0.3509180E-013  0.7246158E+02  0.7816164E-02  0.1226708E+00
        -11   -1    0    0    0    0  0.00000000000E+00  0.00000000000E+00  0.45593999997E+02  0.45594000000E+02  0.51100000000E-03 0. -1.
         11   -1    0    0    0    0 -0.00000000000E+00 -0.00000000000E+00 -0.45593999997E+02  0.45594000000E+02  0.51100000000E-03 0.  1.
    9900012    2    1    2    0    0 -0.16519259579E+02  0.63938421810E+00  0.87968203626E+01  0.72461580222E+02  0.70000012932E+02 0.  0.
        -12    1    1    2    0    0  0.16519259579E+02 -0.63938421810E+00 -0.87968203626E+01  0.18726419778E+02  0.00000000000E+00 0.  1.
         11    1    3    3    0    0  0.21420459784E+01 -0.83532668845E+00 -0.12012353141E+02  0.12230403096E+02  0.51100000000E-03 0. -1.
        -11    1    3    3    0    0  0.14856992633E+02 -0.33706115067E+01 -0.66582446871E+01  0.16625987929E+02  0.51100000000E-03 0.  1.
         12    1    3    3    0    0 -0.33518298191E+02  0.48453224132E+01  0.27467418190E+02  0.43605189197E+02  0.00000000000E+00 0. -1.
</event>
<event>
 7    1  0.3509180E-013  0.7246157E+02  0.7816164E-02  0.1226708E+00
        -11   -1    0    0    0    0  0.00000000000E+00  0.00000000000E+00  0.45593999997E+02  0.45594000000E+02  0.51100000000E-03 0.  1.
         11   -1    0    0    0    0 -0.00000000000E+00 -0.00000000000E+00 -0.45593999997E+02  0.45594000000E+02  0.51100000000E-03 0. -1.
    9900012    2    1    2    0    0 -0.13163131347E+02 -0.13222941612E+02  0.16015830802E+01  0.72461567342E+02  0.69999996154E+02 0.  0.
        -12    1    1    2    0    0  0.13163131347E+02  0.13222941612E+02 -0.16015830802E+01  0.18726432658E+02  0.00000000000E+00 0.  1.
         11    1    3    3    0    0  0.42613858232E+01 -0.48493020573E+01 -0.13323231163E+02  0.14804851518E+02  0.51100000000E-03 0. -1.
        -11    1    3    3    0    0  0.30298834183E+01  0.16482331198E+02  0.18856662882E+02  0.25227389294E+02  0.51100000000E-03 0.  1.
         12    1    3    3    0    0 -0.20454400588E+02 -0.24855970753E+02 -0.39318486394E+01  0.32429326531E+02  0.00000000000E+00 0. -1.
</event>
<event>
 7    1  0.3509180E-013  0.7246156E+02  0.7816164E-02  0.1226708E+00
        -11   -1    0    0    0    0  0.00000000000E+00  0.00000000000E+00  0.45593999997E+02  0.45594000000E+02  0.51100000000E-03 0.  1.
         11   -1    0    0    0    0 -0.00000000000E+00 -0.00000000000E+00 -0.45593999997E+02  0.45594000000E+02  0.51100000000E-03 0. -1.
    9900012    2    1    2    0    0 -0.10269237986E+01 -0.79258425928E+01 -0.16935349726E+02  0.72461558170E+02  0.69999984206E+02 0.  0.
        -12    1    1    2    0    0  0.10269237986E+01  0.79258425928E+01  0.16935349726E+02  0.18726441830E+02  0.00000000000E+00 0.  1.
         11    1    3    3    0    0  0.20984433941E+01  0.19970288009E+02 -0.27431504575E+01  0.20266739811E+02  0.51100000000E-03 0. -1.
        -11    1    3    3    0    0  0.15426852838E+02 -0.10187416143E+02  0.61249283422E+01  0.19475265944E+02  0.51100000000E-03 0.  1.
         12    1    3    3    0    0 -0.18552220031E+02 -0.17708714460E+02 -0.20317127610E+02  0.32719552415E+02  0.00000000000E+00 0. -1.
</event>
<event>
 7    1  0.3509180E-013  0.7246159E+02  0.7816164E-02  0.1226708E+00
        -11   -1    0    0    0    0  0.00000000000E+00  0.00000000000E+00  0.45593999997E+02  0.45594000000E+02  0.51100000000E-03 0.  1.
         11   -1    0    0    0    0 -0.00000000000E+00 -0.00000000000E+00 -0.45593999997E+02  0.45594000000E+02  0.51100000000E-03 0. -1.
    9900012    2    1    2    0    0 -0.51974445636E+01  0.12448886084E+02 -0.12988074365E+02  0.72461594300E+02  0.70000031272E+02 0.  0.
        -12    1    1    2    0    0  0.51974445636E+01 -0.12448886084E+02  0.12988074365E+02  0.18726405700E+02  0.00000000000E+00 0.  1.
         11    1    3    3    0    0  0.85937274980E+01  0.27879058954E+02 -0.80411682879E+00  0.29184596701E+02  0.51100000000E-03 0. -1.
        -11    1    3    3    0    0  0.48480419119E+01 -0.22657651220E+01  0.10069532673E+02  0.11403187733E+02  0.51100000000E-03 0.  1.
        -12    1    3    3    0    0 -0.18639213973E+02 -0.13164407747E+02 -0.22253490209E+02  0.31873809866E+02  0.00000000000E+00 0.  1.
</event>
<event>
 7    1  0.3509180E-013  0.7246159E+02  0.7816164E-02  0.1226708E+00
        -11   -1    0    0    0    0  0.00000000000E+00  0.00000000000E+00  0.45593999997E+02  0.45594000000E+02  0.51100000000E-03 0. -1.
         11   -1    0    0    0    0 -0.00000000000E+00 -0.00000000000E+00 -0.45593999997E+02  0.45594000000E+02  0.51100000000E-03 0.  1.
    9900012    2    1    2    0    0 -0.10349391253E+02  0.15437863876E+01 -0.15530141689E+02  0.72461588796E+02  0.70000024101E+02 0.  0.
        -12    1    1    2    0    0  0.10349391253E+02 -0.15437863876E+01  0.15530141689E+02  0.18726411204E+02  0.00000000000E+00 0.  1.
         11    1    3    3    0    0 -0.84745244672E+00 -0.75327224372E+01 -0.80912965189E+00  0.76233046653E+01  0.51100000000E-03 0. -1.
        -11    1    3    3    0    0  0.20578877179E+02  0.22205604756E+02 -0.83373740302E+01  0.31402083920E+02  0.51100000000E-03 0.  1.
         12    1    3    3    0    0 -0.30080815985E+02 -0.13129095931E+02 -0.63836380071E+01  0.33436200210E+02  0.00000000000E+00 0. -1.
</event>
<event>
 7    1  0.3509180E-013  0.7246161E+02  0.7816164E-02  0.1226708E+00
        -11   -1    0    0    0    0  0.00000000000E+00  0.00000000000E+00  0.45593999997E+02  0.45594000000E+02  0.51100000000E-03 0.  1.
         11   -1    0    0    0    0 -0.00000000000E+00 -0.00000000000E+00 -0.45593999997E+02  0.45594000000E+02  0.51100000000E-03 0. -1.
    9900012    2    1    2    0    0 -0.12880563373E+02 -0.94620906569E+01 -0.97589820417E+01  0.72461606784E+02  0.70000047534E+02 0.  0.
        -12    1    1    2    0    0  0.12880563373E+02  0.94620906569E+01  0.97589820417E+01  0.18726393216E+02  0.00000000000E+00 0.  1.
         11    1    3    3    0    0 -0.13390152976E+02 -0.24495647206E+02 -0.19096571242E+02  0.33823245885E+02  0.51100000000E-03 0. -1.
        -11    1    3    3    0    0 -0.11661176950E+02 -0.53913799962E+01  0.72968710864E+01  0.14774787783E+02  0.51100000000E-03 0.  1.
        -12    1    3    3    0    0  0.12170766554E+02  0.20424936545E+02  0.20407181139E+01  0.23863573115E+02  0.00000000000E+00 0.  1.
</event>
<event>
 7    1  0.3509180E-013  0.7246145E+02  0.7816164E-02  0.1226708E+00
        -11   -1    0    0    0    0  0.00000000000E+00  0.00000000000E+00  0.45593999997E+02  0.45594000000E+02  0.51100000000E-03 0. -1.
         11   -1    0    0    0    0 -0.00000000000E+00 -0.00000000000E+00 -0.45593999997E+02  0.45594000000E+02  0.51100000000E-03 0.  1.
    9900012    2    1    2    0    0 -0.54114733871E+01 -0.16132368781E+02 -0.78195992016E+01  0.72461454713E+02  0.69999849434E+02 0.  0.
        -12    1    1    2    0    0  0.54114733871E+01  0.16132368781E+02  0.78195992016E+01  0.18726545287E+02  0.00000000000E+00 0.  1.
         11    1    3    3    0    0  0.21893992881E+01 -0.37436857781E+02 -0.39203891838E+01  0.37705188521E+02  0.51100000000E-03 0. -1.
        -11    1    3    3    0    0  0.30929157336E+00 -0.48475163108E+01 -0.55609686204E+01  0.73836608751E+01  0.51100000000E-03 0.  1.
        -12    1    3    3    0    0 -0.79101642486E+01  0.26152005310E+02  0.16617586026E+01  0.27372605317E+02  0.00000000000E+00 0.  1.
</event>
<event>
 7    1  0.3509180E-013  0.7246161E+02  0.7816164E-02  0.1226708E+00
        -11   -1    0    0    0    0  0.00000000000E+00  0.00000000000E+00  0.45593999997E+02  0.45594000000E+02  0.51100000000E-03 0.  1.
         11   -1    0    0    0    0 -0.00000000000E+00 -0.00000000000E+00 -0.45593999997E+02  0.45594000000E+02  0.51100000000E-03 0. -1.
    9900012    2    1    2    0    0 -0.33629653494E+01 -0.17728033371E+02  0.50084900906E+01  0.72461610168E+02  0.70000051943E+02 0.  0.
        -12    1    1    2    0    0  0.33629653494E+01  0.17728033371E+02 -0.50084900906E+01  0.18726389832E+02  0.00000000000E+00 0.  1.
         11    1    3    3    0    0 -0.41685363540E+01 -0.67633839349E+01 -0.24095101914E+02  0.25371125204E+02  0.51100000000E-03 0. -1.
        -11    1    3    3    0    0 -0.16694213361E+01 -0.12296064126E+02 -0.46266692380E+01  0.13243346597E+02  0.51100000000E-03 0.  1.
        -12    1    3    3    0    0  0.24749923407E+01  0.13314146898E+01  0.33730261243E+02  0.33847138368E+02  0.00000000000E+00 0.  1.
</event>
<event>
 7    1  0.3509180E-013  0.7246155E+02  0.7816164E-02  0.1226708E+00
        -11   -1    0    0    0    0  0.00000000000E+00  0.00000000000E+00  0.45593999997E+02  0.45594000000E+02  0.51100000000E-03 0. -1.
         11   -1    0    0    0    0 -0.00000000000E+00 -0.00000000000E+00 -0.45593999997E+02  0.45594000000E+02  0.51100000000E-03 0.  1.
    9900012    2    1    2    0    0 -0.18455172106E+02  0.26215596838E+01  0.17927819897E+01  0.72461547589E+02  0.69999970422E+02 0.  0.
        -12    1    1    2    0    0  0.18455172106E+02 -0.26215596838E+01 -0.17927819897E+01  0.18726452411E+02  0.00000000000E+00 0.  1.
         11    1    3    3    0    0  0.58152933984E+01 -0.68143266310E+01  0.10971938286E+02  0.14164607822E+02  0.51100000000E-03 0. -1.
        -11    1    3    3    0    0 -0.24521762560E+02  0.29199950520E+01  0.17863871846E+02  0.30478863623E+02  0.51100000000E-03 0.  1.
         12    1    3    3    0    0  0.25129705598E+00  0.65158912629E+01 -0.27043028143E+02  0.27818076143E+02  0.00000000000E+00 0. -1.
</event>
<event>
 7    1  0.3509180E-013  0.7246153E+02  0.7816164E-02  0.1226708E+00
        -11   -1    0    0    0    0  0.00000000000E+00  0.00000000000E+00  0.45593999997E+02  0.45594000000E+02  0.51100000000E-03 0. -1.
         11   -1    0    0    0    0 -0.00000000000E+00 -0.00000000000E+00 -0.45593999997E+02  0.45594000000E+02  0.51100000000E-03 0.  1.
    9900012    2    1    2    0    0  0.16577045175E+01 -0.18608662597E+02  0.12846934819E+01  0.72461528222E+02  0.69999945193E+02 0.  0.
        -12    1    1    2    0    0 -0.16577045175E+01  0.18608662597E+02 -0.12846934819E+01  0.18726471778E+02  0.00000000000E+00 0.  1.
         11    1    3    3    0    0  0.50648897559E+01  0.16752814960E+02  0.40304113663E+01  0.17959792130E+02  0.51100000000E-03 0. -1.
        -11    1    3    3    0    0  0.15485008973E+02 -0.61961043006E+01  0.74795183003E+01  0.18278960738E+02  0.51100000000E-03 0.  1.
         12    1    3    3    0    0 -0.18892194212E+02 -0.29165373256E+02 -0.10225236185E+02  0.36222775354E+02  0.00000000000E+00 0. -1.
</event>
<event>
 7    1  0.3509180E-013  0.7246166E+02  0.7816164E-02  0.1226708E+00
        -11   -1    0    0    0    0  0.00000000000E+00  0.00000000000E+00  0.45593999997E+02  0.45594000000E+02  0.51100000000E-03 0.  1.
         11   -1    0    0    0    0 -0.00000000000E+00 -0.00000000000E+00 -0.45593999997E+02  0.45594000000E+02  0.51100000000E-03 0. -1.
    9900012    2    1    2    0    0  0.15540335620E+02 -0.10244454418E+02 -0.20555036417E+01  0.72461655650E+02  0.70000111191E+02 0.  0.
        -12    1    1    2    0    0 -0.15540335620E+02  0.10244454418E+02  0.20555036417E+01  0.18726344350E+02  0.00000000000E+00 0.  1.
         11    1    3    3    0    0  0.12925675749E+02  0.14805030689E+02 -0.18940277023E+02  0.27294617075E+02  0.51100000000E-03 0. -1.
        -11    1    3    3    0    0  0.17950511891E+00  0.82244812918E+01  0.55820248734E+01  0.99414946842E+01  0.51100000000E-03 0.  1.
        -12    1    3    3    0    0  0.24351547518E+01 -0.33273966399E+02  0.11302748508E+02  0.35225543891E+02  0.00000000000E+00 0.  1.
</event>
<event>
 7    1  0.3509180E-013  0.7246159E+02  0.7816164E-02  0.1226708E+00
        -11   -1    0    0    0    0  0.00000000000E+00  0.00000000000E+00  0.45593999997E+02  0.45594000000E+02  0.51100000000E-03 0.  1.
         11   -1    0    0    0    0 -0.00000000000E+00 -0.00000000000E+00 -0.45593999997E+02  0.45594000000E+02  0.51100000000E-03 0. -1.
    9900012    2    1    2    0    0  0.14457976009E+02  0.11710798596E+02 -0.21219239154E+01  0.72461589902E+02  0.70000025543E+02 0.  0.
        -12    1    1    2    0    0 -0.14457976009E+02 -0.11710798596E+02  0.21219239154E+01  0.18726410098E+02  0.00000000000E+00 0.  1.
         11    1    3    3    0    0 -0.43580387029E+01 -0.21061445695E+02 -0.16824251105E+02  0.27306270737E+02  0.51100000000E-03 0. -1.
        -11    1    3    3    0    0  0.10556469015E+02  0.44838479240E+01 -0.14317284158E+01  0.11558277414E+02  0.51100000000E-03 0.  1.
        -12    1    3    3    0    0  0.82595456973E+01  0.28288396367E+02  0.16134055605E+02  0.33597041751E+02  0.00000000000E+00 0.  1.
</event>
<event>
 7    1  0.3509180E-013  0.7246143E+02  0.7816164E-02  0.1226708E+00
        -11   -1    0    0    0    0  0.00000000000E+00  0.00000000000E+00  0.45593999997E+02  0.45594000000E+02  0.51100000000E-03 0. -1.
         11   -1    0    0    0    0 -0.00000000000E+00 -0.00000000000E+00 -0.45593999997E+02  0.45594000000E+02  0.51100000000E-03 0.  1.
    9900012    2    1    2    0    0 -0.15991027208E+01  0.13618555284E+02  0.12753918051E+02  0.72461425215E+02  0.69999811007E+02 0.  0.
        -12    1    1    2    0    0  0.15991027208E+01 -0.13618555284E+02 -0.12753918051E+02  0.18726574785E+02  0.00000000000E+00 0.  1.
         11    1    3    3    0    0  0.11696384818E+02  0.23081797161E+02  0.93988762377E+01  0.27530231615E+02  0.51100000000E-03 0. -1.
        -11    1    3    3    0    0  0.33755877362E+00 -0.13634180655E+02 -0.15915810206E+02  0.20959910373E+02  0.51100000000E-03 0.  1.
         12    1    3    3    0    0 -0.13633046312E+02  0.41709387770E+01  0.19270852019E+02  0.23971283227E+02  0.00000000000E+00 0. -1.
</event>
<event>
 7    1  0.3509180E-013  0.7246158E+02  0.7816164E-02  0.1226708E+00
        -11   -1    0    0    0    0  0.00000000000E+00  0.00000000000E+00  0.45593999997E+02  0.45594000000E+02  0.51100000000E-03 0. -1.
         11   -1    0    0    0    0 -0.00000000000E+00 -0.00000000000E+00 -0.45593999997E+02  0.45594000000E+02  0.51100000000E-03 0.  1.
    9900012    2    1    2    0    0 -0.10234385434E+02 -0.15420972610E+02  0.28512447753E+01  0.72461584480E+02  0.70000018480E+02 0.  0.
        -12    1    1    2    0    0  0.10234385434E+02  0.15420972610E+02 -0.28512447753E+01  0.18726415520E+02  0.00000000000E+00 0.  1.
         11    1    3    3    0    0  0.11329501950E+02 -0.18050059494E+02  0.15820510252E+01  0.21369725031E+02  0.51100000000E-03 0. -1.
        -11    1    3    3    0    0 -0.11424603660E+02 -0.21769923311E+02  0.19345697396E+01  0.24661583285E+02  0.51100000000E-03 0.  1.
        -12    1    3    3    0    0 -0.10139283724E+02  0.24399010195E+02 -0.66537598953E+00  0.26430276165E+02  0.00000000000E+00 0.  1.
</event>
<event>
 7    1  0.3509180E-013  0.7246158E+02  0.7816164E-02  0.1226708E+00
        -11   -1    0    0    0    0  0.00000000000E+00  0.00000000000E+00  0.45593999997E+02  0.45594000000E+02  0.51100000000E-03 0.  1.
         11   -1    0    0    0    0 -0.00000000000E+00 -0.00000000000E+00 -0.45593999997E+02  0.45594000000E+02  0.51100000000E-03 0. -1.
    9900012    2    1    2    0    0 -0.48651806507E+01  0.18082985339E+02 -0.12009068038E+00  0.72461581141E+02  0.70000014129E+02 0.  0.
        -12    1    1    2    0    0  0.48651806507E+01 -0.18082985339E+02  0.12009068038E+00  0.18726418859E+02  0.00000000000E+00 0.  1.
         11    1    3    3    0    0 -0.51827515063E+01  0.75987388957E+01 -0.52479814586E+01  0.10589761831E+02  0.51100000000E-03 0. -1.
        -11    1    3    3    0    0  0.49879660672E+01  0.25734816115E+02 -0.19401750941E+02  0.32612704668E+02  0.51100000000E-03 0.  1.
        -12    1    3    3    0    0 -0.46703952116E+01 -0.15250569672E+02  0.24529641719E+02  0.29259114642E+02  0.00000000000E+00 0.  1.
</event>
<event>
 7    1  0.3509180E-013  0.7246151E+02  0.7816164E-02  0.1226708E+00
        -11   -1    0    0    0    0  0.00000000000E+00  0.00000000000E+00  0.45593999997E+02  0.45594000000E+02  0.51100000000E-03 0. -1.
         11   -1    0    0    0    0 -0.00000000000E+00 -0.00000000000E+00 -0.45593999997E+02  0.45594000000E+02  0.51100000000E-03 0.  1.
    9900012    2    1    2    0    0 -0.56521327011E+01 -0.88580678940E+01  0.15500622623E+02  0.72461514142E+02  0.69999926851E+02 0.  0.
        -12    1    1    2    0    0  0.56521327011E+01  0.88580678940E+01 -0.15500622623E+02  0.18726485858E+02  0.00000000000E+00 0.  1.
         11    1    3    3    0    0 -0.50812472595E+01  0.23548594928E+02  0.16791694975E+02  0.29365224623E+02  0.51100000000E-03 0.  1.
        -11    1    3    3    0    0 -0.11833719025E+02 -0.50939466579E+01  0.30383743690E+01  0.13236952730E+02  0.51100000000E-03 0. -1.
        -12    1    3    3    0    0  0.11262833583E+02 -0.27312716164E+02 -0.43294467213E+01  0.29859336789E+02  0.00000000000E+00 0.  1.
</event>
<event>
 7    1  0.3509180E-013  0.7246160E+02  0.7816164E-02  0.1226708E+00
        -11   -1    0    0    0    0  0.00000000000E+00  0.00000000000E+00  0.45593999997E+02  0.45594000000E+02  0.51100000000E-03 0. -1.
         11   -1    0    0    0    0 -0.00000000000E+00 -0.00000000000E+00 -0.45593999997E+02  0.45594000000E+02  0.51100000000E-03 0.  1.
    9900012    2    1    2    0    0 -0.16204673341E+02 -0.90456716467E+01 -0.25024960647E+01  0.72461598846E+02  0.70000037194E+02 0.  0.
        -12    1    1    2    0    0  0.16204673341E+02  0.90456716467E+01  0.25024960647E+01  0.18726401154E+02  0.00000000000E+00 0.  1.
         11    1    3    3    0    0 -0.22288561267E+02  0.43562869741E+00  0.77257928824E+01  0.23593592597E+02  0.51100000000E-03 0. -1.
        -11    1    3    3    0    0  0.21893463648E+02 -0.10692232724E+01  0.79818030451E+01  0.23327583866E+02  0.51100000000E-03 0.  1.
         12    1    3    3    0    0 -0.15809575721E+02 -0.84120770716E+01 -0.18210091992E+02  0.25540422383E+02  0.00000000000E+00 0. -1.
</event>
<event>
 7    1  0.3509180E-013  0.7246157E+02  0.7816164E-02  0.1226708E+00
        -11   -1    0    0    0    0  0.00000000000E+00  0.00000000000E+00  0.45593999997E+02  0.45594000000E+02  0.51100000000E-03 0. -1.
         11   -1    0    0    0    0 -0.00000000000E+00 -0.00000000000E+00 -0.45593999997E+02  0.45594000000E+02  0.51100000000E-03 0.  1.
    9900012    2    1    2    0    0 -0.15315885043E+02  0.93174574062E+00  0.10734734199E+02  0.72461574738E+02  0.70000005788E+02 0.  0.
        -12    1    1    2    0    0  0.15315885043E+02 -0.93174574062E+00 -0.10734734199E+02  0.18726425262E+02  0.00000000000E+00 0.  1.
         11    1    3    3    0    0 -0.10741849419E+02  0.10788535857E+02  0.12642920928E+01  0.15276723132E+02  0.51100000000E-03 0. -1.
        -11    1    3    3    0    0  0.19135757505E+02  0.47549283686E+01 -0.11038899552E+02  0.22597430444E+02  0.51100000000E-03 0.  1.
         12    1    3    3    0    0 -0.23709793129E+02 -0.14611718485E+02  0.20509341658E+02  0.34587421161E+02  0.00000000000E+00 0. -1.
</event>
<event>
 7    1  0.3509180E-013  0.7246157E+02  0.7816164E-02  0.1226708E+00
        -11   -1    0    0    0    0  0.00000000000E+00  0.00000000000E+00  0.45593999997E+02  0.45594000000E+02  0.51100000000E-03 0. -1.
         11   -1    0    0    0    0 -0.00000000000E+00 -0.00000000000E+00 -0.45593999997E+02  0.45594000000E+02  0.51100000000E-03 0.  1.
    9900012    2    1    2    0    0 -0.13331585355E+02  0.64687890080E+01  0.11450017008E+02  0.72461567109E+02  0.69999995851E+02 0.  0.
        -12    1    1    2    0    0  0.13331585355E+02 -0.64687890080E+01 -0.11450017008E+02  0.18726432891E+02  0.00000000000E+00 0.  1.
         11    1    3    3    0    0 -0.13396741339E+02  0.44062371510E+01 -0.56681509274E+01  0.15199195358E+02  0.51100000000E-03 0. -1.
        -11    1    3    3    0    0 -0.12555404566E+02 -0.10984075908E+01 -0.16761060489E+02  0.20970880574E+02  0.51100000000E-03 0.  1.
         12    1    3    3    0    0  0.12620560550E+02  0.31609594478E+01  0.33879228425E+02  0.36291491177E+02  0.00000000000E+00 0. -1.
</event>
<event>
 7    1  0.3509180E-013  0.7246149E+02  0.7816164E-02  0.1226708E+00
        -11   -1    0    0    0    0  0.00000000000E+00  0.00000000000E+00  0.45593999997E+02  0.45594000000E+02  0.51100000000E-03 0. -1.
         11   -1    0    0    0    0 -0.00000000000E+00 -0.00000000000E+00 -0.45593999997E+02  0.45594000000E+02  0.51100000000E-03 0.  1.
    9900012    2    1    2    0    0  0.27635522989E+01  0.12133480277E+02  0.13993702038E+02  0.72461487733E+02  0.69999892449E+02 0.  0.
        -12    1    1    2    0    0 -0.27635522989E+01 -0.12133480277E+02 -0.13993702038E+02  0.18726512267E+02  0.00000000000E+00 0.  1.
         11    1    3    3    0    0  0.20640115889E+02  0.29163911813E+02  0.96013964058E+01  0.36996418061E+02  0.51100000000E-03 0. -1.
        -11    1    3    3    0    0  0.38980927781E+01 -0.10250530768E+02  0.61821503464E+01  0.12589181526E+02  0.51100000000E-03 0.  1.
        -12    1    3    3    0    0 -0.21774656368E+02 -0.67799007680E+01 -0.17898447142E+01  0.22875888146E+02  0.00000000000E+00 0.  1.
</event>
<event>
 7    1  0.3509180E-013  0.7246154E+02  0.7816164E-02  0.1226708E+00
        -11   -1    0    0    0    0  0.00000000000E+00  0.00000000000E+00  0.45593999997E+02  0.45594000000E+02  0.51100000000E-03 0. -1.
         11   -1    0    0    0    0 -0.00000000000E+00 -0.00000000000E+00 -0.45593999997E+02  0.45594000000E+02  0.51100000000E-03 0.  1.
    9900012    2    1    2    0    0 -0.14802636938E+02  0.33766976981E+01  0.10961767208E+02  0.72461535092E+02  0.69999954142E+02 0.  0.
        -12    1    1    2    0    0  0.14802636938E+02 -0.33766976981E+01 -0.10961767208E+02  0.18726464908E+02  0.00000000000E+00 0.  1.
         11    1    3    3    0    0  0.15650339329E+02  0.74625530254E+01  0.35221836758E-01  0.17338513766E+02  0.51100000000E-03 0. -1.
        -11    1    3    3    0    0  0.24143655080E+01  0.16273033582E+01  0.20270826786E+02  0.20478859731E+02  0.51100000000E-03 0.  1.
        -12    1    3    3    0    0 -0.32867341774E+02 -0.57131586855E+01 -0.93442814149E+01  0.34644161595E+02  0.00000000000E+00 0.  1.
</event>
<event>
 7    1  0.3509180E-013  0.7246156E+02  0.7816164E-02  0.1226708E+00
        -11   -1    0    0    0    0  0.00000000000E+00  0.00000000000E+00  0.45593999997E+02  0.45594000000E+02  0.51100000000E-03 0. -1.
         11   -1    0    0    0    0 -0.00000000000E+00 -0.00000000000E+00 -0.45593999997E+02  0.45594000000E+02  0.51100000000E-03 0.  1.
    9900012    2    1    2    0    0  0.11333011598E+02  0.46210244660E+01  0.14173512251E+02  0.72461562311E+02  0.69999989600E+02 0.  0.
        -12    1    1    2    0    0 -0.11333011598E+02 -0.46210244660E+01 -0.14173512251E+02  0.18726437689E+02  0.00000000000E+00 0.  1.
         11    1    3    3    0    0  0.10009219975E+01  0.13654832541E+02  0.14676677177E+02  0.20071401291E+02  0.51100000000E-03 0.  1.
        -11    1    3    3    0    0  0.25209163563E+02  0.64157906756E+01  0.10776853122E+02  0.28156790673E+02  0.51100000000E-03 0. -1.
        -12    1    3    3    0    0 -0.14877073962E+02 -0.15449598750E+02 -0.11280018048E+02  0.24233370347E+02  0.00000000000E+00 0.  1.
</event>
<event>
 7    1  0.3509180E-013  0.7246150E+02  0.7816164E-02  0.1226708E+00
        -11   -1    0    0    0    0  0.00000000000E+00  0.00000000000E+00  0.45593999997E+02  0.45594000000E+02  0.51100000000E-03 0.  1.
         11   -1    0    0    0    0 -0.00000000000E+00 -0.00000000000E+00 -0.45593999997E+02  0.45594000000E+02  0.51100000000E-03 0. -1.
    9900012    2    1    2    0    0  0.15718111671E+02  0.60083072479E+01  0.82172430586E+01  0.72461498085E+02  0.69999905934E+02 0.  0.
        -12    1    1    2    0    0 -0.15718111671E+02 -0.60083072479E+01 -0.82172430586E+01  0.18726501915E+02  0.00000000000E+00 0.  1.
         11    1    3    3    0    0 -0.13975750411E+02 -0.16382146128E+02 -0.19961610374E+01  0.21625932823E+02  0.51100000000E-03 0. -1.
        -11    1    3    3    0    0  0.94137928046E+01 -0.85914376791E+01  0.33200817547E+01  0.13170240677E+02  0.51100000000E-03 0.  1.
        -12    1    3    3    0    0  0.20280069277E+02  0.30981891055E+02  0.68933223412E+01  0.37665324586E+02  0.00000000000E+00 0.  1.
</event>
<event>
 7    1  0.3509180E-013  0.7246154E+02  0.7816164E-02  0.1226708E+00
        -11   -1    0    0    0    0  0.00000000000E+00  0.00000000000E+00  0.45593999997E+02  0.45594000000E+02  0.51100000000E-03 0.  1.
         11   -1    0    0    0    0 -0.00000000000E+00 -0.00000000000E+00 -0.45593999997E+02  0.45594000000E+02  0.51100000000E-03 0. -1.
    9900012    2    1    2    0    0 -0.78909445242E+01  0.13845169252E+02 -0.98348660631E+01  0.72461539908E+02  0.69999960416E+02 0.  0.
        -12    1    1    2    0    0  0.78909445242E+01 -0.13845169252E+02  0.98348660631E+01  0.18726460092E+02  0.00000000000E+00 0.  1.
         11    1    3    3    0    0 -0.12245254459E+00 -0.81739610259E-01 -0.48943722738E+01  0.48965861787E+01  0.51100000000E-03 0. -1.
        -11    1    3    3    0    0 -0.17870528543E+02  0.37160331845E+02 -0.81377403634E+01  0.42029381053E+02  0.51100000000E-03 0.  1.
         12    1    3    3    0    0  0.10102036564E+02 -0.23233422983E+02  0.31972465742E+01  0.25535572676E+02  0.00000000000E+00 0. -1.
</event>
<event>
 7    1  0.4185234E-013  0.7246155E+02  0.7816164E-02  0.1226708E+00
        -11   -1    0    0    0    0  0.00000000000E+00  0.00000000000E+00  0.45593999997E+02  0.45594000000E+02  0.51100000000E-03 0. -1.
         11   -1    0    0    0    0 -0.00000000000E+00 -0.00000000000E+00 -0.45593999997E+02  0.45594000000E+02  0.51100000000E-03 0.  1.
    9900012    2    1    2    0    0  0.50223325150E+01 -0.14310044419E+02  0.10985384476E+02  0.72461551665E+02  0.69999975731E+02 0.  0.
        -12    1    1    2    0    0 -0.50223325150E+01  0.14310044419E+02 -0.10985384476E+02  0.18726448335E+02  0.00000000000E+00 0.  1.
         11    1    3    3    0    0 -0.55299852429E+00 -0.80949256703E+01  0.12256943987E+02  0.14699194030E+02  0.51100000000E-03 0. -1.
        -11    1    3    3    0    0 -0.21754821512E+02 -0.12398622727E+02 -0.11988555093E+02  0.27761908400E+02  0.51100000000E-03 0.  1.
         12    1    3    3    0    0  0.27330152551E+02  0.61835039782E+01  0.10716995583E+02  0.30000449234E+02  0.00000000000E+00 0. -1.
</event>
<event>
 7    1  0.3509180E-013  0.7246158E+02  0.7816164E-02  0.1226708E+00
        -11   -1    0    0    0    0  0.00000000000E+00  0.00000000000E+00  0.45593999997E+02  0.45594000000E+02  0.51100000000E-03 0.  1.
         11   -1    0    0    0    0 -0.00000000000E+00 -0.00000000000E+00 -0.45593999997E+02  0.45594000000E+02  0.51100000000E-03 0. -1.
    9900012    2    1    2    0    0 -0.13034455830E+02  0.18295211188E+01 -0.13320452458E+02  0.72461584433E+02  0.70000018418E+02 0.  0.
        -12    1    1    2    0    0  0.13034455830E+02 -0.18295211188E+01  0.13320452458E+02  0.18726415567E+02  0.00000000000E+00 0.  1.
         11    1    3    3    0    0 -0.30546927067E+01 -0.10720454400E+02  0.14189688020E+01  0.11237115413E+02  0.51100000000E-03 0. -1.
        -11    1    3    3    0    0  0.57689971134E+01 -0.67037929585E+01  0.18030740628E+02  0.20083071866E+02  0.51100000000E-03 0.  1.
         12    1    3    3    0    0 -0.15748760236E+02  0.19253768477E+02 -0.32770161888E+02  0.41141397154E+02  0.00000000000E+00 0. -1.
</event>
<event>
 7    1  0.3509180E-013  0.7246161E+02  0.7816164E-02  0.1226708E+00
        -11   -1    0    0    0    0  0.00000000000E+00  0.00000000000E+00  0.45593999997E+02  0.45594000000E+02  0.51100000000E-03 0. -1.
         11   -1    0    0    0    0 -0.00000000000E+00 -0.00000000000E+00 -0.45593999997E+02  0.45594000000E+02  0.51100000000E-03 0.  1.
    9900012    2    1    2    0    0 -0.15524513052E+02 -0.11468873578E+01 -0.10409220880E+02  0.72461608584E+02  0.70000049880E+02 0.  0.
        -12    1    1    2    0    0  0.15524513052E+02  0.11468873578E+01  0.10409220880E+02  0.18726391416E+02  0.00000000000E+00 0.  1.
         11    1    3    3    0    0 -0.79316877247E+01 -0.10169160691E+01  0.75687342716E+00  0.80323499737E+01  0.51100000000E-03 0. -1.
        -11    1    3    3    0    0 -0.23289261133E+02 -0.78147370056E+01 -0.29974379456E+02  0.38754654206E+02  0.51100000000E-03 0.  1.
         12    1    3    3    0    0  0.15696435806E+02  0.76847657169E+01  0.18808285149E+02  0.25674604405E+02  0.00000000000E+00 0. -1.
</event>
<event>
 7    1  0.3509180E-013  0.7246154E+02  0.7816164E-02  0.1226708E+00
        -11   -1    0    0    0    0  0.00000000000E+00  0.00000000000E+00  0.45593999997E+02  0.45594000000E+02  0.51100000000E-03 0.  1.
         11   -1    0    0    0    0 -0.00000000000E+00 -0.00000000000E+00 -0.45593999997E+02  0.45594000000E+02  0.51100000000E-03 0. -1.
    9900012    2    1    2    0    0 -0.13036186658E+02 -0.10749854046E+01  0.13400846556E+02  0.72461536249E+02  0.69999955650E+02 0.  0.
        -12    1    1    2    0    0  0.13036186658E+02  0.10749854046E+01 -0.13400846556E+02  0.18726463751E+02  0.00000000000E+00 0.  1.
         11    1    3    3    0    0  0.18649848386E+02 -0.15119430192E+02 -0.59514700767E+01  0.24735278662E+02  0.51100000000E-03 0. -1.
        -11    1    3    3    0    0 -0.16164318602E+02 -0.41609064822E+01  0.16774201564E+02  0.23663731257E+02  0.51100000000E-03 0.  1.
        -12    1    3    3    0    0 -0.15521716441E+02  0.18205351269E+02  0.25781150684E+01  0.24062526331E+02  0.00000000000E+00 0.  1.
</event>
<event>
 7    1  0.3509180E-013  0.7246153E+02  0.7816164E-02  0.1226708E+00
        -11   -1    0    0    0    0  0.00000000000E+00  0.00000000000E+00  0.45593999997E+02  0.45594000000E+02  0.51100000000E-03 0.  1.
         11   -1    0    0    0    0 -0.00000000000E+00 -0.00000000000E+00 -0.45593999997E+02  0.45594000000E+02  0.51100000000E-03 0. -1.
    9900012    2    1    2    0    0 -0.23934338185E+00 -0.14949262451E+02  0.11275775033E+02  0.72461525808E+02  0.69999942048E+02 0.  0.
        -12    1    1    2    0    0  0.23934338185E+00  0.14949262451E+02 -0.11275775033E+02  0.18726474192E+02  0.00000000000E+00 0.  1.
         11    1    3    3    0    0  0.14093394595E+02 -0.33460610149E+02 -0.35124641113E+01  0.36477028485E+02  0.51100000000E-03 0. -1.
        -11    1    3    3    0    0 -0.15860884847E+01  0.16360020460E+01 -0.59459380834E+01  0.63676023218E+01  0.51100000000E-03 0.  1.
        -12    1    3    3    0    0 -0.12746649492E+02  0.16875345652E+02  0.20734177228E+02  0.29616895000E+02  0.00000000000E+00 0.  1.
</event>
<event>
 7    1  0.3509180E-013  0.7246155E+02  0.7816164E-02  0.1226708E+00
        -11   -1    0    0    0    0  0.00000000000E+00  0.00000000000E+00  0.45593999997E+02  0.45594000000E+02  0.51100000000E-03 0.  1.
         11   -1    0    0    0    0 -0.00000000000E+00 -0.00000000000E+00 -0.45593999997E+02  0.45594000000E+02  0.51100000000E-03 0. -1.
    9900012    2    1    2    0    0  0.12789181575E+02  0.66669725552E+01 -0.11944385253E+02  0.72461547387E+02  0.69999970158E+02 0.  0.
        -12    1    1    2    0    0 -0.12789181575E+02 -0.66669725552E+01  0.11944385253E+02  0.18726452613E+02  0.00000000000E+00 0.  1.
         11    1    3    3    0    0  0.22848771024E+02 -0.20972067430E+02 -0.21246817303E+02  0.37594164379E+02  0.51100000000E-03 0. -1.
        -11    1    3    3    0    0  0.31310482787E+00  0.34055187753E+01 -0.40644764649E+01  0.53118322599E+01  0.51100000000E-03 0.  1.
        -12    1    3    3    0    0 -0.10372694277E+02  0.24233521210E+02  0.13366908514E+02  0.29555550748E+02  0.00000000000E+00 0.  1.
</event>
<event>
 7    1  0.3509180E-013  0.7246156E+02  0.7816164E-02  0.1226708E+00
        -11   -1    0    0    0    0  0.00000000000E+00  0.00000000000E+00  0.45593999997E+02  0.45594000000E+02  0.51100000000E-03 0.  1.
         11   -1    0    0    0    0 -0.00000000000E+00 -0.00000000000E+00 -0.45593999997E+02  0.45594000000E+02  0.51100000000E-03 0. -1.
    9900012    2    1    2    0    0 -0.76008205031E+01  0.78723938234E+01  0.15196468431E+02  0.72461555874E+02  0.69999981215E+02 0.  0.
        -12    1    1    2    0    0  0.76008205031E+01 -0.78723938234E+01 -0.15196468431E+02  0.18726444126E+02  0.00000000000E+00 0.  1.
         11    1    3    3    0    0  0.14288652957E+01  0.96503990680E+01 -0.77209396761E+00  0.97861119736E+01  0.51100000000E-03 0. -1.
        -11    1    3    3    0    0  0.63180930350E-01  0.49383783695E+01  0.37783818542E+02  0.38105229518E+02  0.51100000000E-03 0.  1.
         12    1    3    3    0    0 -0.90928667291E+01 -0.67163836141E+01 -0.21815256143E+02  0.24570214382E+02  0.00000000000E+00 0. -1.
</event>
<event>
 7    1  0.3509180E-013  0.7246142E+02  0.7816164E-02  0.1226708E+00
        -11   -1    0    0    0    0  0.00000000000E+00  0.00000000000E+00  0.45593999997E+02  0.45594000000E+02  0.51100000000E-03 0. -1.
         11   -1    0    0    0    0 -0.00000000000E+00 -0.00000000000E+00 -0.45593999997E+02  0.45594000000E+02  0.51100000000E-03 0.  1.
    9900012    2    1    2    0    0  0.12360541901E+02  0.91177434812E+01 -0.10713013638E+02  0.72461417197E+02  0.69999800562E+02 0.  0.
        -12    1    1    2    0    0 -0.12360541901E+02 -0.91177434812E+01  0.10713013638E+02  0.18726582803E+02  0.00000000000E+00 0.  1.
         11    1    3    3    0    0 -0.49866450621E+01 -0.82294953868E+01 -0.24432674388E+02  0.26259223167E+02  0.51100000000E-03 0. -1.
        -11    1    3    3    0    0 -0.13743986581E+00  0.13823308413E+02 -0.96095401885E+01  0.16835854837E+02  0.51100000000E-03 0.  1.
         12    1    3    3    0    0  0.17484626829E+02  0.35239304552E+01  0.23329200939E+02  0.29366339193E+02  0.00000000000E+00 0. -1.
</event>
<event>
 7    1  0.3968037E-013  0.7246167E+02  0.7816164E-02  0.1226708E+00
        -11   -1    0    0    0    0  0.00000000000E+00  0.00000000000E+00  0.45593999997E+02  0.45594000000E+02  0.51100000000E-03 0. -1.
         11   -1    0    0    0    0 -0.00000000000E+00 -0.00000000000E+00 -0.45593999997E+02  0.45594000000E+02  0.51100000000E-03 0.  1.
    9900012    2    1    2    0    0  0.20385217103E+01 -0.16906654092E+02  0.77900493704E+01  0.72461671140E+02  0.70000131371E+02 0.  0.
        -12    1    1    2    0    0 -0.20385217103E+01  0.16906654092E+02 -0.77900493704E+01  0.18726328860E+02  0.00000000000E+00 0.  1.
         11    1    3    3    0    0  0.71535142222E+00 -0.81269988474E+01  0.20451054372E+01  0.84108438598E+01  0.51100000000E-03 0. -1.
        -11    1    3    3    0    0 -0.90674370906E+01 -0.45151865216E+01 -0.27316253021E+02  0.29133880690E+02  0.51100000000E-03 0.  1.
         12    1    3    3    0    0  0.10390607379E+02 -0.42644687234E+01  0.33061196954E+02  0.34916946591E+02  0.00000000000E+00 0. -1.
</event>
<event>
 7    1  0.3509180E-013  0.7246157E+02  0.7816164E-02  0.1226708E+00
        -11   -1    0    0    0    0  0.00000000000E+00  0.00000000000E+00  0.45593999997E+02  0.45594000000E+02  0.51100000000E-03 0. -1.
         11   -1    0    0    0    0 -0.00000000000E+00 -0.00000000000E+00 -0.45593999997E+02  0.45594000000E+02  0.51100000000E-03 0.  1.
    9900012    2    1    2    0    0 -0.43025822383E+01 -0.16253567320E+02  0.82455035889E+01  0.72461574981E+02  0.70000006105E+02 0.  0.
        -12    1    1    2    0    0  0.43025822383E+01  0.16253567320E+02 -0.82455035889E+01  0.18726425019E+02  0.00000000000E+00 0.  1.
         11    1    3    3    0    0  0.90045151303E+01 -0.11622860879E+01 -0.94157390575E+01  0.13080074310E+02  0.51100000000E-03 0. -1.
        -11    1    3    3    0    0 -0.12882245012E+02  0.57522320640E+01 -0.15026399800E+02  0.20611479847E+02  0.51100000000E-03 0.  1.
         12    1    3    3    0    0 -0.42485235628E+00 -0.20843513296E+02  0.32687642446E+02  0.38770020825E+02  0.00000000000E+00 0. -1.
</event>
<event>
 7    1  0.3509180E-013  0.7246148E+02  0.7816164E-02  0.1226708E+00
        -11   -1    0    0    0    0  0.00000000000E+00  0.00000000000E+00  0.45593999997E+02  0.45594000000E+02  0.51100000000E-03 0.  1.
         11   -1    0    0    0    0 -0.00000000000E+00 -0.00000000000E+00 -0.45593999997E+02  0.45594000000E+02  0.51100000000E-03 0. -1.
    9900012    2    1    2    0    0  0.17132819044E+02 -0.35294451988E+01 -0.66852156753E+01  0.72461479222E+02  0.69999881361E+02 0.  0.
        -12    1    1    2    0    0 -0.17132819044E+02  0.35294451988E+01  0.66852156753E+01  0.18726520778E+02  0.00000000000E+00 0.  1.
         11    1    3    3    0    0  0.50168635113E+01 -0.91282030207E+01  0.16831116433E+01  0.10551107759E+02  0.51100000000E-03 0. -1.
        -11    1    3    3    0    0 -0.17849895128E+02  0.56265327570E+01  0.14939494796E+02  0.23947132020E+02  0.51100000000E-03 0.  1.
         12    1    3    3    0    0  0.29965850661E+02 -0.27774935082E-01 -0.23307822115E+02  0.37963239443E+02  0.00000000000E+00 0. -1.
</event>
<event>
 7    1  0.3509180E-013  0.7246159E+02  0.7816164E-02  0.1226708E+00
        -11   -1    0    0    0    0  0.00000000000E+00  0.00000000000E+00  0.45593999997E+02  0.45594000000E+02  0.51100000000E-03 0.  1.
         11   -1    0    0    0    0 -0.00000000000E+00 -0.00000000000E+00 -0.45593999997E+02  0.45594000000E+02  0.51100000000E-03 0. -1.
    9900012    2    1    2    0    0  0.76786056776E+01  0.16362180193E+02 -0.48986086498E+01  0.72461593710E+02  0.70000030504E+02 0.  0.
        -12    1    1    2    0    0 -0.76786056776E+01 -0.16362180193E+02  0.48986086498E+01  0.18726406290E+02  0.00000000000E+00 0.  1.
         11    1    3    3    0    0 -0.52752783004E+01 -0.13165900909E+01  0.13189662398E+02  0.14266364816E+02  0.51100000000E-03 0. -1.
        -11    1    3    3    0    0  0.17646351923E+02  0.28598548494E+02  0.32590426753E+01  0.33762287713E+02  0.51100000000E-03 0.  1.
         12    1    3    3    0    0 -0.46924679453E+01 -0.10919778210E+02 -0.21347313724E+02  0.24432941182E+02  0.00000000000E+00 0. -1.
</event>
<event>
 7    1  0.3509180E-013  0.7246164E+02  0.7816164E-02  0.1226708E+00
        -11   -1    0    0    0    0  0.00000000000E+00  0.00000000000E+00  0.45593999997E+02  0.45594000000E+02  0.51100000000E-03 0.  1.
         11   -1    0    0    0    0 -0.00000000000E+00 -0.00000000000E+00 -0.45593999997E+02  0.45594000000E+02  0.51100000000E-03 0. -1.
    9900012    2    1    2    0    0  0.13609380385E+02  0.12856750319E+02  0.40666107747E+00  0.72461637928E+02  0.70000088105E+02 0.  0.
        -12    1    1    2    0    0 -0.13609380385E+02 -0.12856750319E+02 -0.40666107747E+00  0.18726362072E+02  0.00000000000E+00 0.  1.
         11    1    3    3    0    0 -0.66585702545E+01  0.37466095988E+01 -0.11969851629E+01  0.77334607429E+01  0.51100000000E-03 0. -1.
        -11    1    3    3    0    0  0.28472047704E+02  0.19018543173E+02 -0.19949766999E+02  0.39627713642E+02  0.51100000000E-03 0.  1.
         12    1    3    3    0    0 -0.82040970648E+01 -0.99084024522E+01  0.21553413240E+02  0.25100463543E+02  0.00000000000E+00 0. -1.
</event>
<event>
 7    1  0.3509180E-013  0.7246159E+02  0.7816164E-02  0.1226708E+00
        -11   -1    0    0    0    0  0.00000000000E+00  0.00000000000E+00  0.45593999997E+02  0.45594000000E+02  0.51100000000E-03 0. -1.
         11   -1    0    0    0    0 -0.00000000000E+00 -0.00000000000E+00 -0.45593999997E+02  0.45594000000E+02  0.51100000000E-03 0.  1.
    9900012    2    1    2    0    0 -0.14198969570E+02  0.48471656283E+01  0.11205926049E+02  0.72461587368E+02  0.70000022241E+02 0.  0.
        -12    1    1    2    0    0  0.14198969570E+02 -0.48471656283E+01 -0.11205926049E+02  0.18726412632E+02  0.00000000000E+00 0.  1.
         11    1    3    3    0    0  0.47273470436E+01  0.10145321285E+01  0.53730214021E+01  0.72281702220E+01  0.51100000000E-03 0. -1.
        -11    1    3    3    0    0 -0.13505557715E+02  0.72007960513E+01 -0.27404518936E+02  0.31388838962E+02  0.51100000000E-03 0.  1.
         12    1    3    3    0    0 -0.54207588980E+01 -0.33681625515E+01  0.33237423583E+02  0.33844578184E+02  0.00000000000E+00 0. -1.
</event>
<event>
 7    1  0.3509180E-013  0.7246151E+02  0.7816164E-02  0.1226708E+00
        -11   -1    0    0    0    0  0.00000000000E+00  0.00000000000E+00  0.45593999997E+02  0.45594000000E+02  0.51100000000E-03 0. -1.
         11   -1    0    0    0    0 -0.00000000000E+00 -0.00000000000E+00 -0.45593999997E+02  0.45594000000E+02  0.51100000000E-03 0.  1.
    9900012    2    1    2    0    0 -0.60273901678E+01  0.13195963127E+02  0.11841385671E+02  0.72461513686E+02  0.69999926257E+02 0.  0.
        -12    1    1    2    0    0  0.60273901678E+01 -0.13195963127E+02 -0.11841385671E+02  0.18726486314E+02  0.00000000000E+00 0.  1.
         11    1    3    3    0    0 -0.13690909096E+02 -0.12536592208E+02  0.18074807968E+02  0.25909570035E+02  0.51100000000E-03 0. -1.
        -11    1    3    3    0    0  0.66578284787E+01 -0.86412176386E+01  0.22370630915E+01  0.11135608374E+02  0.51100000000E-03 0.  1.
        -12    1    3    3    0    0  0.10056904491E+01  0.34373772973E+02 -0.84704853888E+01  0.35416335277E+02  0.00000000000E+00 0.  1.
</event>
<event>
 7    1  0.3509180E-013  0.7246159E+02  0.7816164E-02  0.1226708E+00
        -11   -1    0    0    0    0  0.00000000000E+00  0.00000000000E+00  0.45593999997E+02  0.45594000000E+02  0.51100000000E-03 0.  1.
         11   -1    0    0    0    0 -0.00000000000E+00 -0.00000000000E+00 -0.45593999997E+02  0.45594000000E+02  0.51100000000E-03 0. -1.
    9900012    2    1    2    0    0  0.13186033027E+02  0.13284732238E+02 -0.56833930797E+00  0.72461585843E+02  0.70000020255E+02 0.  0.
        -12    1    1    2    0    0 -0.13186033027E+02 -0.13284732238E+02  0.56833930797E+00  0.18726414157E+02  0.00000000000E+00 0.  1.
         11    1    3    3    0    0  0.69384218429E+01  0.77016463519E+01 -0.96304184401E+01  0.14149276087E+02  0.51100000000E-03 0. -1.
        -11    1    3    3    0    0  0.22439864055E+02  0.43173225294E+00 -0.16332269928E+02  0.27757466253E+02  0.51100000000E-03 0.  1.
        -12    1    3    3    0    0 -0.16192252871E+02  0.51513536327E+01  0.25394349060E+02  0.30554843502E+02  0.00000000000E+00 0.  1.
</event>
<event>
 7    1  0.3509180E-013  0.7246158E+02  0.7816164E-02  0.1226708E+00
        -11   -1    0    0    0    0  0.00000000000E+00  0.00000000000E+00  0.45593999997E+02  0.45594000000E+02  0.51100000000E-03 0.  1.
         11   -1    0    0    0    0 -0.00000000000E+00 -0.00000000000E+00 -0.45593999997E+02  0.45594000000E+02  0.51100000000E-03 0. -1.
    9900012    2    1    2    0    0  0.88135995312E+01  0.10581712621E+02 -0.12689623651E+02  0.72461582107E+02  0.70000015388E+02 0.  0.
        -12    1    1    2    0    0 -0.88135995312E+01 -0.10581712621E+02  0.12689623651E+02  0.18726417893E+02  0.00000000000E+00 0.  1.
         11    1    3    3    0    0 -0.16417514178E+02  0.30241518764E+01 -0.14123873179E+01  0.16753360993E+02  0.51100000000E-03 0. -1.
        -11    1    3    3    0    0 -0.83566286776E+00  0.23738883146E+02 -0.30893812261E+01  0.23953646529E+02  0.51100000000E-03 0.  1.
         12    1    3    3    0    0  0.26066776577E+02 -0.16181322401E+02 -0.81878551075E+01  0.31754574584E+02  0.00000000000E+00 0. -1.
</event>
<event>
 7    1  0.3509180E-013  0.7246160E+02  0.7816164E-02  0.1226708E+00
        -11   -1    0    0    0    0  0.00000000000E+00  0.00000000000E+00  0.45593999997E+02  0.45594000000E+02  0.51100000000E-03 0. -1.
         11   -1    0    0    0    0 -0.00000000000E+00 -0.00000000000E+00 -0.45593999997E+02  0.45594000000E+02  0.51100000000E-03 0.  1.
    9900012    2    1    2    0    0 -0.42094435235E+01  0.16831480157E+02 -0.70469828803E+01  0.72461598670E+02  0.70000036965E+02 0.  0.
        -12    1    1    2    0    0  0.42094435235E+01 -0.16831480157E+02  0.70469828803E+01  0.18726401330E+02  0.00000000000E+00 0.  1.
         11    1    3    3    0    0 -0.72930076551E+01  0.30040047517E+02 -0.12682111705E+02  0.33412997067E+02  0.51100000000E-03 0. -1.
        -11    1    3    3    0    0  0.78991709173E+01  0.11222612018E+02  0.14863727686E+01  0.13804101780E+02  0.51100000000E-03 0.  1.
         12    1    3    3    0    0 -0.48156067857E+01 -0.24431179378E+02  0.41487560561E+01  0.25244499823E+02  0.00000000000E+00 0. -1.
</event>
<event>
 7    1  0.3509180E-013  0.7246168E+02  0.7816164E-02  0.1226708E+00
        -11   -1    0    0    0    0  0.00000000000E+00  0.00000000000E+00  0.45593999997E+02  0.45594000000E+02  0.51100000000E-03 0. -1.
         11   -1    0    0    0    0 -0.00000000000E+00 -0.00000000000E+00 -0.45593999997E+02  0.45594000000E+02  0.51100000000E-03 0.  1.
    9900012    2    1    2    0    0  0.89539460318E+01  0.14072978111E+02 -0.85119493800E+01  0.72461677758E+02  0.70000139991E+02 0.  0.
        -12    1    1    2    0    0 -0.89539460318E+01 -0.14072978111E+02  0.85119493800E+01  0.18726322242E+02  0.00000000000E+00 0.  1.
         11    1    3    3    0    0 -0.62303636040E+01 -0.93495336513E+00 -0.72604776251E+01  0.96128093729E+01  0.51100000000E-03 0. -1.
        -11    1    3    3    0    0 -0.81535945863E+01  0.32153644507E+02 -0.53536943799E+01  0.33600595286E+02  0.51100000000E-03 0.  1.
         12    1    3    3    0    0  0.23337904222E+02 -0.17145713031E+02  0.41022226250E+01  0.29248273099E+02  0.00000000000E+00 0. -1.
</event>
<event>
 7    1  0.3509180E-013  0.7246144E+02  0.7816164E-02  0.1226708E+00
        -11   -1    0    0    0    0  0.00000000000E+00  0.00000000000E+00  0.45593999997E+02  0.45594000000E+02  0.51100000000E-03 0.  1.
         11   -1    0    0    0    0 -0.00000000000E+00 -0.00000000000E+00 -0.45593999997E+02  0.45594000000E+02  0.51100000000E-03 0. -1.
    9900012    2    1    2    0    0  0.16096933063E+02  0.95468227200E+01  0.65653505243E+00  0.72461438213E+02  0.69999827940E+02 0.  0.
        -12    1    1    2    0    0 -0.16096933063E+02 -0.95468227200E+01 -0.65653505243E+00  0.18726561787E+02  0.00000000000E+00 0.  1.
         11    1    3    3    0    0 -0.11252007571E+02  0.87259230773E+01 -0.52732924415E+01  0.15184104233E+02  0.51100000000E-03 0. -1.
        -11    1    3    3    0    0  0.71546228951E+01  0.21387399232E+02 -0.96297959479E+01  0.24522284660E+02  0.51100000000E-03 0.  1.
         12    1    3    3    0    0  0.20194317739E+02 -0.20566499590E+02  0.15559623442E+02  0.32755049320E+02  0.00000000000E+00 0. -1.
</event>
<event>
 7    1  0.3509180E-013  0.7246110E+02  0.7816164E-02  0.1226709E+00
        -11   -1    0    0    0    0  0.00000000000E+00  0.00000000000E+00  0.45593999997E+02  0.45594000000E+02  0.51100000000E-03 0.  1.
         11   -1    0    0    0    0 -0.00000000000E+00 -0.00000000000E+00 -0.45593999997E+02  0.45594000000E+02  0.51100000000E-03 0. -1.
    9900012    2    1    2    0    0  0.12103436218E+02  0.14211491152E+02  0.14957024223E+01  0.72461100236E+02  0.69999387659E+02 0.  0.
        -12    1    1    2    0    0 -0.12103436218E+02 -0.14211491152E+02 -0.14957024223E+01  0.18726899764E+02  0.00000000000E+00 0.  1.
         11    1    3    3    0    0  0.33916171854E+02  0.17285933860E+02 -0.73710646329E+01  0.38774254561E+02  0.51100000000E-03 0. -1.
        -11    1    3    3    0    0 -0.32532394202E+01  0.77669466313E+01  0.88179310249E+01  0.12192823074E+02  0.51100000000E-03 0.  1.
        -12    1    3    3    0    0 -0.18559496216E+02 -0.10841389339E+02  0.48836030303E-01  0.21494022601E+02  0.00000000000E+00 0.  1.
</event>
<event>
 7    1  0.3509180E-013  0.7246156E+02  0.7816164E-02  0.1226708E+00
        -11   -1    0    0    0    0  0.00000000000E+00  0.00000000000E+00  0.45593999997E+02  0.45594000000E+02  0.51100000000E-03 0.  1.
         11   -1    0    0    0    0 -0.00000000000E+00 -0.00000000000E+00 -0.45593999997E+02  0.45594000000E+02  0.51100000000E-03 0. -1.
    9900012    2    1    2    0    0 -0.23238590269E+01  0.13608486763E+02 -0.12652608296E+02  0.72461555344E+02  0.69999980525E+02 0.  0.
        -12    1    1    2    0    0  0.23238590269E+01 -0.13608486763E+02  0.12652608296E+02  0.18726444656E+02  0.00000000000E+00 0.  1.
         11    1    3    3    0    0 -0.50224606598E+01  0.42508257245E+00  0.22866464200E+01  0.55348494454E+01  0.51100000000E-03 0. -1.
        -11    1    3    3    0    0  0.24911957441E+01 -0.23584095970E+02  0.62034015933E+01  0.24513217466E+02  0.51100000000E-03 0.  1.
         12    1    3    3    0    0  0.20740588880E+00  0.36767500160E+02 -0.21142656309E+02  0.42413488433E+02  0.00000000000E+00 0. -1.
</event>
<event>
 7    1  0.3509180E-013  0.7246115E+02  0.7816164E-02  0.1226709E+00
        -11   -1    0    0    0    0  0.00000000000E+00  0.00000000000E+00  0.45593999997E+02  0.45594000000E+02  0.51100000000E-03 0.  1.
         11   -1    0    0    0    0 -0.00000000000E+00 -0.00000000000E+00 -0.45593999997E+02  0.45594000000E+02  0.51100000000E-03 0. -1.
    9900012    2    1    2    0    0  0.59582585890E+01 -0.23170796549E+01 -0.17601848952E+02  0.72461153227E+02  0.69999456690E+02 0.  0.
        -12    1    1    2    0    0 -0.59582585890E+01  0.23170796549E+01  0.17601848952E+02  0.18726846773E+02  0.00000000000E+00 0.  1.
         11    1    3    3    0    0  0.28162588227E+02  0.35628173066E+01 -0.15323053068E+02  0.32258657728E+02  0.51100000000E-03 0. -1.
        -11    1    3    3    0    0 -0.61812839992E+01 -0.57143617553E+01 -0.16663544753E+02  0.18669116909E+02  0.51100000000E-03 0.  1.
        -12    1    3    3    0    0 -0.16023045639E+02 -0.16553520621E+00  0.14384748870E+02  0.21533378590E+02  0.00000000000E+00 0.  1.
</event>
<event>
 7    1  0.3509180E-013  0.7246183E+02  0.7816164E-02  0.1226707E+00
        -11   -1    0    0    0    0  0.00000000000E+00  0.00000000000E+00  0.45593999997E+02  0.45594000000E+02  0.51100000000E-03 0.  1.
         11   -1    0    0    0    0 -0.00000000000E+00 -0.00000000000E+00 -0.45593999997E+02  0.45594000000E+02  0.51100000000E-03 0. -1.
    9900012    2    1    2    0    0  0.13931804441E+02 -0.79511244485E+01  0.96619845473E+01  0.72461828465E+02  0.70000336314E+02 0.  0.
        -12    1    1    2    0    0 -0.13931804441E+02  0.79511244485E+01 -0.96619845473E+01  0.18726171535E+02  0.00000000000E+00 0.  1.
         11    1    3    3    0    0  0.73173734333E+01  0.28956214172E+01 -0.21835398393E+02  0.23210196048E+02  0.51100000000E-03 0. -1.
        -11    1    3    3    0    0 -0.84649260057E+01  0.82180690409E+00 -0.36584352523E+01  0.92582119022E+01  0.51100000000E-03 0.  1.
        -12    1    3    3    0    0  0.15079357013E+02 -0.11668552770E+02  0.35155818193E+02  0.39993420515E+02  0.00000000000E+00 0.  1.
</event>
<event>
 7    1  0.3509180E-013  0.7246154E+02  0.7816164E-02  0.1226708E+00
        -11   -1    0    0    0    0  0.00000000000E+00  0.00000000000E+00  0.45593999997E+02  0.45594000000E+02  0.51100000000E-03 0.  1.
         11   -1    0    0    0    0 -0.00000000000E+00 -0.00000000000E+00 -0.45593999997E+02  0.45594000000E+02  0.51100000000E-03 0. -1.
    9900012    2    1    2    0    0  0.47249571257E+01  0.42475545429E+01 -0.17615708832E+02  0.72461544460E+02  0.69999966346E+02 0.  0.
        -12    1    1    2    0    0 -0.47249571257E+01 -0.42475545429E+01  0.17615708832E+02  0.18726455540E+02  0.00000000000E+00 0.  1.
         11    1    3    3    0    0  0.27995435795E+01  0.85154059253E+01  0.76996947612E+01  0.11816720442E+02  0.51100000000E-03 0. -1.
        -11    1    3    3    0    0  0.12120235277E+02 -0.68765641199E+01  0.14114701704E+02  0.19834617256E+02  0.51100000000E-03 0.  1.
         12    1    3    3    0    0 -0.10194821731E+02  0.26087127374E+01 -0.39430105297E+02  0.40810206762E+02  0.00000000000E+00 0. -1.
</event>
<event>
 7    1  0.3509180E-013  0.7246158E+02  0.7816164E-02  0.1226708E+00
        -11   -1    0    0    0    0  0.00000000000E+00  0.00000000000E+00  0.45593999997E+02  0.45594000000E+02  0.51100000000E-03 0. -1.
         11   -1    0    0    0    0 -0.00000000000E+00 -0.00000000000E+00 -0.45593999997E+02  0.45594000000E+02  0.51100000000E-03 0.  1.
    9900012    2    1    2    0    0 -0.14609755209E+02  0.39575338374E+01  0.11025958202E+02  0.72461580812E+02  0.70000013701E+02 0.  0.
        -12    1    1    2    0    0  0.14609755209E+02 -0.39575338374E+01 -0.11025958202E+02  0.18726419188E+02  0.00000000000E+00 0.  1.
         11    1    3    3    0    0  0.20139655679E+02 -0.40767577852E+01  0.35804339172E+01  0.20857736987E+02  0.51100000000E-03 0. -1.
        -11    1    3    3    0    0  0.14837976550E+00  0.13237303061E+02 -0.50563507821E+01  0.14170917133E+02  0.51100000000E-03 0.  1.
        -12    1    3    3    0    0 -0.34897790654E+02 -0.52030114385E+01  0.12501875067E+02  0.37432926692E+02  0.00000000000E+00 0.  1.
</event>
<event>
 7    1  0.3509180E-013  0.7246157E+02  0.7816164E-02  0.1226708E+00
        -11   -1    0    0    0    0  0.00000000000E+00  0.00000000000E+00  0.45593999997E+02  0.45594000000E+02  0.51100000000E-03 0.  1.
         11   -1    0    0    0    0 -0.00000000000E+00 -0.00000000000E+00 -0.45593999997E+02  0.45594000000E+02  0.51100000000E-03 0. -1.
    9900012    2    1    2    0    0 -0.15990648116E+02 -0.87836019200E+01  0.42221503806E+01  0.72461573654E+02  0.70000004377E+02 0.  0.
        -12    1    1    2    0    0  0.15990648116E+02  0.87836019200E+01 -0.42221503806E+01  0.18726426346E+02  0.00000000000E+00 0.  1.
         11    1    3    3    0    0 -0.21537637991E+01  0.43737336898E+01  0.48917879271E+01  0.69063618698E+01  0.51100000000E-03 0. -1.
        -11    1    3    3    0    0 -0.20310128622E+02  0.20001034864E+02  0.98692020063E+01  0.30165275878E+02  0.51100000000E-03 0.  1.
         12    1    3    3    0    0  0.64732443052E+01 -0.33158370474E+02 -0.10538839553E+02  0.35389935906E+02  0.00000000000E+00 0. -1.
</event>
<event>
 7    1  0.3509180E-013  0.7246155E+02  0.7816164E-02  0.1226708E+00
        -11   -1    0    0    0    0  0.00000000000E+00  0.00000000000E+00  0.45593999997E+02  0.45594000000E+02  0.51100000000E-03 0. -1.
         11   -1    0    0    0    0 -0.00000000000E+00 -0.00000000000E+00 -0.45593999997E+02  0.45594000000E+02  0.51100000000E-03 0.  1.
    9900012    2    1    2    0    0 -0.44968406274E+01 -0.18148703996E+02  0.10406769829E+01  0.72461547027E+02  0.69999969690E+02 0.  0.
        -12    1    1    2    0    0  0.44968406274E+01  0.18148703996E+02 -0.10406769829E+01  0.18726452973E+02  0.00000000000E+00 0.  1.
         11    1    3    3    0    0  0.73670072372E+01 -0.13799807357E+02  0.24287145168E+02  0.28888975395E+02  0.51100000000E-03 0. -1.
        -11    1    3    3    0    0  0.59222494420E+01  0.23268290757E+01  0.59684063662E+01  0.87240499090E+01  0.51100000000E-03 0.  1.
        -12    1    3    3    0    0 -0.17786097307E+02 -0.66757257150E+01 -0.29214874551E+02  0.34848521723E+02  0.00000000000E+00 0.  1.
</event>
<event>
 7    1  0.3509180E-013  0.7246153E+02  0.7816164E-02  0.1226708E+00
        -11   -1    0    0    0    0  0.00000000000E+00  0.00000000000E+00  0.45593999997E+02  0.45594000000E+02  0.51100000000E-03 0.  1.
         11   -1    0    0    0    0 -0.00000000000E+00 -0.00000000000E+00 -0.45593999997E+02  0.45594000000E+02  0.51100000000E-03 0. -1.
    9900012    2    1    2    0    0  0.91840441344E+01  0.16314548759E+02 -0.41161946057E+00  0.72461532142E+02  0.69999950299E+02 0.  0.
        -12    1    1    2    0    0 -0.91840441344E+01 -0.16314548759E+02  0.41161946057E+00  0.18726467858E+02  0.00000000000E+00 0.  1.
         11    1    3    3    0    0 -0.93475784731E+01 -0.10114142986E+01  0.37146475909E+01  0.10109341679E+02  0.51100000000E-03 0. -1.
        -11    1    3    3    0    0  0.11687646395E+02 -0.40378927868E+01  0.23626315473E+02  0.26666616574E+02  0.51100000000E-03 0.  1.
         12    1    3    3    0    0  0.68439762124E+01  0.21363855844E+02 -0.27752582525E+02  0.35685573888E+02  0.00000000000E+00 0. -1.
</event>
<event>
 7    1  0.3509180E-013  0.7246156E+02  0.7816164E-02  0.1226708E+00
        -11   -1    0    0    0    0  0.00000000000E+00  0.00000000000E+00  0.45593999997E+02  0.45594000000E+02  0.51100000000E-03 0. -1.
         11   -1    0    0    0    0 -0.00000000000E+00 -0.00000000000E+00 -0.45593999997E+02  0.45594000000E+02  0.51100000000E-03 0.  1.
    9900012    2    1    2    0    0  0.10176233546E+02  0.14588870429E+02 -0.58556523275E+01  0.72461560569E+02  0.69999987331E+02 0.  0.
        -12    1    1    2    0    0 -0.10176233546E+02 -0.14588870429E+02  0.58556523275E+01  0.18726439431E+02  0.00000000000E+00 0.  1.
         11    1    3    3    0    0  0.45323885411E+01  0.29361305979E+02 -0.43055882767E+01  0.30019442456E+02  0.51100000000E-03 0. -1.
        -11    1    3    3    0    0  0.14935702666E+02 -0.78668384259E+01 -0.16451903673E+02  0.23571752071E+02  0.51100000000E-03 0.  1.
         12    1    3    3    0    0 -0.92918576609E+01 -0.69055971245E+01  0.14901839623E+02  0.18870366042E+02  0.00000000000E+00 0. -1.
</event>
<event>
 7    1  0.3509180E-013  0.7246141E+02  0.7816164E-02  0.1226708E+00
        -11   -1    0    0    0    0  0.00000000000E+00  0.00000000000E+00  0.45593999997E+02  0.45594000000E+02  0.51100000000E-03 0. -1.
         11   -1    0    0    0    0 -0.00000000000E+00 -0.00000000000E+00 -0.45593999997E+02  0.45594000000E+02  0.51100000000E-03 0.  1.
    9900012    2    1    2    0    0  0.29263900322E+01  0.16905638300E+02  0.75047287114E+01  0.72461406129E+02  0.69999786144E+02 0.  0.
        -12    1    1    2    0    0 -0.29263900322E+01 -0.16905638300E+02 -0.75047287114E+01  0.18726593871E+02  0.00000000000E+00 0.  1.
         11    1    3    3    0    0 -0.13458552375E+02 -0.14240948313E+02 -0.92334076384E+01  0.21660864659E+02  0.51100000000E-03 0. -1.
        -11    1    3    3    0    0  0.80968178726E+01 -0.16689383930E+01 -0.58339375311E+01  0.10118233166E+02  0.51100000000E-03 0.  1.
         12    1    3    3    0    0  0.82881245348E+01  0.32815525006E+02  0.22572073881E+02  0.40682308305E+02  0.00000000000E+00 0. -1.
</event>
<event>
 7    1  0.3509180E-013  0.7246165E+02  0.7816164E-02  0.1226708E+00
        -11   -1    0    0    0    0  0.00000000000E+00  0.00000000000E+00  0.45593999997E+02  0.45594000000E+02  0.51100000000E-03 0. -1.
         11   -1    0    0    0    0 -0.00000000000E+00 -0.00000000000E+00 -0.45593999997E+02  0.45594000000E+02  0.51100000000E-03 0.  1.
    9900012    2    1    2    0    0 -0.76963782602E+01  0.11949856948E+02  0.12191919767E+02  0.72461648860E+02  0.70000102347E+02 0.  0.
        -12    1    1    2    0    0  0.76963782602E+01 -0.11949856948E+02 -0.12191919767E+02  0.18726351140E+02  0.00000000000E+00 0.  1.
         11    1    3    3    0    0  0.11633989577E+02  0.10289751128E+02  0.10309627781E+02  0.18641810990E+02  0.51100000000E-03 0. -1.
        -11    1    3    3    0    0 -0.31744611913E+01 -0.11770599712E+02  0.21731015225E+02  0.24917087398E+02  0.51100000000E-03 0.  1.
        -12    1    3    3    0    0 -0.16155906646E+02  0.13430705533E+02 -0.19848723239E+02  0.28902750472E+02  0.00000000000E+00 0.  1.
</event>
<event>
 7    1  0.3509180E-013  0.7246158E+02  0.7816164E-02  0.1226708E+00
        -11   -1    0    0    0    0  0.00000000000E+00  0.00000000000E+00  0.45593999997E+02  0.45594000000E+02  0.51100000000E-03 0. -1.
         11   -1    0    0    0    0 -0.00000000000E+00 -0.00000000000E+00 -0.45593999997E+02  0.45594000000E+02  0.51100000000E-03 0.  1.
    9900012    2    1    2    0    0  0.73196706702E+01  0.14995907736E+02  0.84984663743E+01  0.72461581275E+02  0.70000014304E+02 0.  0.
        -12    1    1    2    0    0 -0.73196706702E+01 -0.14995907736E+02 -0.84984663743E+01  0.18726418725E+02  0.00000000000E+00 0.  1.
         11    1    3    3    0    0 -0.24835340486E+01 -0.42554730763E+01 -0.32481895772E+01  0.59015022040E+01  0.51100000000E-03 0. -1.
        -11    1    3    3    0    0 -0.19626194005E+02  0.25159241104E+02 -0.48270361648E+01  0.32271894621E+02  0.51100000000E-03 0.  1.
         12    1    3    3    0    0  0.29429398724E+02 -0.59078602912E+01  0.16573692116E+02  0.34288184449E+02  0.00000000000E+00 0. -1.
</event>
<event>
 7    1  0.3509180E-013  0.7246149E+02  0.7816164E-02  0.1226708E+00
        -11   -1    0    0    0    0  0.00000000000E+00  0.00000000000E+00  0.45593999997E+02  0.45594000000E+02  0.51100000000E-03 0. -1.
         11   -1    0    0    0    0 -0.00000000000E+00 -0.00000000000E+00 -0.45593999997E+02  0.45594000000E+02  0.51100000000E-03 0.  1.
    9900012    2    1    2    0    0 -0.11740513152E+02 -0.12602239505E+02  0.73502565195E+01  0.72461485094E+02  0.69999889011E+02 0.  0.
        -12    1    1    2    0    0  0.11740513152E+02  0.12602239505E+02 -0.73502565195E+01  0.18726514906E+02  0.00000000000E+00 0.  1.
         11    1    3    3    0    0 -0.39902916585E+01 -0.23925464733E+02  0.27148699663E+02  0.36406073448E+02  0.51100000000E-03 0. -1.
        -11    1    3    3    0    0  0.77498727183E+01 -0.80570264406E+00  0.46696535094E+00  0.78056223839E+01  0.51100000000E-03 0.  1.
        -12    1    3    3    0    0 -0.15500094212E+02  0.12128927873E+02 -0.20265408495E+02  0.28249789262E+02  0.00000000000E+00 0.  1.
</event>
<event>
 7    1  0.3509180E-013  0.7246155E+02  0.7816164E-02  0.1226708E+00
        -11   -1    0    0    0    0  0.00000000000E+00  0.00000000000E+00  0.45593999997E+02  0.45594000000E+02  0.51100000000E-03 0.  1.
         11   -1    0    0    0    0 -0.00000000000E+00 -0.00000000000E+00 -0.45593999997E+02  0.45594000000E+02  0.51100000000E-03 0. -1.
    9900012    2    1    2    0    0  0.14797582499E+02 -0.92028206404E+01  0.68570771077E+01  0.72461551805E+02  0.69999975914E+02 0.  0.
        -12    1    1    2    0    0 -0.14797582499E+02  0.92028206404E+01 -0.68570771077E+01  0.18726448195E+02  0.00000000000E+00 0.  1.
         11    1    3    3    0    0  0.24827209963E+02  0.24618129651E+01 -0.33345165795E+01  0.25170814025E+02  0.51100000000E-03 0. -1.
        -11    1    3    3    0    0  0.85328982238E+01 -0.29559347545E+01 -0.13321244764E+02  0.16093584582E+02  0.51100000000E-03 0.  1.
        -12    1    3    3    0    0 -0.18562525688E+02 -0.87086988510E+01  0.23512838451E+02  0.31197153198E+02  0.00000000000E+00 0.  1.
</event>
<event>
 7    1  0.3509180E-013  0.7246158E+02  0.7816164E-02  0.1226708E+00
        -11   -1    0    0    0    0  0.00000000000E+00  0.00000000000E+00  0.45593999997E+02  0.45594000000E+02  0.51100000000E-03 0.  1.
         11   -1    0    0    0    0 -0.00000000000E+00 -0.00000000000E+00 -0.45593999997E+02  0.45594000000E+02  0.51100000000E-03 0. -1.
    9900012    2    1    2    0    0 -0.63439753610E+01  0.17487724760E+02  0.21476123624E+01  0.72461580707E+02  0.70000013565E+02 0.  0.
        -12    1    1    2    0    0  0.63439753610E+01 -0.17487724760E+02 -0.21476123624E+01  0.18726419293E+02  0.00000000000E+00 0.  1.
         11    1    3    3    0    0 -0.20360131375E+01 -0.28436999394E+00 -0.75492702740E+01  0.78241739322E+01  0.51100000000E-03 0. -1.
        -11    1    3    3    0    0  0.95338002410E+01 -0.11449857431E+02 -0.17072582159E+02  0.22659780318E+02  0.51100000000E-03 0.  1.
        -12    1    3    3    0    0 -0.13841762465E+02  0.29221952185E+02  0.26769464795E+02  0.41977626458E+02  0.00000000000E+00 0.  1.
</event>
<event>
 7    1  0.3509180E-013  0.7246143E+02  0.7816164E-02  0.1226708E+00
        -11   -1    0    0    0    0  0.00000000000E+00  0.00000000000E+00  0.45593999997E+02  0.45594000000E+02  0.51100000000E-03 0. -1.
         11   -1    0    0    0    0 -0.00000000000E+00 -0.00000000000E+00 -0.45593999997E+02  0.45594000000E+02  0.51100000000E-03 0.  1.
    9900012    2    1    2    0    0 -0.37173905694E+01 -0.18163233456E+02  0.26386207043E+01  0.72461431670E+02  0.69999819415E+02 0.  0.
        -12    1    1    2    0    0  0.37173905694E+01  0.18163233456E+02 -0.26386207043E+01  0.18726568330E+02  0.00000000000E+00 0.  1.
         11    1    3    3    0    0 -0.53651617890E+01  0.10485542285E+02  0.71446368865E+01  0.13775971637E+02  0.51100000000E-03 0. -1.
        -11    1    3    3    0    0  0.26272853644E+02 -0.15602122477E+02 -0.39648745853E+01  0.30812486026E+02  0.51100000000E-03 0.  1.
         12    1    3    3    0    0 -0.24625082424E+02 -0.13046653263E+02 -0.54114159684E+00  0.27872974007E+02  0.00000000000E+00 0. -1.
</event>
<event>
 7    1  0.3509180E-013  0.7246201E+02  0.7816164E-02  0.1226707E+00
        -11   -1    0    0    0    0  0.00000000000E+00  0.00000000000E+00  0.45593999997E+02  0.45594000000E+02  0.51100000000E-03 0.  1.
         11   -1    0    0    0    0 -0.00000000000E+00 -0.00000000000E+00 -0.45593999997E+02  0.45594000000E+02  0.51100000000E-03 0. -1.
    9900012    2    1    2    0    0 -0.14139973974E+01  0.11140057058E+02 -0.14985404120E+02  0.72462012802E+02  0.70000576446E+02 0.  0.
        -12    1    1    2    0    0  0.14139973974E+01 -0.11140057058E+02  0.14985404120E+02  0.18725987198E+02  0.00000000000E+00 0.  1.
         11    1    3    3    0    0  0.31877242115E+01 -0.29719722911E+01  0.99907214584E+01  0.10899941306E+02  0.51100000000E-03 0. -1.
        -11    1    3    3    0    0 -0.25204985396E+02  0.42166403615E+01  0.26663517132E+01  0.25693983274E+02  0.51100000000E-03 0.  1.
         12    1    3    3    0    0  0.20603263787E+02  0.98953889874E+01 -0.27642477292E+02  0.35868088222E+02  0.00000000000E+00 0. -1.
</event>
<event>
 7    1  0.3509180E-013  0.7246129E+02  0.7816164E-02  0.1226709E+00
        -11   -1    0    0    0    0  0.00000000000E+00  0.00000000000E+00  0.45593999997E+02  0.45594000000E+02  0.51100000000E-03 0. -1.
         11   -1    0    0    0    0 -0.00000000000E+00 -0.00000000000E+00 -0.45593999997E+02  0.45594000000E+02  0.51100000000E-03 0.  1.
    9900012    2    1    2    0    0  0.68288181555E+01  0.17423004520E+02  0.70426964130E+00  0.72461285402E+02  0.69999628874E+02 0.  0.
        -12    1    1    2    0    0 -0.68288181555E+01 -0.17423004520E+02 -0.70426964130E+00  0.18726714598E+02  0.00000000000E+00 0.  1.
         11    1    3    3    0    0  0.36218998604E+01  0.30051149030E+01 -0.12320000113E+02  0.13188300771E+02  0.51100000000E-03 0. -1.
        -11    1    3    3    0    0  0.46470286725E+01 -0.12901799287E+02 -0.14852226130E+02  0.20214844090E+02  0.51100000000E-03 0.  1.
         12    1    3    3    0    0 -0.14401103774E+01  0.27319688904E+02  0.27876495884E+02  0.39058140541E+02  0.00000000000E+00 0. -1.
</event>
<event>
 7    1  0.3509180E-013  0.7246162E+02  0.7816164E-02  0.1226708E+00
        -11   -1    0    0    0    0  0.00000000000E+00  0.00000000000E+00  0.45593999997E+02  0.45594000000E+02  0.51100000000E-03 0.  1.
         11   -1    0    0    0    0 -0.00000000000E+00 -0.00000000000E+00 -0.45593999997E+02  0.45594000000E+02  0.51100000000E-03 0. -1.
    9900012    2    1    2    0    0 -0.25227529662E+01  0.16995730664E+02 -0.74470342418E+01  0.72461615877E+02  0.70000059380E+02 0.  0.
        -12    1    1    2    0    0  0.25227529662E+01 -0.16995730664E+02  0.74470342418E+01  0.18726384123E+02  0.00000000000E+00 0.  1.
         11    1    3    3    0    0  0.16182372206E+02 -0.73151997756E+01 -0.16453519379E+01  0.17835035779E+02  0.51100000000E-03 0. -1.
        -11    1    3    3    0    0 -0.49056571006E+01  0.22903779991E+02  0.16297247894E+02  0.28535046848E+02  0.51100000000E-03 0.  1.
         12    1    3    3    0    0 -0.13799468072E+02  0.14071504479E+01 -0.22098930198E+02  0.26091533250E+02  0.00000000000E+00 0. -1.
</event>
<event>
 7    1  0.3509180E-013  0.7246153E+02  0.7816164E-02  0.1226708E+00
        -11   -1    0    0    0    0  0.00000000000E+00  0.00000000000E+00  0.45593999997E+02  0.45594000000E+02  0.51100000000E-03 0.  1.
         11   -1    0    0    0    0 -0.00000000000E+00 -0.00000000000E+00 -0.45593999997E+02  0.45594000000E+02  0.51100000000E-03 0. -1.
    9900012    2    1    2    0    0 -0.12393091621E+02  0.29202820809E+01 -0.13731859889E+02  0.72461528272E+02  0.69999945259E+02 0.  0.
        -12    1    1    2    0    0  0.12393091621E+02 -0.29202820809E+01  0.13731859889E+02  0.18726471728E+02  0.00000000000E+00 0.  1.
         11    1    3    3    0    0 -0.28978875545E+02 -0.74777339562E+01  0.13290470142E+02  0.32746424688E+02  0.51100000000E-03 0. -1.
        -11    1    3    3    0    0  0.46961381968E+01  0.14167675087E+02 -0.79081065894E+01  0.16891266425E+02  0.51100000000E-03 0.  1.
        -12    1    3    3    0    0  0.11889645728E+02 -0.37696590505E+01 -0.19114223442E+02  0.22823837159E+02  0.00000000000E+00 0.  1.
</event>
<event>
 7    1  0.3509180E-013  0.7246128E+02  0.7816164E-02  0.1226709E+00
        -11   -1    0    0    0    0  0.00000000000E+00  0.00000000000E+00  0.45593999997E+02  0.45594000000E+02  0.51100000000E-03 0.  1.
         11   -1    0    0    0    0 -0.00000000000E+00 -0.00000000000E+00 -0.45593999997E+02  0.45594000000E+02  0.51100000000E-03 0. -1.
    9900012    2    1    2    0    0 -0.10300368268E+02 -0.43681446492E+01 -0.15017044739E+02  0.72461283608E+02  0.69999626537E+02 0.  0.
        -12    1    1    2    0    0  0.10300368268E+02  0.43681446492E+01  0.15017044739E+02  0.18726716392E+02  0.00000000000E+00 0.  1.
         11    1    3    3    0    0 -0.20941758903E+02 -0.10797088301E+01  0.82453763451E+00  0.20985778510E+02  0.51100000000E-03 0. -1.
        -11    1    3    3    0    0 -0.17809392671E+02 -0.90019587447E+01 -0.67466649312E+01  0.21064833645E+02  0.51100000000E-03 0.  1.
        -12    1    3    3    0    0  0.28450783306E+02  0.57135229256E+01 -0.90949174426E+01  0.30410671453E+02  0.00000000000E+00 0.  1.
</event>
<event>
 7    1  0.3509180E-013  0.7246158E+02  0.7816164E-02  0.1226708E+00
        -11   -1    0    0    0    0  0.00000000000E+00  0.00000000000E+00  0.45593999997E+02  0.45594000000E+02  0.51100000000E-03 0.  1.
         11   -1    0    0    0    0 -0.00000000000E+00 -0.00000000000E+00 -0.45593999997E+02  0.45594000000E+02  0.51100000000E-03 0. -1.
    9900012    2    1    2    0    0 -0.80196082903E+01 -0.68525195501E+01 -0.15472806274E+02  0.72461578150E+02  0.70000010234E+02 0.  0.
        -12    1    1    2    0    0  0.80196082903E+01  0.68525195501E+01  0.15472806274E+02  0.18726421850E+02  0.00000000000E+00 0.  1.
         11    1    3    3    0    0  0.37622387926E+00  0.26676477532E+02 -0.26467708927E+01  0.26810098738E+02  0.51100000000E-03 0. -1.
        -11    1    3    3    0    0  0.42273262973E+01 -0.20082412295E+01 -0.10643478049E+02  0.11626992117E+02  0.51100000000E-03 0.  1.
        -12    1    3    3    0    0 -0.12623158467E+02 -0.31520755852E+02 -0.21825573323E+01  0.34024487295E+02  0.00000000000E+00 0.  1.
</event>
<event>
 7    1  0.3509180E-013  0.7246155E+02  0.7816164E-02  0.1226708E+00
        -11   -1    0    0    0    0  0.00000000000E+00  0.00000000000E+00  0.45593999997E+02  0.45594000000E+02  0.51100000000E-03 0.  1.
         11   -1    0    0    0    0 -0.00000000000E+00 -0.00000000000E+00 -0.45593999997E+02  0.45594000000E+02  0.51100000000E-03 0. -1.
    9900012    2    1    2    0    0  0.14489562478E+02  0.11503647170E+02  0.28980377349E+01  0.72461549676E+02  0.69999973141E+02 0.  0.
        -12    1    1    2    0    0 -0.14489562478E+02 -0.11503647170E+02 -0.28980377349E+01  0.18726450324E+02  0.00000000000E+00 0.  1.
         11    1    3    3    0    0 -0.41846586136E+00 -0.91340242904E+01  0.12249525161E+01  0.92252925342E+01  0.51100000000E-03 0. -1.
        -11    1    3    3    0    0 -0.20949676989E+02  0.44997951734E+01 -0.77764187224E+01  0.22794951436E+02  0.51100000000E-03 0.  1.
         12    1    3    3    0    0  0.35857705328E+02  0.16137876287E+02  0.94495039412E+01  0.40441305706E+02  0.00000000000E+00 0. -1.
</event>
<event>
 7    1  0.3509180E-013  0.7246158E+02  0.7816164E-02  0.1226708E+00
        -11   -1    0    0    0    0  0.00000000000E+00  0.00000000000E+00  0.45593999997E+02  0.45594000000E+02  0.51100000000E-03 0.  1.
         11   -1    0    0    0    0 -0.00000000000E+00 -0.00000000000E+00 -0.45593999997E+02  0.45594000000E+02  0.51100000000E-03 0. -1.
    9900012    2    1    2    0    0  0.14820742355E+02  0.98512983970E+01  0.58289300165E+01  0.72461577245E+02  0.70000009054E+02 0.  0.
        -12    1    1    2    0    0 -0.14820742355E+02 -0.98512983970E+01 -0.58289300165E+01  0.18726422755E+02  0.00000000000E+00 0.  1.
         11    1    3    3    0    0  0.20389744837E+02  0.28284925758E+01 -0.22345952410E+02  0.30382291785E+02  0.51100000000E-03 0. -1.
        -11    1    3    3    0    0 -0.91052991790E+01 -0.97046576854E+01  0.75885297672E+01  0.15319028632E+02  0.51100000000E-03 0.  1.
        -12    1    3    3    0    0  0.35362966975E+01  0.16727463507E+02  0.20586352659E+02  0.26760256828E+02  0.00000000000E+00 0.  1.
</event>
<event>
 7    1  0.3509180E-013  0.7246156E+02  0.7816164E-02  0.1226708E+00
        -11   -1    0    0    0    0  0.00000000000E+00  0.00000000000E+00  0.45593999997E+02  0.45594000000E+02  0.51100000000E-03 0.  1.
         11   -1    0    0    0    0 -0.00000000000E+00 -0.00000000000E+00 -0.45593999997E+02  0.45594000000E+02  0.51100000000E-03 0. -1.
    9900012    2    1    2    0    0 -0.15270641532E+02 -0.25966166929E+01 -0.10523530877E+02  0.72461558449E+02  0.69999984570E+02 0.  0.
        -12    1    1    2    0    0  0.15270641532E+02  0.25966166929E+01  0.10523530877E+02  0.18726441551E+02  0.00000000000E+00 0.  1.
         11    1    3    3    0    0 -0.20214145097E+01  0.14024378917E+01  0.85084098509E+00  0.26032439961E+01  0.51100000000E-03 0. -1.
        -11    1    3    3    0    0  0.19323934292E+02 -0.99938128491E+01  0.15905754786E+02  0.26949652454E+02  0.51100000000E-03 0.  1.
         12    1    3    3    0    0 -0.32573161314E+02  0.59947582645E+01 -0.27280126648E+02  0.42908662000E+02  0.00000000000E+00 0. -1.
</event>
<event>
 7    1  0.3509180E-013  0.7246155E+02  0.7816164E-02  0.1226708E+00
        -11   -1    0    0    0    0  0.00000000000E+00  0.00000000000E+00  0.45593999997E+02  0.45594000000E+02  0.51100000000E-03 0.  1.
         11   -1    0    0    0    0 -0.00000000000E+00 -0.00000000000E+00 -0.45593999997E+02  0.45594000000E+02  0.51100000000E-03 0. -1.
    9900012    2    1    2    0    0  0.92044392235E+00 -0.16800728421E+02 -0.82199821344E+01  0.72461553493E+02  0.69999978113E+02 0.  0.
        -12    1    1    2    0    0 -0.92044392235E+00  0.16800728421E+02  0.82199821344E+01  0.18726446507E+02  0.00000000000E+00 0.  1.
         11    1    3    3    0    0 -0.48940522486E+01 -0.66953792077E+01 -0.39415689112E+01  0.91823643954E+01  0.51100000000E-03 0. -1.
        -11    1    3    3    0    0 -0.13386219442E+02  0.14308550034E+02  0.16744098608E+02  0.25773830012E+02  0.51100000000E-03 0.  1.
         12    1    3    3    0    0  0.19200715613E+02 -0.24413899247E+02 -0.21022511831E+02  0.37505359086E+02  0.00000000000E+00 0. -1.
</event>
<event>
 7    1  0.3509180E-013  0.7246162E+02  0.7816164E-02  0.1226708E+00
        -11   -1    0    0    0    0  0.00000000000E+00  0.00000000000E+00  0.45593999997E+02  0.45594000000E+02  0.51100000000E-03 0.  1.
         11   -1    0    0    0    0 -0.00000000000E+00 -0.00000000000E+00 -0.45593999997E+02  0.45594000000E+02  0.51100000000E-03 0. -1.
    9900012    2    1    2    0    0 -0.17214653678E+02 -0.54337769642E+01 -0.49806529751E+01  0.72461624553E+02  0.70000070681E+02 0.  0.
        -12    1    1    2    0    0  0.17214653678E+02  0.54337769642E+01  0.49806529751E+01  0.18726375447E+02  0.00000000000E+00 0.  1.
         11    1    3    3    0    0 -0.30036206526E+02  0.19587409743E+01 -0.19595388321E+01  0.30163722605E+02  0.51100000000E-03 0. -1.
        -11    1    3    3    0    0  0.89180699111E+01  0.11513519200E+02 -0.13905640170E+02  0.20136035462E+02  0.51100000000E-03 0.  1.
        -12    1    3    3    0    0  0.39034829372E+01 -0.18906037138E+02  0.10884526027E+02  0.22161866486E+02  0.00000000000E+00 0.  1.
</event>
<event>
 7    1  0.3509180E-013  0.7246158E+02  0.7816164E-02  0.1226708E+00
        -11   -1    0    0    0    0  0.00000000000E+00  0.00000000000E+00  0.45593999997E+02  0.45594000000E+02  0.51100000000E-03 0.  1.
         11   -1    0    0    0    0 -0.00000000000E+00 -0.00000000000E+00 -0.45593999997E+02  0.45594000000E+02  0.51100000000E-03 0. -1.
    9900012    2    1    2    0    0  0.63491393829E+01 -0.35280378795E+01 -0.17260365234E+02  0.72461579354E+02  0.70000011803E+02 0.  0.
        -12    1    1    2    0    0 -0.63491393829E+01  0.35280378795E+01  0.17260365234E+02  0.18726420646E+02  0.00000000000E+00 0.  1.
         11    1    3    3    0    0 -0.45513163001E+01 -0.87397477453E+01 -0.14591052082E+02  0.17606716668E+02  0.51100000000E-03 0. -1.
        -11    1    3    3    0    0 -0.58163032049E+01 -0.20348918616E+02  0.78196315002E+01  0.22562236345E+02  0.51100000000E-03 0.  1.
         12    1    3    3    0    0  0.16716758888E+02  0.25560628482E+02 -0.10488944653E+02  0.32292626342E+02  0.00000000000E+00 0. -1.
</event>
<event>
 7    1  0.3509180E-013  0.7246158E+02  0.7816164E-02  0.1226708E+00
        -11   -1    0    0    0    0  0.00000000000E+00  0.00000000000E+00  0.45593999997E+02  0.45594000000E+02  0.51100000000E-03 0.  1.
         11   -1    0    0    0    0 -0.00000000000E+00 -0.00000000000E+00 -0.45593999997E+02  0.45594000000E+02  0.51100000000E-03 0. -1.
    9900012    2    1    2    0    0 -0.46509796118E+01 -0.14210386000E+01 -0.18083915503E+02  0.72461575836E+02  0.70000007219E+02 0.  0.
        -12    1    1    2    0    0  0.46509796118E+01  0.14210386000E+01  0.18083915503E+02  0.18726424164E+02  0.00000000000E+00 0.  1.
         11    1    3    3    0    0 -0.64817959639E+01 -0.22599335514E+02 -0.84370169570E+01  0.24978528780E+02  0.51100000000E-03 0. -1.
        -11    1    3    3    0    0  0.18283894570E+02  0.11539467996E+02  0.64137042490E+01  0.22552066973E+02  0.51100000000E-03 0.  1.
         12    1    3    3    0    0 -0.16453078218E+02  0.96388289185E+01 -0.16060602795E+02  0.24930980083E+02  0.00000000000E+00 0. -1.
</event>
<event>
 7    1  0.3509180E-013  0.7246158E+02  0.7816164E-02  0.1226708E+00
        -11   -1    0    0    0    0  0.00000000000E+00  0.00000000000E+00  0.45593999997E+02  0.45594000000E+02  0.51100000000E-03 0.  1.
         11   -1    0    0    0    0 -0.00000000000E+00 -0.00000000000E+00 -0.45593999997E+02  0.45594000000E+02  0.51100000000E-03 0. -1.
    9900012    2    1    2    0    0  0.24659173417E+00  0.16516331744E+02  0.88220690502E+01  0.72461576847E+02  0.70000008536E+02 0.  0.
        -12    1    1    2    0    0 -0.24659173417E+00 -0.16516331744E+02 -0.88220690502E+01  0.18726423153E+02  0.00000000000E+00 0.  1.
         11    1    3    3    0    0 -0.55457471616E+01 -0.97291789704E+01 -0.25291213006E+02  0.27659676256E+02  0.51100000000E-03 0. -1.
        -11    1    3    3    0    0  0.52141317592E+01  0.44116126185E+01  0.52963708046E+01  0.86429763311E+01  0.51100000000E-03 0.  1.
        -12    1    3    3    0    0  0.57820713653E+00  0.21833898096E+02  0.28816911251E+02  0.36158924260E+02  0.00000000000E+00 0.  1.
</event>
<event>
 7    1  0.3509180E-013  0.7246158E+02  0.7816164E-02  0.1226708E+00
        -11   -1    0    0    0    0  0.00000000000E+00  0.00000000000E+00  0.45593999997E+02  0.45594000000E+02  0.51100000000E-03 0.  1.
         11   -1    0    0    0    0 -0.00000000000E+00 -0.00000000000E+00 -0.45593999997E+02  0.45594000000E+02  0.51100000000E-03 0. -1.
    9900012    2    1    2    0    0 -0.77223174607E+01 -0.13739967525E+02  0.10112274503E+02  0.72461575083E+02  0.70000006238E+02 0.  0.
        -12    1    1    2    0    0  0.77223174607E+01  0.13739967525E+02 -0.10112274503E+02  0.18726424917E+02  0.00000000000E+00 0.  1.
         11    1    3    3    0    0 -0.33985759180E+02 -0.46949757092E+01  0.50169078131E+01  0.34673390204E+02  0.51100000000E-03 0. -1.
        -11    1    3    3    0    0 -0.39766695861E+01  0.64188682479E+00 -0.29955252477E+01  0.50198696660E+01  0.51100000000E-03 0.  1.
        -12    1    3    3    0    0  0.30240111305E+02 -0.96868786403E+01  0.80908919380E+01  0.32768315213E+02  0.00000000000E+00 0.  1.
</event>
<event>
 7    1  0.3509180E-013  0.7246152E+02  0.7816164E-02  0.1226708E+00
        -11   -1    0    0    0    0  0.00000000000E+00  0.00000000000E+00  0.45593999997E+02  0.45594000000E+02  0.51100000000E-03 0.  1.
         11   -1    0    0    0    0 -0.00000000000E+00 -0.00000000000E+00 -0.45593999997E+02  0.45594000000E+02  0.51100000000E-03 0. -1.
    9900012    2    1    2    0    0  0.30813723704E+01 -0.14574940978E+02 -0.11347119274E+02  0.72461524731E+02  0.69999940645E+02 0.  0.
        -12    1    1    2    0    0 -0.30813723704E+01  0.14574940978E+02  0.11347119274E+02  0.18726475269E+02  0.00000000000E+00 0.  1.
         11    1    3    3    0    0  0.77427049153E+01 -0.28583912255E+02 -0.21866966886E+01  0.29694631870E+02  0.51100000000E-03 0. -1.
        -11    1    3    3    0    0  0.55992527169E+01  0.60402891588E+01  0.13981848210E+02  0.16227409027E+02  0.51100000000E-03 0.  1.
        -12    1    3    3    0    0 -0.10260585262E+02  0.79686821190E+01 -0.23142270795E+02  0.26539483834E+02  0.00000000000E+00 0.  1.
</event>
<event>
 7    1  0.3509180E-013  0.7246160E+02  0.7816164E-02  0.1226708E+00
        -11   -1    0    0    0    0  0.00000000000E+00  0.00000000000E+00  0.45593999997E+02  0.45594000000E+02  0.51100000000E-03 0. -1.
         11   -1    0    0    0    0 -0.00000000000E+00 -0.00000000000E+00 -0.45593999997E+02  0.45594000000E+02  0.51100000000E-03 0.  1.
    9900012    2    1    2    0    0  0.77322108297E+01 -0.90952309103E+01  0.14428020461E+02  0.72461599277E+02  0.70000037755E+02 0.  0.
        -12    1    1    2    0    0 -0.77322108297E+01  0.90952309103E+01 -0.14428020461E+02  0.18726400723E+02  0.00000000000E+00 0.  1.
         11    1    3    3    0    0 -0.11849817463E+02  0.15506244508E+02 -0.41032804745E+01  0.19942384601E+02  0.51100000000E-03 0. -1.
        -11    1    3    3    0    0 -0.52771054377E+01  0.51010055979E+00  0.16269821076E+02  0.17111841586E+02  0.51100000000E-03 0.  1.
        -12    1    3    3    0    0  0.24859133731E+02 -0.25111575978E+02  0.22614798596E+01  0.35407373090E+02  0.00000000000E+00 0.  1.
</event>
<event>
 7    1  0.3509180E-013  0.7246155E+02  0.7816164E-02  0.1226708E+00
        -11   -1    0    0    0    0  0.00000000000E+00  0.00000000000E+00  0.45593999997E+02  0.45594000000E+02  0.51100000000E-03 0.  1.
         11   -1    0    0    0    0 -0.00000000000E+00 -0.00000000000E+00 -0.45593999997E+02  0.45594000000E+02  0.51100000000E-03 0. -1.
    9900012    2    1    2    0    0  0.13776084286E+02 -0.11002972918E+02 -0.63114336848E+01  0.72461545278E+02  0.69999967412E+02 0.  0.
        -12    1    1    2    0    0 -0.13776084286E+02  0.11002972918E+02  0.63114336848E+01  0.18726454722E+02  0.00000000000E+00 0.  1.
         11    1    3    3    0    0 -0.12163960294E+01  0.36297699334E+01 -0.62152963641E+01  0.72996409655E+01  0.51100000000E-03 0. -1.
        -11    1    3    3    0    0 -0.21924493822E+02 -0.17589222251E+02  0.72925560961E+00  0.28117538704E+02  0.51100000000E-03 0.  1.
         12    1    3    3    0    0  0.36916974137E+02  0.29564793995E+01 -0.82539293027E+00  0.37044365609E+02  0.00000000000E+00 0. -1.
</event>
<event>
 7    1  0.3509180E-013  0.7246158E+02  0.7816164E-02  0.1226708E+00
        -11   -1    0    0    0    0  0.00000000000E+00  0.00000000000E+00  0.45593999997E+02  0.45594000000E+02  0.51100000000E-03 0.  1.
         11   -1    0    0    0    0 -0.00000000000E+00 -0.00000000000E+00 -0.45593999997E+02  0.45594000000E+02  0.51100000000E-03 0. -1.
    9900012    2    1    2    0    0 -0.68860909283E+01  0.40768343676E+01 -0.16930446786E+02  0.72461578690E+02  0.70000010937E+02 0.  0.
        -12    1    1    2    0    0  0.68860909283E+01 -0.40768343676E+01  0.16930446786E+02  0.18726421310E+02  0.00000000000E+00 0.  1.
         11    1    3    3    0    0 -0.26419631099E+02 -0.85239112268E+01 -0.16327984472E+02  0.32206475238E+02  0.51100000000E-03 0. -1.
        -11    1    3    3    0    0  0.52435738657E+01  0.10956607770E+00  0.14869967989E+02  0.15767784241E+02  0.51100000000E-03 0.  1.
        -12    1    3    3    0    0  0.14289966305E+02  0.12491179517E+02 -0.15472430302E+02  0.24487319212E+02  0.00000000000E+00 0.  1.
</event>
<event>
 7    1  0.3509180E-013  0.7246160E+02  0.7816164E-02  0.1226708E+00
        -11   -1    0    0    0    0  0.00000000000E+00  0.00000000000E+00  0.45593999997E+02  0.45594000000E+02  0.51100000000E-03 0. -1.
         11   -1    0    0    0    0 -0.00000000000E+00 -0.00000000000E+00 -0.45593999997E+02  0.45594000000E+02  0.51100000000E-03 0.  1.
    9900012    2    1    2    0    0  0.14580672165E+02 -0.10656393904E+02  0.49521182617E+01  0.72461595991E+02  0.70000033475E+02 0.  0.
        -12    1    1    2    0    0 -0.14580672165E+02  0.10656393904E+02 -0.49521182617E+01  0.18726404009E+02  0.00000000000E+00 0.  1.
         11    1    3    3    0    0  0.11782041719E+02 -0.18689242591E+02  0.37536665995E+01  0.22409692298E+02  0.51100000000E-03 0. -1.
        -11    1    3    3    0    0 -0.40568067818E+01 -0.17523082000E+02 -0.10820682314E+02  0.20990551447E+02  0.51100000000E-03 0.  1.
        -12    1    3    3    0    0  0.68554372275E+01  0.25555930687E+02  0.12019133976E+02  0.29061352247E+02  0.00000000000E+00 0.  1.
</event>
<event>
 7    1  0.3509180E-013  0.7246157E+02  0.7816164E-02  0.1226708E+00
        -11   -1    0    0    0    0  0.00000000000E+00  0.00000000000E+00  0.45593999997E+02  0.45594000000E+02  0.51100000000E-03 0.  1.
         11   -1    0    0    0    0 -0.00000000000E+00 -0.00000000000E+00 -0.45593999997E+02  0.45594000000E+02  0.51100000000E-03 0. -1.
    9900012    2    1    2    0    0 -0.18074462130E+02  0.34470259163E+01 -0.34800631061E+01  0.72461574603E+02  0.70000005612E+02 0.  0.
        -12    1    1    2    0    0  0.18074462130E+02 -0.34470259163E+01  0.34800631061E+01  0.18726425397E+02  0.00000000000E+00 0.  1.
         11    1    3    3    0    0 -0.83038165868E+01  0.11092408399E+02 -0.41856343096E+01  0.14474613253E+02  0.51100000000E-03 0. -1.
        -11    1    3    3    0    0  0.17984164020E+02  0.11916679424E+02 -0.78704723454E+01  0.22964793471E+02  0.51100000000E-03 0.  1.
         12    1    3    3    0    0 -0.27754809563E+02 -0.19562061907E+02  0.85760435489E+01  0.35022167878E+02  0.00000000000E+00 0. -1.
</event>
<event>
 7    1  0.3509180E-013  0.7246160E+02  0.7816164E-02  0.1226708E+00
        -11   -1    0    0    0    0  0.00000000000E+00  0.00000000000E+00  0.45593999997E+02  0.45594000000E+02  0.51100000000E-03 0. -1.
         11   -1    0    0    0    0 -0.00000000000E+00 -0.00000000000E+00 -0.45593999997E+02  0.45594000000E+02  0.51100000000E-03 0.  1.
    9900012    2    1    2    0    0  0.15233186134E+02 -0.21498974384E+01 -0.10677366967E+02  0.72461596604E+02  0.70000034273E+02 0.  0.
        -12    1    1    2    0    0 -0.15233186134E+02  0.21498974384E+01  0.10677366967E+02  0.18726403396E+02  0.00000000000E+00 0.  1.
         11    1    3    3    0    0 -0.19590069151E+02  0.17439627792E+01 -0.21592413203E+01  0.19785715525E+02  0.51100000000E-03 0. -1.
        -11    1    3    3    0    0 -0.19539858446E+01  0.35059925926E+01 -0.14179646115E+02  0.14736770642E+02  0.51100000000E-03 0.  1.
         12    1    3    3    0    0  0.36777241130E+02 -0.73998528102E+01  0.56615204677E+01  0.37939110437E+02  0.00000000000E+00 0. -1.
</event>
<event>
 7    1  0.3509180E-013  0.7246162E+02  0.7816164E-02  0.1226708E+00
        -11   -1    0    0    0    0  0.00000000000E+00  0.00000000000E+00  0.45593999997E+02  0.45594000000E+02  0.51100000000E-03 0.  1.
         11   -1    0    0    0    0 -0.00000000000E+00 -0.00000000000E+00 -0.45593999997E+02  0.45594000000E+02  0.51100000000E-03 0. -1.
    9900012    2    1    2    0    0  0.18602385187E+02  0.17755589112E+00 -0.21440657862E+01  0.72461620776E+02  0.70000065762E+02 0.  0.
        -12    1    1    2    0    0 -0.18602385187E+02 -0.17755589112E+00  0.21440657862E+01  0.18726379224E+02  0.00000000000E+00 0.  1.
         11    1    3    3    0    0  0.22931687278E+02  0.16439999767E+02  0.55681345390E+01  0.28760041660E+02  0.51100000000E-03 0. -1.
        -11    1    3    3    0    0 -0.62731991901E+01  0.10689918290E+02 -0.10882172148E+02  0.16493909544E+02  0.51100000000E-03 0.  1.
         12    1    3    3    0    0  0.19438970990E+01 -0.26952362165E+02  0.31699718226E+01  0.27207669573E+02  0.00000000000E+00 0. -1.
</event>
<event>
 7    1  0.3509180E-013  0.7246116E+02  0.7816164E-02  0.1226709E+00
        -11   -1    0    0    0    0  0.00000000000E+00  0.00000000000E+00  0.45593999997E+02  0.45594000000E+02  0.51100000000E-03 0.  1.
         11   -1    0    0    0    0 -0.00000000000E+00 -0.00000000000E+00 -0.45593999997E+02  0.45594000000E+02  0.51100000000E-03 0. -1.
    9900012    2    1    2    0    0  0.97037559125E+01  0.74273263836E+01 -0.14190365212E+02  0.72461160415E+02  0.69999466053E+02 0.  0.
        -12    1    1    2    0    0 -0.97037559125E+01 -0.74273263836E+01  0.14190365212E+02  0.18726839585E+02  0.00000000000E+00 0.  1.
         11    1    3    3    0    0 -0.18385755547E+02  0.29572752334E+00  0.18434439140E-01  0.18388142971E+02  0.51100000000E-03 0. -1.
        -11    1    3    3    0    0 -0.35905621300E+01  0.75079097651E+01  0.10853094745E+02  0.13676641081E+02  0.51100000000E-03 0.  1.
         12    1    3    3    0    0  0.31680073590E+02 -0.37631090485E+00 -0.25061894396E+02  0.40396376363E+02  0.00000000000E+00 0. -1.
</event>
<event>
 7    1  0.3509180E-013  0.7246159E+02  0.7816164E-02  0.1226708E+00
        -11   -1    0    0    0    0  0.00000000000E+00  0.00000000000E+00  0.45593999997E+02  0.45594000000E+02  0.51100000000E-03 0.  1.
         11   -1    0    0    0    0 -0.00000000000E+00 -0.00000000000E+00 -0.45593999997E+02  0.45594000000E+02  0.51100000000E-03 0. -1.
    9900012    2    1    2    0    0  0.52743400315E+01 -0.80654650304E+01 -0.16056397846E+02  0.72461593492E+02  0.70000030219E+02 0.  0.
        -12    1    1    2    0    0 -0.52743400315E+01  0.80654650304E+01  0.16056397846E+02  0.18726406508E+02  0.00000000000E+00 0.  1.
         11    1    3    3    0    0 -0.47759805435E+01  0.21172811178E+01 -0.90495971187E+01  0.10449309918E+02  0.51100000000E-03 0. -1.
        -11    1    3    3    0    0 -0.15609441229E+02  0.61846677222E+01  0.16511820859E+02  0.23548779133E+02  0.51100000000E-03 0.  1.
        -12    1    3    3    0    0  0.25659761804E+02 -0.16367413870E+02 -0.23518621586E+02  0.38463504442E+02  0.00000000000E+00 0.  1.
</event>
<event>
 7    1  0.3509180E-013  0.7246128E+02  0.7816164E-02  0.1226709E+00
        -11   -1    0    0    0    0  0.00000000000E+00  0.00000000000E+00  0.45593999997E+02  0.45594000000E+02  0.51100000000E-03 0. -1.
         11   -1    0    0    0    0 -0.00000000000E+00 -0.00000000000E+00 -0.45593999997E+02  0.45594000000E+02  0.51100000000E-03 0.  1.
    9900012    2    1    2    0    0  0.17776349078E+02 -0.51995559676E+01 -0.27669785031E+01  0.72461277413E+02  0.69999618467E+02 0.  0.
        -12    1    1    2    0    0 -0.17776349078E+02  0.51995559676E+01  0.27669785031E+01  0.18726722587E+02  0.00000000000E+00 0.  1.
         11    1    3    3    0    0  0.35077325836E+01  0.23054703520E+01 -0.85353378920E+00  0.42834450636E+01  0.51100000000E-03 0. -1.
        -11    1    3    3    0    0 -0.43457735607E+01  0.26459323642E+02 -0.99891989846E+01  0.28614081359E+02  0.51100000000E-03 0.  1.
         12    1    3    3    0    0  0.18614390055E+02 -0.33964349961E+02  0.80757542707E+01  0.39563750991E+02  0.00000000000E+00 0. -1.
</event>
<event>
 7    1  0.3509180E-013  0.7246153E+02  0.7816164E-02  0.1226708E+00
        -11   -1    0    0    0    0  0.00000000000E+00  0.00000000000E+00  0.45593999997E+02  0.45594000000E+02  0.51100000000E-03 0. -1.
         11   -1    0    0    0    0 -0.00000000000E+00 -0.00000000000E+00 -0.45593999997E+02  0.45594000000E+02  0.51100000000E-03 0.  1.
    9900012    2    1    2    0    0  0.84288561082E+01 -0.16156953326E+02  0.43113903023E+01  0.72461525628E+02  0.69999941814E+02 0.  0.
        -12    1    1    2    0    0 -0.84288561082E+01  0.16156953326E+02 -0.43113903023E+01  0.18726474372E+02  0.00000000000E+00 0.  1.
         11    1    3    3    0    0  0.27212487272E+02  0.35282912833E+00  0.31772591609E+01  0.27399615471E+02  0.51100000000E-03 0. -1.
        -11    1    3    3    0    0  0.13758351002E+01  0.50209708176E+01 -0.11767961792E+02  0.12868099905E+02  0.51100000000E-03 0.  1.
         12    1    3    3    0    0 -0.20159466264E+02 -0.21530753272E+02  0.12902092933E+02  0.32193810252E+02  0.00000000000E+00 0. -1.
</event>
<event>
 7    1  0.3509180E-013  0.7246158E+02  0.7816164E-02  0.1226708E+00
        -11   -1    0    0    0    0  0.00000000000E+00  0.00000000000E+00  0.45593999997E+02  0.45594000000E+02  0.51100000000E-03 0.  1.
         11   -1    0    0    0    0 -0.00000000000E+00 -0.00000000000E+00 -0.45593999997E+02  0.45594000000E+02  0.51100000000E-03 0. -1.
    9900012    2    1    2    0    0 -0.86021658989E+01 -0.16622830003E+02 -0.60266533331E+00  0.72461576397E+02  0.70000007950E+02 0.  0.
        -12    1    1    2    0    0  0.86021658989E+01  0.16622830003E+02  0.60266533331E+00  0.18726423603E+02  0.00000000000E+00 0.  1.
         11    1    3    3    0    0 -0.18932355591E+02 -0.31808983225E+02  0.17551430434E+02  0.40967038123E+02  0.51100000000E-03 0. -1.
        -11    1    3    3    0    0 -0.45504902333E+01  0.21120702958E+01 -0.64664796258E+00  0.50582562357E+01  0.51100000000E-03 0.  1.
        -12    1    3    3    0    0  0.14880679925E+02  0.13074082926E+02 -0.17507447805E+02  0.26436282039E+02  0.00000000000E+00 0.  1.
</event>
<event>
 7    1  0.3509180E-013  0.7246154E+02  0.7816164E-02  0.1226708E+00
        -11   -1    0    0    0    0  0.00000000000E+00  0.00000000000E+00  0.45593999997E+02  0.45594000000E+02  0.51100000000E-03 0.  1.
         11   -1    0    0    0    0 -0.00000000000E+00 -0.00000000000E+00 -0.45593999997E+02  0.45594000000E+02  0.51100000000E-03 0. -1.
    9900012    2    1    2    0    0  0.16888277654E+02 -0.80869350984E+01  0.26062485024E+00  0.72461538329E+02  0.69999958359E+02 0.  0.
        -12    1    1    2    0    0 -0.16888277654E+02  0.80869350984E+01 -0.26062485024E+00  0.18726461671E+02  0.00000000000E+00 0.  1.
         11    1    3    3    0    0  0.30809752886E+01  0.60195286433E+01  0.10507693012E+02  0.12495549068E+02  0.51100000000E-03 0. -1.
        -11    1    3    3    0    0  0.29151876498E+02 -0.31622053642E+01  0.11222627697E+02  0.31397114817E+02  0.51100000000E-03 0.  1.
         12    1    3    3    0    0 -0.15344574133E+02 -0.10944258378E+02 -0.21469695858E+02  0.28568874444E+02  0.00000000000E+00 0. -1.
</event>
<event>
 7    1  0.3509180E-013  0.7246155E+02  0.7816164E-02  0.1226708E+00
        -11   -1    0    0    0    0  0.00000000000E+00  0.00000000000E+00  0.45593999997E+02  0.45594000000E+02  0.51100000000E-03 0. -1.
         11   -1    0    0    0    0 -0.00000000000E+00 -0.00000000000E+00 -0.45593999997E+02  0.45594000000E+02  0.51100000000E-03 0.  1.
    9900012    2    1    2    0    0 -0.20564579412E+01  0.28024509452E+01  0.18401011547E+02  0.72461548747E+02  0.69999971931E+02 0.  0.
        -12    1    1    2    0    0  0.20564579412E+01 -0.28024509452E+01 -0.18401011547E+02  0.18726451253E+02  0.00000000000E+00 0.  1.
         11    1    3    3    0    0  0.17591160985E+02 -0.17179390633E+02  0.29217145391E+02  0.38186672969E+02  0.51100000000E-03 0. -1.
        -11    1    3    3    0    0 -0.70743449007E+01 -0.10750117342E+01  0.68250719649E+00  0.71880332732E+01  0.51100000000E-03 0.  1.
        -12    1    3    3    0    0 -0.12573274026E+02  0.21056853312E+02 -0.11498641041E+02  0.27086842505E+02  0.00000000000E+00 0.  1.
</event>
<event>
 7    1  0.3509180E-013  0.7246148E+02  0.7816164E-02  0.1226708E+00
        -11   -1    0    0    0    0  0.00000000000E+00  0.00000000000E+00  0.45593999997E+02  0.45594000000E+02  0.51100000000E-03 0.  1.
         11   -1    0    0    0    0 -0.00000000000E+00 -0.00000000000E+00 -0.45593999997E+02  0.45594000000E+02  0.51100000000E-03 0. -1.
    9900012    2    1    2    0    0  0.18379175412E+02 -0.29295620943E+01  0.20751451231E+01  0.72461477361E+02  0.69999878936E+02 0.  0.
        -12    1    1    2    0    0 -0.18379175412E+02  0.29295620943E+01 -0.20751451231E+01  0.18726522639E+02  0.00000000000E+00 0.  1.
         11    1    3    3    0    0  0.33833370589E+01  0.63995840993E+01 -0.17998033162E+02  0.19399248549E+02  0.51100000000E-03 0. -1.
        -11    1    3    3    0    0 -0.63485360431E+01  0.62877769836E+01 -0.97340010483E+01  0.13213282179E+02  0.51100000000E-03 0.  1.
         12    1    3    3    0    0  0.21344374396E+02 -0.15616923177E+02  0.29807179333E+02  0.39848946632E+02  0.00000000000E+00 0. -1.
</event>
<event>
 7    1  0.3509180E-013  0.7246155E+02  0.7816164E-02  0.1226708E+00
        -11   -1    0    0    0    0  0.00000000000E+00  0.00000000000E+00  0.45593999997E+02  0.45594000000E+02  0.51100000000E-03 0.  1.
         11   -1    0    0    0    0 -0.00000000000E+00 -0.00000000000E+00 -0.45593999997E+02  0.45594000000E+02  0.51100000000E-03 0. -1.
    9900012    2    1    2    0    0  0.45358882486E+01 -0.10218982553E+02 -0.15022586920E+02  0.72461548004E+02  0.69999970962E+02 0.  0.
        -12    1    1    2    0    0 -0.45358882486E+01  0.10218982553E+02  0.15022586920E+02  0.18726451996E+02  0.00000000000E+00 0.  1.
         11    1    3    3    0    0 -0.14768064495E+02 -0.11447842093E+02 -0.35544877669E+01  0.19020599388E+02  0.51100000000E-03 0. -1.
        -11    1    3    3    0    0  0.11436844858E+01  0.16031944710E+02  0.12168983363E+02  0.20159747562E+02  0.51100000000E-03 0.  1.
         12    1    3    3    0    0  0.18160268258E+02 -0.14803085170E+02 -0.23637082516E+02  0.33281201054E+02  0.00000000000E+00 0. -1.
</event>
<event>
 7    1  0.3509180E-013  0.7246161E+02  0.7816164E-02  0.1226708E+00
        -11   -1    0    0    0    0  0.00000000000E+00  0.00000000000E+00  0.45593999997E+02  0.45594000000E+02  0.51100000000E-03 0.  1.
         11   -1    0    0    0    0 -0.00000000000E+00 -0.00000000000E+00 -0.45593999997E+02  0.45594000000E+02  0.51100000000E-03 0. -1.
    9900012    2    1    2    0    0 -0.10224980537E+01 -0.11778406852E+02 -0.14522444891E+02  0.72461607506E+02  0.70000048475E+02 0.  0.
        -12    1    1    2    0    0  0.10224980537E+01  0.11778406852E+02  0.14522444891E+02  0.18726392494E+02  0.00000000000E+00 0.  1.
         11    1    3    3    0    0  0.98552672438E+01  0.29708075000E+01 -0.28904586926E+02  0.30682684616E+02  0.51100000000E-03 0. -1.
        -11    1    3    3    0    0 -0.64932361436E+01  0.10989008753E+02  0.73936095054E+01  0.14750792886E+02  0.51100000000E-03 0.  1.
        -12    1    3    3    0    0 -0.43845291539E+01 -0.25738223106E+02  0.69885325299E+01  0.27028130003E+02  0.00000000000E+00 0.  1.
</event>
<event>
 7    1  0.3509180E-013  0.7246155E+02  0.7816164E-02  0.1226708E+00
        -11   -1    0    0    0    0  0.00000000000E+00  0.00000000000E+00  0.45593999997E+02  0.45594000000E+02  0.51100000000E-03 0. -1.
         11   -1    0    0    0    0 -0.00000000000E+00 -0.00000000000E+00 -0.45593999997E+02  0.45594000000E+02  0.51100000000E-03 0.  1.
    9900012    2    1    2    0    0  0.18486017022E+02 -0.29910375984E+01  0.28091919431E-01  0.72461550246E+02  0.69999973883E+02 0.  0.
        -12    1    1    2    0    0 -0.18486017022E+02  0.29910375984E+01 -0.28091919431E-01  0.18726449754E+02  0.00000000000E+00 0.  1.
         11    1    3    3    0    0 -0.62192547930E+01  0.66014400418E+00 -0.15687704080E+02  0.16888427394E+02  0.51100000000E-03 0.  1.
        -11    1    3    3    0    0  0.25665794181E+02  0.11025262259E+02 -0.67345346687E+01  0.28734010445E+02  0.51100000000E-03 0. -1.
         12    1    3    3    0    0 -0.96052236580E+00 -0.14676443862E+02  0.22450330668E+02  0.26839112406E+02  0.00000000000E+00 0. -1.
</event>
<event>
 7    1  0.3509180E-013  0.7246154E+02  0.7816164E-02  0.1226708E+00
        -11   -1    0    0    0    0  0.00000000000E+00  0.00000000000E+00  0.45593999997E+02  0.45594000000E+02  0.51100000000E-03 0. -1.
         11   -1    0    0    0    0 -0.00000000000E+00 -0.00000000000E+00 -0.45593999997E+02  0.45594000000E+02  0.51100000000E-03 0.  1.
    9900012    2    1    2    0    0 -0.51898818597E+01 -0.30540626223E+01  0.17731843979E+02  0.72461535755E+02  0.69999955006E+02 0.  0.
        -12    1    1    2    0    0  0.51898818597E+01  0.30540626223E+01 -0.17731843979E+02  0.18726464245E+02  0.00000000000E+00 0.  1.
         11    1    3    3    0    0  0.20288070391E+02  0.28148340054E+01  0.22729468762E+02  0.30596696573E+02  0.51100000000E-03 0. -1.
        -11    1    3    3    0    0 -0.98400846581E+00  0.11336821290E+02 -0.34534867684E+01  0.11891945204E+02  0.51100000000E-03 0.  1.
         12    1    3    3    0    0 -0.24493943785E+02 -0.17205717917E+02 -0.15441380146E+01  0.29972893978E+02  0.00000000000E+00 0. -1.
</event>
<event>
 7    1  0.3509180E-013  0.7246156E+02  0.7816164E-02  0.1226708E+00
        -11   -1    0    0    0    0  0.00000000000E+00  0.00000000000E+00  0.45593999997E+02  0.45594000000E+02  0.51100000000E-03 0.  1.
         11   -1    0    0    0    0 -0.00000000000E+00 -0.00000000000E+00 -0.45593999997E+02  0.45594000000E+02  0.51100000000E-03 0. -1.
    9900012    2    1    2    0    0  0.16011921837E+02 -0.96900233698E+01  0.63345986239E+00  0.72461562399E+02  0.69999989715E+02 0.  0.
        -12    1    1    2    0    0 -0.16011921837E+02  0.96900233698E+01 -0.63345986239E+00  0.18726437601E+02  0.00000000000E+00 0.  1.
         11    1    3    3    0    0 -0.15365708354E+02 -0.50693904410E+01 -0.19736970407E+01  0.16300281989E+02  0.51100000000E-03 0. -1.
        -11    1    3    3    0    0  0.17197173097E+02 -0.23726497623E+02  0.10446580580E+02  0.31109813533E+02  0.51100000000E-03 0.  1.
        -12    1    3    3    0    0  0.14180457094E+02  0.19105864694E+02 -0.78394236766E+01  0.25051466877E+02  0.00000000000E+00 0.  1.
</event>
<event>
 7    1  0.3509180E-013  0.7246156E+02  0.7816164E-02  0.1226708E+00
        -11   -1    0    0    0    0  0.00000000000E+00  0.00000000000E+00  0.45593999997E+02  0.45594000000E+02  0.51100000000E-03 0.  1.
         11   -1    0    0    0    0 -0.00000000000E+00 -0.00000000000E+00 -0.45593999997E+02  0.45594000000E+02  0.51100000000E-03 0. -1.
    9900012    2    1    2    0    0 -0.14105206929E+02  0.10043225561E+02 -0.71313623716E+01  0.72461559563E+02  0.69999986020E+02 0.  0.
        -12    1    1    2    0    0  0.14105206929E+02 -0.10043225561E+02  0.71313623716E+01  0.18726440437E+02  0.00000000000E+00 0.  1.
         11    1    3    3    0    0 -0.22815335651E+01 -0.35698028602E+01 -0.18549580287E+02  0.19027238816E+02  0.51100000000E-03 0. -1.
        -11    1    3    3    0    0  0.15769247961E+02  0.24121562787E+01 -0.80369422334E+01  0.17862813885E+02  0.51100000000E-03 0.  1.
        -12    1    3    3    0    0 -0.27592921325E+02  0.11200872143E+02  0.19455160149E+02  0.35571506862E+02  0.00000000000E+00 0.  1.
</event>
<event>
 7    1  0.3509180E-013  0.7246161E+02  0.7816164E-02  0.1226708E+00
        -11   -1    0    0    0    0  0.00000000000E+00  0.00000000000E+00  0.45593999997E+02  0.45594000000E+02  0.51100000000E-03 0.  1.
         11   -1    0    0    0    0 -0.00000000000E+00 -0.00000000000E+00 -0.45593999997E+02  0.45594000000E+02  0.51100000000E-03 0. -1.
    9900012    2    1    2    0    0  0.10984142455E+02 -0.13402648243E+02 -0.70989770362E+01  0.72461605783E+02  0.70000046231E+02 0.  0.
        -12    1    1    2    0    0 -0.10984142455E+02  0.13402648243E+02  0.70989770362E+01  0.18726394217E+02  0.00000000000E+00 0.  1.
         11    1    3    3    0    0 -0.52116815673E+01 -0.75940905269E+01 -0.58309924282E+01  0.10901023284E+02  0.51100000000E-03 0. -1.
        -11    1    3    3    0    0 -0.78089447837E+01 -0.27738787486E+02  0.19785086894E+01  0.28884848047E+02  0.51100000000E-03 0.  1.
         12    1    3    3    0    0  0.24004768806E+02  0.21930229770E+02 -0.32464932974E+01  0.32675734452E+02  0.00000000000E+00 0. -1.
</event>
<event>
 7    1  0.3509180E-013  0.7246159E+02  0.7816164E-02  0.1226708E+00
        -11   -1    0    0    0    0  0.00000000000E+00  0.00000000000E+00  0.45593999997E+02  0.45594000000E+02  0.51100000000E-03 0.  1.
         11   -1    0    0    0    0 -0.00000000000E+00 -0.00000000000E+00 -0.45593999997E+02  0.45594000000E+02  0.51100000000E-03 0. -1.
    9900012    2    1    2    0    0 -0.19821381127E+01 -0.17872348996E+02 -0.52276992450E+01  0.72461586314E+02  0.70000020868E+02 0.  0.
        -12    1    1    2    0    0  0.19821381127E+01  0.17872348996E+02  0.52276992450E+01  0.18726413686E+02  0.00000000000E+00 0.  1.
         11    1    3    3    0    0  0.26942267853E+02 -0.37188435968E+01 -0.20528228888E+02  0.34075266343E+02  0.51100000000E-03 0. -1.
        -11    1    3    3    0    0 -0.22692333458E+01 -0.50950984084E+01  0.71689918889E+01  0.90831653477E+01  0.51100000000E-03 0.  1.
        -12    1    3    3    0    0 -0.26655172620E+02 -0.90584069913E+01  0.81315377544E+01  0.29303154623E+02  0.00000000000E+00 0.  1.
</event>
<event>
 7    1  0.3509180E-013  0.7246160E+02  0.7816164E-02  0.1226708E+00
        -11   -1    0    0    0    0  0.00000000000E+00  0.00000000000E+00  0.45593999997E+02  0.45594000000E+02  0.51100000000E-03 0. -1.
         11   -1    0    0    0    0 -0.00000000000E+00 -0.00000000000E+00 -0.45593999997E+02  0.45594000000E+02  0.51100000000E-03 0.  1.
    9900012    2    1    2    0    0  0.94019951193E+01  0.10866129035E+02  0.12008658398E+02  0.72461597544E+02  0.70000035498E+02 0.  0.
        -12    1    1    2    0    0 -0.94019951193E+01 -0.10866129035E+02 -0.12008658398E+02  0.18726402456E+02  0.00000000000E+00 0.  1.
         11    1    3    3    0    0  0.89545229660E+01 -0.10445874755E+02  0.48943950552E+01  0.14603249096E+02  0.51100000000E-03 0. -1.
        -11    1    3    3    0    0  0.18946531746E+02  0.93062892591E+01 -0.15563199588E+02  0.26225774853E+02  0.51100000000E-03 0.  1.
         12    1    3    3    0    0 -0.18499059593E+02  0.12005714531E+02  0.22677462931E+02  0.31632573594E+02  0.00000000000E+00 0. -1.
</event>
<event>
 7    1  0.3509180E-013  0.7246156E+02  0.7816164E-02  0.1226708E+00
        -11   -1    0    0    0    0  0.00000000000E+00  0.00000000000E+00  0.45593999997E+02  0.45594000000E+02  0.51100000000E-03 0.  1.
         11   -1    0    0    0    0 -0.00000000000E+00 -0.00000000000E+00 -0.45593999997E+02  0.45594000000E+02  0.51100000000E-03 0. -1.
    9900012    2    1    2    0    0 -0.13041182010E+02  0.10688291384E+02 -0.81466193847E+01  0.72461563919E+02  0.69999991694E+02 0.  0.
        -12    1    1    2    0    0  0.13041182010E+02 -0.10688291384E+02  0.81466193847E+01  0.18726436081E+02  0.00000000000E+00 0.  1.
         11    1    3    3    0    0  0.66016016623E+00  0.12534865935E+02 -0.11232468985E+02  0.16844198859E+02  0.51100000000E-03 0. -1.
        -11    1    3    3    0    0 -0.33600752353E+02  0.23392583919E+01  0.81652920399E+01  0.34657678556E+02  0.51100000000E-03 0.  1.
         12    1    3    3    0    0  0.19899410177E+02 -0.41858329430E+01 -0.50794424395E+01  0.20959686504E+02  0.00000000000E+00 0. -1.
</event>
<event>
 7    1  0.3509180E-013  0.7246216E+02  0.7816164E-02  0.1226706E+00
        -11   -1    0    0    0    0  0.00000000000E+00  0.00000000000E+00  0.45593999997E+02  0.45594000000E+02  0.51100000000E-03 0. -1.
         11   -1    0    0    0    0 -0.00000000000E+00 -0.00000000000E+00 -0.45593999997E+02  0.45594000000E+02  0.51100000000E-03 0.  1.
    9900012    2    1    2    0    0  0.10847223399E+02 -0.56179072963E+01  0.14192741668E+02  0.72462160796E+02  0.70000769234E+02 0.  0.
        -12    1    1    2    0    0 -0.10847223399E+02  0.56179072963E+01 -0.14192741668E+02  0.18725839204E+02  0.00000000000E+00 0.  1.
         11    1    3    3    0    0  0.25789718265E+02 -0.58171104327E+01  0.15275959088E+01  0.26481727502E+02  0.51100000000E-03 0. -1.
        -11    1    3    3    0    0  0.29950746635E+01 -0.10763648806E+02 -0.10051828839E+02  0.15028834656E+02  0.51100000000E-03 0.  1.
        -12    1    3    3    0    0 -0.17937569530E+02  0.10962851942E+02  0.22716974598E+02  0.30951598638E+02  0.00000000000E+00 0.  1.
</event>
<event>
 7    1  0.5606280E-013  0.7246157E+02  0.7816164E-02  0.1226708E+00
        -11   -1    0    0    0    0  0.00000000000E+00  0.00000000000E+00  0.45593999997E+02  0.45594000000E+02  0.51100000000E-03 0. -1.
         11   -1    0    0    0    0 -0.00000000000E+00 -0.00000000000E+00 -0.45593999997E+02  0.45594000000E+02  0.51100000000E-03 0.  1.
    9900012    2    1    2    0    0  0.58981613085E+01 -0.13242568019E+02  0.11854340121E+02  0.72461566964E+02  0.69999995661E+02 0.  0.
        -12    1    1    2    0    0 -0.58981613085E+01  0.13242568019E+02 -0.11854340121E+02  0.18726433036E+02  0.00000000000E+00 0.  1.
         11    1    3    3    0    0 -0.11306316729E+02 -0.49057070195E+01  0.10947217569E+02  0.16484548283E+02  0.51100000000E-03 0. -1.
        -11    1    3    3    0    0 -0.38000674669E+01 -0.20445490560E+02 -0.16152507041E+02  0.26331769423E+02  0.51100000000E-03 0.  1.
         12    1    3    3    0    0  0.21004545504E+02  0.12108629561E+02  0.17059629593E+02  0.29645249257E+02  0.00000000000E+00 0. -1.
</event>
<event>
 7    1  0.3509180E-013  0.7246157E+02  0.7816164E-02  0.1226708E+00
        -11   -1    0    0    0    0  0.00000000000E+00  0.00000000000E+00  0.45593999997E+02  0.45594000000E+02  0.51100000000E-03 0.  1.
         11   -1    0    0    0    0 -0.00000000000E+00 -0.00000000000E+00 -0.45593999997E+02  0.45594000000E+02  0.51100000000E-03 0. -1.
    9900012    2    1    2    0    0 -0.12796090052E+02 -0.23904190594E+01 -0.13461984672E+02  0.72461573347E+02  0.70000003976E+02 0.  0.
        -12    1    1    2    0    0  0.12796090052E+02  0.23904190594E+01  0.13461984672E+02  0.18726426653E+02  0.00000000000E+00 0.  1.
         11    1    3    3    0    0  0.11013214208E+02 -0.26466204299E+01 -0.31305309454E+01  0.11751413155E+02  0.51100000000E-03 0. -1.
        -11    1    3    3    0    0  0.41632807705E+01 -0.22685195163E+02  0.82212234200E-01  0.23064209188E+02  0.51100000000E-03 0.  1.
         12    1    3    3    0    0 -0.27972585030E+02  0.22941396534E+02 -0.10413665961E+02  0.37645951003E+02  0.00000000000E+00 0. -1.
</event>
<event>
 7    1  0.3509180E-013  0.7246158E+02  0.7816164E-02  0.1226708E+00
        -11   -1    0    0    0    0  0.00000000000E+00  0.00000000000E+00  0.45593999997E+02  0.45594000000E+02  0.51100000000E-03 0. -1.
         11   -1    0    0    0    0 -0.00000000000E+00 -0.00000000000E+00 -0.45593999997E+02  0.45594000000E+02  0.51100000000E-03 0.  1.
    9900012    2    1    2    0    0  0.10199872676E+02 -0.13806323011E+02  0.74850981995E+01  0.72461584092E+02  0.70000017974E+02 0.  0.
        -12    1    1    2    0    0 -0.10199872676E+02  0.13806323011E+02 -0.74850981995E+01  0.18726415908E+02  0.00000000000E+00 0.  1.
         11    1    3    3    0    0  0.61575962230E+01  0.91342936032E+01  0.26383491655E+02  0.28590906649E+02  0.51100000000E-03 0. -1.
        -11    1    3    3    0    0  0.31539971841E+01 -0.59322050159E+01  0.89717142861E+01  0.11208497316E+02  0.51100000000E-03 0.  1.
        -12    1    3    3    0    0  0.88827926885E+00 -0.17008411598E+02 -0.27870107741E+02  0.32662180127E+02  0.00000000000E+00 0.  1.
</event>
<event>
 7    1  0.3509180E-013  0.7246155E+02  0.7816164E-02  0.1226708E+00
        -11   -1    0    0    0    0  0.00000000000E+00  0.00000000000E+00  0.45593999997E+02  0.45594000000E+02  0.51100000000E-03 0.  1.
         11   -1    0    0    0    0 -0.00000000000E+00 -0.00000000000E+00 -0.45593999997E+02  0.45594000000E+02  0.51100000000E-03 0. -1.
    9900012    2    1    2    0    0  0.77808768398E+01 -0.89965339018E+01 -0.14463753955E+02  0.72461552256E+02  0.69999976501E+02 0.  0.
        -12    1    1    2    0    0 -0.77808768398E+01  0.89965339018E+01  0.14463753955E+02  0.18726447744E+02  0.00000000000E+00 0.  1.
         11    1    3    3    0    0  0.18436143975E+02 -0.88424823520E+01 -0.24820418864E+02  0.32157955340E+02  0.51100000000E-03 0. -1.
        -11    1    3    3    0    0  0.32162881324E+01 -0.90970187917E+01 -0.10133929447E+02  0.13992740494E+02  0.51100000000E-03 0.  1.
        -12    1    3    3    0    0 -0.13871555268E+02  0.89429672419E+01  0.20490594355E+02  0.26310856422E+02  0.00000000000E+00 0.  1.
</event>
<event>
 7    1  0.3509180E-013  0.7246155E+02  0.7816164E-02  0.1226708E+00
        -11   -1    0    0    0    0  0.00000000000E+00  0.00000000000E+00  0.45593999997E+02  0.45594000000E+02  0.51100000000E-03 0.  1.
         11   -1    0    0    0    0 -0.00000000000E+00 -0.00000000000E+00 -0.45593999997E+02  0.45594000000E+02  0.51100000000E-03 0. -1.
    9900012    2    1    2    0    0  0.17151257101E+02  0.49147708167E+01  0.56885154836E+01  0.72461553441E+02  0.69999978045E+02 0.  0.
        -12    1    1    2    0    0 -0.17151257101E+02 -0.49147708167E+01 -0.56885154836E+01  0.18726446559E+02  0.00000000000E+00 0.  1.
         11    1    3    3    0    0  0.76404849867E+01  0.25184633043E+02 -0.25142145592E+01  0.26437927821E+02  0.51100000000E-03 0. -1.
        -11    1    3    3    0    0 -0.15233894592E+02 -0.46462213980E+01  0.14662348536E+01  0.15994022716E+02  0.51100000000E-03 0.  1.
        -12    1    3    3    0    0  0.24744666706E+02 -0.15623640829E+02  0.67364951891E+01  0.30029602904E+02  0.00000000000E+00 0.  1.
</event>
<event>
 7    1  0.3509180E-013  0.7246152E+02  0.7816164E-02  0.1226708E+00
        -11   -1    0    0    0    0  0.00000000000E+00  0.00000000000E+00  0.45593999997E+02  0.45594000000E+02  0.51100000000E-03 0. -1.
         11   -1    0    0    0    0 -0.00000000000E+00 -0.00000000000E+00 -0.45593999997E+02  0.45594000000E+02  0.51100000000E-03 0.  1.
    9900012    2    1    2    0    0  0.15255190493E+02 -0.98241166662E+01  0.46310717215E+01  0.72461523275E+02  0.69999938748E+02 0.  0.
        -12    1    1    2    0    0 -0.15255190493E+02  0.98241166662E+01 -0.46310717215E+01  0.18726476725E+02  0.00000000000E+00 0.  1.
         11    1    3    3    0    0 -0.45774894748E+00 -0.61365240830E+01  0.15930325125E+02  0.17077520920E+02  0.51100000000E-03 0. -1.
        -11    1    3    3    0    0  0.81732341999E+01  0.23630725826E+02 -0.10253773245E+02  0.27025040728E+02  0.51100000000E-03 0.  1.
         12    1    3    3    0    0  0.75397052405E+01 -0.27318318409E+02 -0.10454801582E+01  0.28358961627E+02  0.00000000000E+00 0. -1.
</event>
<event>
 7    1  0.3509180E-013  0.7246158E+02  0.7816164E-02  0.1226708E+00
        -11   -1    0    0    0    0  0.00000000000E+00  0.00000000000E+00  0.45593999997E+02  0.45594000000E+02  0.51100000000E-03 0. -1.
         11   -1    0    0    0    0 -0.00000000000E+00 -0.00000000000E+00 -0.45593999997E+02  0.45594000000E+02  0.51100000000E-03 0.  1.
    9900012    2    1    2    0    0  0.61049287651E+01 -0.17123775176E+02 -0.44927517927E+01  0.72461584161E+02  0.70000018064E+02 0.  0.
        -12    1    1    2    0    0 -0.61049287651E+01  0.17123775176E+02  0.44927517927E+01  0.18726415839E+02  0.00000000000E+00 0.  1.
         11    1    3    3    0    0 -0.39851736257E+01 -0.37376305998E+01 -0.31803512482E+01  0.63218767507E+01  0.51100000000E-03 0. -1.
        -11    1    3    3    0    0  0.99647400837E+01  0.72773509191E+01 -0.29043697917E+02  0.31556176420E+02  0.51100000000E-03 0.  1.
         12    1    3    3    0    0  0.12536230709E+00 -0.20663495495E+02  0.27731297372E+02  0.34583530990E+02  0.00000000000E+00 0. -1.
</event>
<event>
 7    1  0.3509180E-013  0.7246155E+02  0.7816164E-02  0.1226708E+00
        -11   -1    0    0    0    0  0.00000000000E+00  0.00000000000E+00  0.45593999997E+02  0.45594000000E+02  0.51100000000E-03 0. -1.
         11   -1    0    0    0    0 -0.00000000000E+00 -0.00000000000E+00 -0.45593999997E+02  0.45594000000E+02  0.51100000000E-03 0.  1.
    9900012    2    1    2    0    0  0.38598644190E+01 -0.70086378805E+00  0.18310930714E+02  0.72461549535E+02  0.69999972958E+02 0.  0.
        -12    1    1    2    0    0 -0.38598644190E+01  0.70086378805E+00 -0.18310930714E+02  0.18726450465E+02  0.00000000000E+00 0.  1.
         11    1    3    3    0    0  0.89662466231E+01 -0.18344142886E+02  0.90488160073E+01  0.22333432967E+02  0.51100000000E-03 0. -1.
        -11    1    3    3    0    0 -0.19677060849E+02 -0.64354146022E+01  0.71591910340E+01  0.21905599770E+02  0.51100000000E-03 0.  1.
         12    1    3    3    0    0  0.14570678645E+02  0.24078693700E+02  0.21029236728E+01  0.28222516798E+02  0.00000000000E+00 0. -1.
</event>
<event>
 7    1  0.3509180E-013  0.7246157E+02  0.7816164E-02  0.1226708E+00
        -11   -1    0    0    0    0  0.00000000000E+00  0.00000000000E+00  0.45593999997E+02  0.45594000000E+02  0.51100000000E-03 0. -1.
         11   -1    0    0    0    0 -0.00000000000E+00 -0.00000000000E+00 -0.45593999997E+02  0.45594000000E+02  0.51100000000E-03 0.  1.
    9900012    2    1    2    0    0  0.67008899146E+01 -0.16435510515E+02 -0.59708718676E+01  0.72461568349E+02  0.69999997466E+02 0.  0.
        -12    1    1    2    0    0 -0.67008899146E+01  0.16435510515E+02  0.59708718676E+01  0.18726431651E+02  0.00000000000E+00 0.  1.
         11    1    3    3    0    0 -0.43831146647E+01 -0.11384825980E+02  0.64420061900E+01  0.13795847229E+02  0.51100000000E-03 0. -1.
        -11    1    3    3    0    0 -0.11872831001E+02 -0.24172437468E+02 -0.19194049473E+01  0.26999166001E+02  0.51100000000E-03 0.  1.
         12    1    3    3    0    0  0.22956835581E+02  0.19121752934E+02 -0.10493473110E+02  0.31666555118E+02  0.00000000000E+00 0. -1.
</event>
<event>
 7    1  0.4211416E-013  0.7246155E+02  0.7816164E-02  0.1226708E+00
        -11   -1    0    0    0    0  0.00000000000E+00  0.00000000000E+00  0.45593999997E+02  0.45594000000E+02  0.51100000000E-03 0. -1.
         11   -1    0    0    0    0 -0.00000000000E+00 -0.00000000000E+00 -0.45593999997E+02  0.45594000000E+02  0.51100000000E-03 0.  1.
    9900012    2    1    2    0    0 -0.90948161512E+01  0.10474871839E+02  0.12579395183E+02  0.72461553352E+02  0.69999977930E+02 0.  0.
        -12    1    1    2    0    0  0.90948161512E+01 -0.10474871839E+02 -0.12579395183E+02  0.18726446648E+02  0.00000000000E+00 0.  1.
         11    1    3    3    0    0  0.18084663007E+01 -0.12263084142E+00  0.25634968787E+02  0.25698973007E+02  0.51100000000E-03 0. -1.
        -11    1    3    3    0    0 -0.13208277821E+02 -0.87297428840E+01  0.82929440604E+01  0.17872882679E+02  0.51100000000E-03 0.  1.
        -12    1    3    3    0    0  0.23049953692E+01  0.19327245565E+02 -0.21348517664E+02  0.28889697666E+02  0.00000000000E+00 0.  1.
</event>
<event>
 7    1  0.3509180E-013  0.7246160E+02  0.7816164E-02  0.1226708E+00
        -11   -1    0    0    0    0  0.00000000000E+00  0.00000000000E+00  0.45593999997E+02  0.45594000000E+02  0.51100000000E-03 0.  1.
         11   -1    0    0    0    0 -0.00000000000E+00 -0.00000000000E+00 -0.45593999997E+02  0.45594000000E+02  0.51100000000E-03 0. -1.
    9900012    2    1    2    0    0 -0.18618290679E+02 -0.14380194492E+01  0.14034069498E+01  0.72461596213E+02  0.70000033763E+02 0.  0.
        -12    1    1    2    0    0  0.18618290679E+02  0.14380194492E+01 -0.14034069498E+01  0.18726403787E+02  0.00000000000E+00 0.  1.
         11    1    3    3    0    0 -0.32433026800E+02 -0.83139812551E+00 -0.92640001988E+01  0.33740393450E+02  0.51100000000E-03 0. -1.
        -11    1    3    3    0    0 -0.48064998052E+01 -0.95843583462E+01  0.14154163092E+02  0.17756764862E+02  0.51100000000E-03 0.  1.
         12    1    3    3    0    0  0.18621235926E+02  0.89777370225E+01 -0.34867559431E+01  0.20964437900E+02  0.00000000000E+00 0. -1.
</event>
<event>
 7    1  0.3509180E-013  0.7246158E+02  0.7816164E-02  0.1226708E+00
        -11   -1    0    0    0    0  0.00000000000E+00  0.00000000000E+00  0.45593999997E+02  0.45594000000E+02  0.51100000000E-03 0.  1.
         11   -1    0    0    0    0 -0.00000000000E+00 -0.00000000000E+00 -0.45593999997E+02  0.45594000000E+02  0.51100000000E-03 0. -1.
    9900012    2    1    2    0    0 -0.37750203214E+01 -0.42962380000E+01 -0.17831722816E+02  0.72461580749E+02  0.70000013619E+02 0.  0.
        -12    1    1    2    0    0  0.37750203214E+01  0.42962380000E+01  0.17831722816E+02  0.18726419251E+02  0.00000000000E+00 0.  1.
         11    1    3    3    0    0  0.13580470286E+02 -0.19834943409E+02 -0.33661124680E+02  0.41363334829E+02  0.51100000000E-03 0. -1.
        -11    1    3    3    0    0 -0.12162578504E+01  0.43978392565E+01 -0.16260314546E+01  0.48439913127E+01  0.51100000000E-03 0.  1.
        -12    1    3    3    0    0 -0.16139232757E+02  0.11140866153E+02  0.17455433319E+02  0.26254254607E+02  0.00000000000E+00 0.  1.
</event>
<event>
 7    1  0.3509180E-013  0.7246153E+02  0.7816164E-02  0.1226708E+00
        -11   -1    0    0    0    0  0.00000000000E+00  0.00000000000E+00  0.45593999997E+02  0.45594000000E+02  0.51100000000E-03 0.  1.
         11   -1    0    0    0    0 -0.00000000000E+00 -0.00000000000E+00 -0.45593999997E+02  0.45594000000E+02  0.51100000000E-03 0. -1.
    9900012    2    1    2    0    0  0.16768885763E+02  0.26086456344E+01  0.79170742958E+01  0.72461531374E+02  0.69999949299E+02 0.  0.
        -12    1    1    2    0    0 -0.16768885763E+02 -0.26086456344E+01 -0.79170742958E+01  0.18726468626E+02  0.00000000000E+00 0.  1.
         11    1    3    3    0    0  0.21337721404E+02  0.15326177733E+01 -0.13316239870E+02  0.25198601479E+02  0.51100000000E-03 0. -1.
        -11    1    3    3    0    0 -0.10573897823E+02  0.18316331719E+02  0.28253745978E+01  0.21337245950E+02  0.51100000000E-03 0.  1.
         12    1    3    3    0    0  0.60050621827E+01 -0.17240303858E+02  0.18407939568E+02  0.25925683946E+02  0.00000000000E+00 0. -1.
</event>
<event>
 7    1  0.3509180E-013  0.7246158E+02  0.7816164E-02  0.1226708E+00
        -11   -1    0    0    0    0  0.00000000000E+00  0.00000000000E+00  0.45593999997E+02  0.45594000000E+02  0.51100000000E-03 0. -1.
         11   -1    0    0    0    0 -0.00000000000E+00 -0.00000000000E+00 -0.45593999997E+02  0.45594000000E+02  0.51100000000E-03 0.  1.
    9900012    2    1    2    0    0  0.27685951842E+01 -0.63381599075E+01  0.17402343916E+02  0.72461575780E+02  0.70000007146E+02 0.  0.
        -12    1    1    2    0    0 -0.27685951842E+01  0.63381599075E+01 -0.17402343916E+02  0.18726424220E+02  0.00000000000E+00 0.  1.
         11    1    3    3    0    0  0.36769088322E+01 -0.54604370490E+01 -0.24209382874E+01  0.70140554445E+01  0.51100000000E-03 0. -1.
        -11    1    3    3    0    0 -0.21839095535E+02 -0.76334780031E+01 -0.12542464256E+02  0.26315955048E+02  0.51100000000E-03 0.  1.
         12    1    3    3    0    0  0.20930781887E+02  0.67557551446E+01  0.32365746459E+02  0.39131565287E+02  0.00000000000E+00 0. -1.
</event>
<event>
 7    1  0.3509180E-013  0.7246156E+02  0.7816164E-02  0.1226708E+00
        -11   -1    0    0    0    0  0.00000000000E+00  0.00000000000E+00  0.45593999997E+02  0.45594000000E+02  0.51100000000E-03 0.  1.
         11   -1    0    0    0    0 -0.00000000000E+00 -0.00000000000E+00 -0.45593999997E+02  0.45594000000E+02  0.51100000000E-03 0. -1.
    9900012    2    1    2    0    0  0.17666751422E+01 -0.93232830239E+01 -0.16144191533E+02  0.72461556994E+02  0.69999982674E+02 0.  0.
        -12    1    1    2    0    0 -0.17666751422E+01  0.93232830239E+01  0.16144191533E+02  0.18726443006E+02  0.00000000000E+00 0.  1.
         11    1    3    3    0    0 -0.98191632192E+01  0.18624039117E+02 -0.22040255190E+02  0.30480217330E+02  0.51100000000E-03 0. -1.
        -11    1    3    3    0    0  0.13226871318E+02 -0.72673656472E+01 -0.79326623984E+01  0.17049688012E+02  0.51100000000E-03 0.  1.
        -12    1    3    3    0    0 -0.16410329571E+01 -0.20679956494E+02  0.13828726056E+02  0.24931651652E+02  0.00000000000E+00 0.  1.
</event>
<event>
 7    1  0.3509180E-013  0.7246157E+02  0.7816164E-02  0.1226708E+00
        -11   -1    0    0    0    0  0.00000000000E+00  0.00000000000E+00  0.45593999997E+02  0.45594000000E+02  0.51100000000E-03 0. -1.
         11   -1    0    0    0    0 -0.00000000000E+00 -0.00000000000E+00 -0.45593999997E+02  0.45594000000E+02  0.51100000000E-03 0.  1.
    9900012    2    1    2    0    0  0.53752165816E+01 -0.38395059370E+01  0.17522683174E+02  0.72461569888E+02  0.69999999471E+02 0.  0.
        -12    1    1    2    0    0 -0.53752165816E+01  0.38395059370E+01 -0.17522683174E+02  0.18726430112E+02  0.00000000000E+00 0.  1.
         11    1    3    3    0    0  0.10752022892E+02  0.18673328578E+02  0.45757003387E+01  0.22028078225E+02  0.51100000000E-03 0. -1.
        -11    1    3    3    0    0  0.73750936900E+00  0.52183050895E+01  0.20403908922E+02  0.21073540937E+02  0.51100000000E-03 0.  1.
        -12    1    3    3    0    0 -0.61143156790E+01 -0.27731139604E+02 -0.74569260870E+01  0.29359950726E+02  0.00000000000E+00 0.  1.
</event>
<event>
 7    1  0.3509180E-013  0.7246155E+02  0.7816164E-02  0.1226708E+00
        -11   -1    0    0    0    0  0.00000000000E+00  0.00000000000E+00  0.45593999997E+02  0.45594000000E+02  0.51100000000E-03 0. -1.
         11   -1    0    0    0    0 -0.00000000000E+00 -0.00000000000E+00 -0.45593999997E+02  0.45594000000E+02  0.51100000000E-03 0.  1.
    9900012    2    1    2    0    0 -0.18552984136E+02 -0.25037335291E+01 -0.44488781191E+00  0.72461552737E+02  0.69999977128E+02 0.  0.
        -12    1    1    2    0    0  0.18552984136E+02  0.25037335291E+01  0.44488781191E+00  0.18726447263E+02  0.00000000000E+00 0.  1.
         11    1    3    3    0    0 -0.33397149943E+02  0.99925693516E+01 -0.16242995084E+02  0.38458496540E+02  0.51100000000E-03 0. -1.
        -11    1    3    3    0    0  0.40169998520E+01  0.61256554984E+01  0.60097694739E-01  0.73255412831E+01  0.51100000000E-03 0.  1.
        -12    1    3    3    0    0  0.10827165955E+02 -0.18621958379E+02  0.15738009577E+02  0.26677514913E+02  0.00000000000E+00 0.  1.
</event>
<event>
 7    1  0.3509180E-013  0.7246158E+02  0.7816164E-02  0.1226708E+00
        -11   -1    0    0    0    0  0.00000000000E+00  0.00000000000E+00  0.45593999997E+02  0.45594000000E+02  0.51100000000E-03 0.  1.
         11   -1    0    0    0    0 -0.00000000000E+00 -0.00000000000E+00 -0.45593999997E+02  0.45594000000E+02  0.51100000000E-03 0. -1.
    9900012    2    1    2    0    0 -0.66811506675E+00  0.10923487287E+02 -0.15195712699E+02  0.72461584521E+02  0.70000018533E+02 0.  0.
        -12    1    1    2    0    0  0.66811506675E+00 -0.10923487287E+02  0.15195712699E+02  0.18726415479E+02  0.00000000000E+00 0.  1.
         11    1    3    3    0    0  0.19767615434E+02 -0.18350931967E+02 -0.89170690214E+01  0.28408263660E+02  0.51100000000E-03 0. -1.
        -11    1    3    3    0    0 -0.66040160272E+01 -0.29776185672E+01 -0.52477802742E+01  0.89453025710E+01  0.51100000000E-03 0.  1.
        -12    1    3    3    0    0 -0.13831714474E+02  0.32252037821E+02 -0.10308634037E+01  0.35108018290E+02  0.00000000000E+00 0.  1.
</event>
<event>
 7    1  0.3509180E-013  0.7246153E+02  0.7816164E-02  0.1226708E+00
        -11   -1    0    0    0    0  0.00000000000E+00  0.00000000000E+00  0.45593999997E+02  0.45594000000E+02  0.51100000000E-03 0.  1.
         11   -1    0    0    0    0 -0.00000000000E+00 -0.00000000000E+00 -0.45593999997E+02  0.45594000000E+02  0.51100000000E-03 0. -1.
    9900012    2    1    2    0    0 -0.18675329641E+01  0.13439772594E+02 -0.12906023444E+02  0.72461531890E+02  0.69999949971E+02 0.  0.
        -12    1    1    2    0    0  0.18675329641E+01 -0.13439772594E+02  0.12906023444E+02  0.18726468110E+02  0.00000000000E+00 0.  1.
         11    1    3    3    0    0  0.82300854563E+01 -0.13327019963E+01 -0.17080196301E+02  0.19006407003E+02  0.51100000000E-03 0. -1.
        -11    1    3    3    0    0 -0.12841737211E+02  0.20923287945E+02 -0.17895909573E+02  0.30380220091E+02  0.51100000000E-03 0.  1.
        -12    1    3    3    0    0  0.27441187910E+01 -0.61508133546E+01  0.22070082430E+02  0.23074904796E+02  0.00000000000E+00 0.  1.
</event>
<event>
 7    1  0.3509180E-013  0.7246164E+02  0.7816164E-02  0.1226708E+00
        -11   -1    0    0    0    0  0.00000000000E+00  0.00000000000E+00  0.45593999997E+02  0.45594000000E+02  0.51100000000E-03 0.  1.
         11   -1    0    0    0    0 -0.00000000000E+00 -0.00000000000E+00 -0.45593999997E+02  0.45594000000E+02  0.51100000000E-03 0. -1.
    9900012    2    1    2    0    0 -0.18622426145E+02  0.67057400014E+00  0.18525984422E+01  0.72461640343E+02  0.70000091251E+02 0.  0.
        -12    1    1    2    0    0  0.18622426145E+02 -0.67057400014E+00 -0.18525984422E+01  0.18726359657E+02  0.00000000000E+00 0.  1.
         11    1    3    3    0    0  0.21272758169E+01  0.60098795244E+01  0.13712652626E+02  0.15122195495E+02  0.51100000000E-03 0.  1.
        -11    1    3    3    0    0 -0.18280597120E+02  0.17093065354E+02  0.90112389869E+01  0.26599916214E+02  0.51100000000E-03 0. -1.
         12    1    3    3    0    0 -0.24691048424E+01 -0.22432370879E+02 -0.20871293171E+02  0.30739528633E+02  0.00000000000E+00 0. -1.
</event>
<event>
 7    1  0.3509180E-013  0.7246154E+02  0.7816164E-02  0.1226708E+00
        -11   -1    0    0    0    0  0.00000000000E+00  0.00000000000E+00  0.45593999997E+02  0.45594000000E+02  0.51100000000E-03 0. -1.
         11   -1    0    0    0    0 -0.00000000000E+00 -0.00000000000E+00 -0.45593999997E+02  0.45594000000E+02  0.51100000000E-03 0.  1.
    9900012    2    1    2    0    0  0.16852687946E+02 -0.30629213075E+01 -0.75687378323E+01  0.72461538233E+02  0.69999958234E+02 0.  0.
        -12    1    1    2    0    0 -0.16852687946E+02  0.30629213075E+01  0.75687378323E+01  0.18726461767E+02  0.00000000000E+00 0.  1.
         11    1    3    3    0    0  0.67747695463E+01  0.33134100709E+01  0.21170205968E+01  0.78331325261E+01  0.51100000000E-03 0. -1.
        -11    1    3    3    0    0  0.25412103226E+02  0.20295074658E+01  0.18472394417E+02  0.31482109946E+02  0.51100000000E-03 0.  1.
        -12    1    3    3    0    0 -0.15334184826E+02 -0.84058388442E+01 -0.28158152846E+02  0.33146295760E+02  0.00000000000E+00 0.  1.
</event>
<event>
 7    1  0.3509180E-013  0.7246151E+02  0.7816164E-02  0.1226708E+00
        -11   -1    0    0    0    0  0.00000000000E+00  0.00000000000E+00  0.45593999997E+02  0.45594000000E+02  0.51100000000E-03 0.  1.
         11   -1    0    0    0    0 -0.00000000000E+00 -0.00000000000E+00 -0.45593999997E+02  0.45594000000E+02  0.51100000000E-03 0. -1.
    9900012    2    1    2    0    0  0.15067892647E+02 -0.64993834875E+01  0.90220822124E+01  0.72461512289E+02  0.69999924437E+02 0.  0.
        -12    1    1    2    0    0 -0.15067892647E+02  0.64993834875E+01 -0.90220822124E+01  0.18726487711E+02  0.00000000000E+00 0.  1.
         11    1    3    3    0    0  0.13401873623E+02 -0.23479419528E+02  0.23930804554E+02  0.36105079488E+02  0.51100000000E-03 0. -1.
        -11    1    3    3    0    0  0.37037200706E+01 -0.72291842358E+01 -0.56284132149E+00  0.81422010347E+01  0.51100000000E-03 0.  1.
        -12    1    3    3    0    0 -0.20377010460E+01  0.24209220276E+02 -0.14345881020E+02  0.28214231766E+02  0.00000000000E+00 0.  1.
</event>
<event>
 7    1  0.3509180E-013  0.7246157E+02  0.7816164E-02  0.1226708E+00
        -11   -1    0    0    0    0  0.00000000000E+00  0.00000000000E+00  0.45593999997E+02  0.45594000000E+02  0.51100000000E-03 0. -1.
         11   -1    0    0    0    0 -0.00000000000E+00 -0.00000000000E+00 -0.45593999997E+02  0.45594000000E+02  0.51100000000E-03 0.  1.
    9900012    2    1    2    0    0 -0.77543740338E+01  0.12293788733E+02  0.11807274013E+02  0.72461567406E+02  0.69999996238E+02 0.  0.
        -12    1    1    2    0    0  0.77543740338E+01 -0.12293788733E+02 -0.11807274013E+02  0.18726432594E+02  0.00000000000E+00 0.  1.
         11    1    3    3    0    0  0.52929637841E+01 -0.77211807042E+01  0.26187656375E+02  0.27810527571E+02  0.51100000000E-03 0. -1.
        -11    1    3    3    0    0 -0.18962729763E+01 -0.90155251610E+01  0.21094039128E+01  0.94511972923E+01  0.51100000000E-03 0.  1.
        -12    1    3    3    0    0 -0.11151064842E+02  0.29030494598E+02 -0.16489786275E+02  0.35199842543E+02  0.00000000000E+00 0.  1.
</event>
<event>
 7    1  0.3509180E-013  0.7246162E+02  0.7816164E-02  0.1226708E+00
        -11   -1    0    0    0    0  0.00000000000E+00  0.00000000000E+00  0.45593999997E+02  0.45594000000E+02  0.51100000000E-03 0. -1.
         11   -1    0    0    0    0 -0.00000000000E+00 -0.00000000000E+00 -0.45593999997E+02  0.45594000000E+02  0.51100000000E-03 0.  1.
    9900012    2    1    2    0    0  0.14794176119E+02 -0.11480083794E+02 -0.13226595715E+00  0.72461615799E+02  0.70000059278E+02 0.  0.
        -12    1    1    2    0    0 -0.14794176119E+02  0.11480083794E+02  0.13226595715E+00  0.18726384201E+02  0.00000000000E+00 0.  1.
         11    1    3    3    0    0  0.39183930861E+01 -0.34915288301E+01  0.19807549587E+02  0.20491061438E+02  0.51100000000E-03 0. -1.
        -11    1    3    3    0    0  0.16844679464E+02  0.98387750743E+01  0.55647983495E+01  0.20285751210E+02  0.51100000000E-03 0.  1.
        -12    1    3    3    0    0 -0.59688964311E+01 -0.17827330038E+02 -0.25504613894E+02  0.31684803152E+02  0.00000000000E+00 0.  1.
</event>
<event>
 7    1  0.3509180E-013  0.7246164E+02  0.7816164E-02  0.1226708E+00
        -11   -1    0    0    0    0  0.00000000000E+00  0.00000000000E+00  0.45593999997E+02  0.45594000000E+02  0.51100000000E-03 0.  1.
         11   -1    0    0    0    0 -0.00000000000E+00 -0.00000000000E+00 -0.45593999997E+02  0.45594000000E+02  0.51100000000E-03 0. -1.
    9900012    2    1    2    0    0  0.72980989523E+01  0.51798703547E+01 -0.16449409354E+02  0.72461644954E+02  0.70000097259E+02 0.  0.
        -12    1    1    2    0    0 -0.72980989523E+01 -0.51798703547E+01  0.16449409354E+02  0.18726355046E+02  0.00000000000E+00 0.  1.
         11    1    3    3    0    0  0.18537308511E+02 -0.72888488934E+01 -0.27270892259E+02  0.33770707572E+02  0.51100000000E-03 0. -1.
        -11    1    3    3    0    0  0.11780921263E+02  0.58572164863E+01  0.29877582878E+01  0.13491619273E+02  0.51100000000E-03 0.  1.
        -12    1    3    3    0    0 -0.23020130821E+02  0.66115027619E+01  0.78337246177E+01  0.25199318109E+02  0.00000000000E+00 0.  1.
</event>
<event>
 7    1  0.3509180E-013  0.7246155E+02  0.7816164E-02  0.1226708E+00
        -11   -1    0    0    0    0  0.00000000000E+00  0.00000000000E+00  0.45593999997E+02  0.45594000000E+02  0.51100000000E-03 0.  1.
         11   -1    0    0    0    0 -0.00000000000E+00 -0.00000000000E+00 -0.45593999997E+02  0.45594000000E+02  0.51100000000E-03 0. -1.
    9900012    2    1    2    0    0 -0.71650199263E+01  0.36720755728E+01 -0.16907342786E+02  0.72461551067E+02  0.69999974953E+02 0.  0.
        -12    1    1    2    0    0  0.71650199263E+01 -0.36720755728E+01  0.16907342786E+02  0.18726448933E+02  0.00000000000E+00 0.  1.
         11    1    3    3    0    0  0.12007852292E+01  0.12602940254E+02  0.17384559607E+02  0.21505787621E+02  0.51100000000E-03 0.  1.
        -11    1    3    3    0    0  0.96320736313E+01 -0.71551697124E+00  0.17736729479E+01  0.98201182763E+01  0.51100000000E-03 0. -1.
         12    1    3    3    0    0 -0.17997878787E+02 -0.82153477099E+01 -0.36065575341E+02  0.41135645169E+02  0.00000000000E+00 0. -1.
</event>
<event>
 7    1  0.3509180E-013  0.7246156E+02  0.7816164E-02  0.1226708E+00
        -11   -1    0    0    0    0  0.00000000000E+00  0.00000000000E+00  0.45593999997E+02  0.45594000000E+02  0.51100000000E-03 0.  1.
         11   -1    0    0    0    0 -0.00000000000E+00 -0.00000000000E+00 -0.45593999997E+02  0.45594000000E+02  0.51100000000E-03 0. -1.
    9900012    2    1    2    0    0  0.11295482260E+02 -0.14920932832E+02  0.67621412316E+00  0.72461563564E+02  0.69999991232E+02 0.  0.
        -12    1    1    2    0    0 -0.11295482260E+02  0.14920932832E+02 -0.67621412316E+00  0.18726436436E+02  0.00000000000E+00 0.  1.
         11    1    3    3    0    0 -0.85879851215E+01  0.50624113155E+01 -0.37281439391E+01  0.10643333795E+02  0.51100000000E-03 0. -1.
        -11    1    3    3    0    0 -0.17755351949E+00 -0.34180176976E+02  0.11788807642E+02  0.36156493321E+02  0.51100000000E-03 0.  1.
         12    1    3    3    0    0  0.20061020901E+02  0.14196832829E+02 -0.73844495798E+01  0.25661736448E+02  0.00000000000E+00 0. -1.
</event>
<event>
 7    1  0.3509180E-013  0.7246148E+02  0.7816164E-02  0.1226708E+00
        -11   -1    0    0    0    0  0.00000000000E+00  0.00000000000E+00  0.45593999997E+02  0.45594000000E+02  0.51100000000E-03 0.  1.
         11   -1    0    0    0    0 -0.00000000000E+00 -0.00000000000E+00 -0.45593999997E+02  0.45594000000E+02  0.51100000000E-03 0. -1.
    9900012    2    1    2    0    0 -0.17534001952E+02  0.41155871229E+01  0.51286555816E+01  0.72461484310E+02  0.69999887990E+02 0.  0.
        -12    1    1    2    0    0  0.17534001952E+02 -0.41155871229E+01 -0.51286555816E+01  0.18726515690E+02  0.00000000000E+00 0.  1.
         11    1    3    3    0    0  0.26589322424E+01  0.42342202328E+01 -0.34940941683E+01  0.60997734358E+01  0.51100000000E-03 0. -1.
        -11    1    3    3    0    0 -0.19572753352E+02 -0.20124943671E+02 -0.17779619955E+02  0.33229819703E+02  0.51100000000E-03 0.  1.
         12    1    3    3    0    0 -0.62018084242E+00  0.20006310561E+02  0.26402369705E+02  0.33131891171E+02  0.00000000000E+00 0. -1.
</event>
<event>
 7    1  0.3509180E-013  0.7246159E+02  0.7816164E-02  0.1226708E+00
        -11   -1    0    0    0    0  0.00000000000E+00  0.00000000000E+00  0.45593999997E+02  0.45594000000E+02  0.51100000000E-03 0.  1.
         11   -1    0    0    0    0 -0.00000000000E+00 -0.00000000000E+00 -0.45593999997E+02  0.45594000000E+02  0.51100000000E-03 0. -1.
    9900012    2    1    2    0    0 -0.10692627941E+02 -0.12865654126E+02 -0.84155331356E+01  0.72461586933E+02  0.70000021675E+02 0.  0.
        -12    1    1    2    0    0  0.10692627941E+02  0.12865654126E+02  0.84155331356E+01  0.18726413067E+02  0.00000000000E+00 0.  1.
         11    1    3    3    0    0 -0.29676066691E+01 -0.45501660000E+01 -0.11710284662E+02  0.12908968475E+02  0.51100000000E-03 0. -1.
        -11    1    3    3    0    0  0.19277964853E+02  0.12678611651E+02 -0.65040866716E+01  0.23972698346E+02  0.51100000000E-03 0.  1.
        -12    1    3    3    0    0 -0.27002986126E+02 -0.20994099777E+02  0.97988381981E+01  0.35579920112E+02  0.00000000000E+00 0.  1.
</event>
<event>
 7    1  0.3509180E-013  0.7246162E+02  0.7816164E-02  0.1226708E+00
        -11   -1    0    0    0    0  0.00000000000E+00  0.00000000000E+00  0.45593999997E+02  0.45594000000E+02  0.51100000000E-03 0.  1.
         11   -1    0    0    0    0 -0.00000000000E+00 -0.00000000000E+00 -0.45593999997E+02  0.45594000000E+02  0.51100000000E-03 0. -1.
    9900012    2    1    2    0    0  0.31577308101E+01  0.18403808657E+02  0.14163238897E+01  0.72461617266E+02  0.70000061189E+02 0.  0.
        -12    1    1    2    0    0 -0.31577308101E+01 -0.18403808657E+02 -0.14163238897E+01  0.18726382734E+02  0.00000000000E+00 0.  1.
         11    1    3    3    0    0  0.26732405585E+01 -0.10225794552E+02 -0.90282466779E+01  0.13900443433E+02  0.51100000000E-03 0. -1.
        -11    1    3    3    0    0  0.17604704611E+02  0.30540693957E+01  0.19531114410E+02  0.26471067124E+02  0.51100000000E-03 0.  1.
        -12    1    3    3    0    0 -0.17120214359E+02  0.25575533814E+02 -0.90865438421E+01  0.32090106709E+02  0.00000000000E+00 0.  1.
</event>
<event>
 7    1  0.3509180E-013  0.7246153E+02  0.7816164E-02  0.1226708E+00
        -11   -1    0    0    0    0  0.00000000000E+00  0.00000000000E+00  0.45593999997E+02  0.45594000000E+02  0.51100000000E-03 0. -1.
         11   -1    0    0    0    0 -0.00000000000E+00 -0.00000000000E+00 -0.45593999997E+02  0.45594000000E+02  0.51100000000E-03 0.  1.
    9900012    2    1    2    0    0 -0.32821917681E+01  0.44383173524E+01  0.17894388354E+02  0.72461532680E+02  0.69999951001E+02 0.  0.
        -12    1    1    2    0    0  0.32821917681E+01 -0.44383173524E+01 -0.17894388354E+02  0.18726467320E+02  0.00000000000E+00 0.  1.
         11    1    3    3    0    0 -0.17606003193E+01  0.10235821616E+01  0.24814706467E+00  0.20515874714E+01  0.51100000000E-03 0. -1.
        -11    1    3    3    0    0 -0.17803138998E+02  0.30381792164E+02  0.20859402332E+01  0.35275433381E+02  0.51100000000E-03 0.  1.
        -12    1    3    3    0    0  0.16281547549E+02 -0.26967056974E+02  0.15560301056E+02  0.35134511828E+02  0.00000000000E+00 0.  1.
</event>
<event>
 7    1  0.3509180E-013  0.7246157E+02  0.7816164E-02  0.1226708E+00
        -11   -1    0    0    0    0  0.00000000000E+00  0.00000000000E+00  0.45593999997E+02  0.45594000000E+02  0.51100000000E-03 0. -1.
         11   -1    0    0    0    0 -0.00000000000E+00 -0.00000000000E+00 -0.45593999997E+02  0.45594000000E+02  0.51100000000E-03 0.  1.
    9900012    2    1    2    0    0  0.18348959122E+02 -0.58361613024E+00 -0.36951793728E+01  0.72461567899E+02  0.69999996879E+02 0.  0.
        -12    1    1    2    0    0 -0.18348959122E+02  0.58361613024E+00  0.36951793728E+01  0.18726432101E+02  0.00000000000E+00 0.  1.
         11    1    3    3    0    0 -0.10888530065E+02  0.69054107168E+00 -0.46824186311E+01  0.11872740983E+02  0.51100000000E-03 0. -1.
        -11    1    3    3    0    0  0.47233976052E+01  0.22780031375E+02 -0.88059117880E+01  0.24875377325E+02  0.51100000000E-03 0.  1.
         12    1    3    3    0    0  0.24514091582E+02 -0.24054188577E+02  0.97931510463E+01  0.35713449590E+02  0.00000000000E+00 0. -1.
</event>
<event>
 7    1  0.3509180E-013  0.7246190E+02  0.7816164E-02  0.1226707E+00
        -11   -1    0    0    0    0  0.00000000000E+00  0.00000000000E+00  0.45593999997E+02  0.45594000000E+02  0.51100000000E-03 0.  1.
         11   -1    0    0    0    0 -0.00000000000E+00 -0.00000000000E+00 -0.45593999997E+02  0.45594000000E+02  0.51100000000E-03 0. -1.
    9900012    2    1    2    0    0  0.78037877438E+01 -0.69641180608E+01 -0.15532833588E+02  0.72461896220E+02  0.70000424577E+02 0.  0.
        -12    1    1    2    0    0 -0.78037877438E+01  0.69641180608E+01  0.15532833588E+02  0.18726103780E+02  0.00000000000E+00 0.  1.
         11    1    3    3    0    0  0.57448627693E+01  0.18078800430E+01 -0.34833655443E+01  0.69574215241E+01  0.51100000000E-03 0. -1.
        -11    1    3    3    0    0 -0.63955550299E+01  0.24937347315E+02 -0.16332567157E+02  0.30488147951E+02  0.51100000000E-03 0.  1.
         12    1    3    3    0    0  0.84544800044E+01 -0.33709345419E+02  0.42830991140E+01  0.35016326745E+02  0.00000000000E+00 0. -1.
</event>
<event>
 7    1  0.3509180E-013  0.7246157E+02  0.7816164E-02  0.1226708E+00
        -11   -1    0    0    0    0  0.00000000000E+00  0.00000000000E+00  0.45593999997E+02  0.45594000000E+02  0.51100000000E-03 0.  1.
         11   -1    0    0    0    0 -0.00000000000E+00 -0.00000000000E+00 -0.45593999997E+02  0.45594000000E+02  0.51100000000E-03 0. -1.
    9900012    2    1    2    0    0 -0.17844178368E+02  0.22854880765E+01 -0.52001106422E+01  0.72461566595E+02  0.69999995181E+02 0.  0.
        -12    1    1    2    0    0  0.17844178368E+02 -0.22854880765E+01  0.52001106422E+01  0.18726433405E+02  0.00000000000E+00 0.  1.
         11    1    3    3    0    0 -0.14495621456E+02 -0.14356527076E+02 -0.15693915278E+02  0.25739694794E+02  0.51100000000E-03 0. -1.
        -11    1    3    3    0    0 -0.20444727798E+02  0.11695907285E+02  0.15545736766E+02  0.28221464771E+02  0.51100000000E-03 0.  1.
         12    1    3    3    0    0  0.17096170886E+02  0.49461078674E+01 -0.50519321297E+01  0.18500407029E+02  0.00000000000E+00 0. -1.
</event>
<event>
 7    1  0.3509180E-013  0.7246162E+02  0.7816164E-02  0.1226708E+00
        -11   -1    0    0    0    0  0.00000000000E+00  0.00000000000E+00  0.45593999997E+02  0.45594000000E+02  0.51100000000E-03 0.  1.
         11   -1    0    0    0    0 -0.00000000000E+00 -0.00000000000E+00 -0.45593999997E+02  0.45594000000E+02  0.51100000000E-03 0. -1.
    9900012    2    1    2    0    0  0.55532798949E+01  0.16386262957E+02 -0.71644100645E+01  0.72461620135E+02  0.70000064926E+02 0.  0.
        -12    1    1    2    0    0 -0.55532798949E+01 -0.16386262957E+02  0.71644100645E+01  0.18726379865E+02  0.00000000000E+00 0.  1.
         11    1    3    3    0    0  0.15263554730E+02  0.16685539640E+02 -0.20521751926E+01  0.22706711769E+02  0.51100000000E-03 0. -1.
        -11    1    3    3    0    0  0.22734944778E+01  0.21135255704E+01 -0.25659338647E+02  0.25846420014E+02  0.51100000000E-03 0.  1.
        -12    1    3    3    0    0 -0.11983769313E+02 -0.24128022536E+01  0.20547103776E+02  0.23908488351E+02  0.00000000000E+00 0.  1.
</event>
<event>
 7    1  0.3509180E-013  0.7246158E+02  0.7816164E-02  0.1226708E+00
        -11   -1    0    0    0    0  0.00000000000E+00  0.00000000000E+00  0.45593999997E+02  0.45594000000E+02  0.51100000000E-03 0.  1.
         11   -1    0    0    0    0 -0.00000000000E+00 -0.00000000000E+00 -0.45593999997E+02  0.45594000000E+02  0.51100000000E-03 0. -1.
    9900012    2    1    2    0    0 -0.17894853832E+02 -0.17676487127E+01 -0.52276704783E+01  0.72461577109E+02  0.70000008878E+02 0.  0.
        -12    1    1    2    0    0  0.17894853832E+02  0.17676487127E+01  0.52276704783E+01  0.18726422891E+02  0.00000000000E+00 0.  1.
         11    1    3    3    0    0 -0.12249660527E+00  0.87940547452E+01  0.25687865917E+02  0.27151737696E+02  0.51100000000E-03 0. -1.
        -11    1    3    3    0    0  0.38684482379E+01  0.12329093611E+01  0.17233460302E+01  0.44107685343E+01  0.51100000000E-03 0.  1.
         12    1    3    3    0    0 -0.21640805465E+02 -0.11794612819E+02 -0.32638882426E+02  0.40899070879E+02  0.00000000000E+00 0. -1.
</event>
<event>
 7    1  0.3509180E-013  0.7246152E+02  0.7816164E-02  0.1226708E+00
        -11   -1    0    0    0    0  0.00000000000E+00  0.00000000000E+00  0.45593999997E+02  0.45594000000E+02  0.51100000000E-03 0. -1.
         11   -1    0    0    0    0 -0.00000000000E+00 -0.00000000000E+00 -0.45593999997E+02  0.45594000000E+02  0.51100000000E-03 0.  1.
    9900012    2    1    2    0    0 -0.72949365267E+01 -0.39085673628E+01  0.16798450474E+02  0.72461523127E+02  0.69999938555E+02 0.  0.
        -12    1    1    2    0    0  0.72949365267E+01  0.39085673628E+01 -0.16798450474E+02  0.18726476873E+02  0.00000000000E+00 0.  1.
         11    1    3    3    0    0 -0.16615364891E+01 -0.14078101223E+02  0.22632679178E+02  0.26705651173E+02  0.51100000000E-03 0. -1.
        -11    1    3    3    0    0  0.15460738209E+02  0.26929923253E+01 -0.14871113704E+02  0.21620283455E+02  0.51100000000E-03 0.  1.
         12    1    3    3    0    0 -0.21094138246E+02  0.74765415348E+01  0.90368849996E+01  0.24135588499E+02  0.00000000000E+00 0. -1.
</event>
<event>
 7    1  0.3509180E-013  0.7246154E+02  0.7816164E-02  0.1226708E+00
        -11   -1    0    0    0    0  0.00000000000E+00  0.00000000000E+00  0.45593999997E+02  0.45594000000E+02  0.51100000000E-03 0. -1.
         11   -1    0    0    0    0 -0.00000000000E+00 -0.00000000000E+00 -0.45593999997E+02  0.45594000000E+02  0.51100000000E-03 0.  1.
    9900012    2    1    2    0    0  0.12008274219E+02  0.13880583075E+02  0.37163069021E+01  0.72461543496E+02  0.69999965090E+02 0.  0.
        -12    1    1    2    0    0 -0.12008274219E+02 -0.13880583075E+02 -0.37163069021E+01  0.18726456504E+02  0.00000000000E+00 0.  1.
         11    1    3    3    0    0 -0.10207851573E+02 -0.48557255830E+01 -0.16407782413E+01  0.11422366575E+02  0.51100000000E-03 0. -1.
        -11    1    3    3    0    0  0.36768453021E+00  0.45194583325E+01 -0.22462536684E+02  0.22915633312E+02  0.51100000000E-03 0.  1.
         12    1    3    3    0    0  0.21848441262E+02  0.14216850325E+02  0.27819621827E+02  0.38123543609E+02  0.00000000000E+00 0. -1.
</event>
<event>
 7    1  0.3509180E-013  0.7246154E+02  0.7816164E-02  0.1226708E+00
        -11   -1    0    0    0    0  0.00000000000E+00  0.00000000000E+00  0.45593999997E+02  0.45594000000E+02  0.51100000000E-03 0. -1.
         11   -1    0    0    0    0 -0.00000000000E+00 -0.00000000000E+00 -0.45593999997E+02  0.45594000000E+02  0.51100000000E-03 0.  1.
    9900012    2    1    2    0    0  0.42454866969E+01 -0.15144510150E+02  0.10163650801E+02  0.72461544314E+02  0.69999966156E+02 0.  0.
        -12    1    1    2    0    0 -0.42454866969E+01  0.15144510150E+02 -0.10163650801E+02  0.18726455686E+02  0.00000000000E+00 0.  1.
         11    1    3    3    0    0  0.66216614018E+01  0.13749796301E+00  0.13337344106E+02  0.14891274407E+02  0.51100000000E-03 0. -1.
        -11    1    3    3    0    0 -0.25076243572E+02  0.46610893297E+01  0.55852888666E+01  0.26110135914E+02  0.51100000000E-03 0.  1.
        -12    1    3    3    0    0  0.22700068868E+02 -0.19943097442E+02 -0.87589821719E+01  0.31460133993E+02  0.00000000000E+00 0.  1.
</event>
<event>
 7    1  0.3509180E-013  0.7246157E+02  0.7816164E-02  0.1226708E+00
        -11   -1    0    0    0    0  0.00000000000E+00  0.00000000000E+00  0.45593999997E+02  0.45594000000E+02  0.51100000000E-03 0.  1.
         11   -1    0    0    0    0 -0.00000000000E+00 -0.00000000000E+00 -0.45593999997E+02  0.45594000000E+02  0.51100000000E-03 0. -1.
    9900012    2    1    2    0    0  0.27188897661E+01 -0.85859669627E+01 -0.16418528048E+02  0.72461568051E+02  0.69999997078E+02 0.  0.
        -12    1    1    2    0    0 -0.27188897661E+01  0.85859669627E+01  0.16418528048E+02  0.18726431949E+02  0.00000000000E+00 0.  1.
         11    1    3    3    0    0  0.10173932577E+02 -0.13602570674E+02 -0.64978965258E+01  0.18186849440E+02  0.51100000000E-03 0. -1.
        -11    1    3    3    0    0  0.67496093719E+01 -0.14461683678E+02  0.13321022520E+02  0.20788149574E+02  0.51100000000E-03 0.  1.
        -12    1    3    3    0    0 -0.14204652183E+02  0.19478287389E+02 -0.23241654043E+02  0.33486569037E+02  0.00000000000E+00 0.  1.
</event>
<event>
 7    1  0.3509180E-013  0.7246191E+02  0.7816164E-02  0.1226707E+00
        -11   -1    0    0    0    0  0.00000000000E+00  0.00000000000E+00  0.45593999997E+02  0.45594000000E+02  0.51100000000E-03 0.  1.
         11   -1    0    0    0    0 -0.00000000000E+00 -0.00000000000E+00 -0.45593999997E+02  0.45594000000E+02  0.51100000000E-03 0. -1.
    9900012    2    1    2    0    0  0.14416632111E+02 -0.11524691534E+02 -0.31636616241E+01  0.72461907208E+02  0.70000438891E+02 0.  0.
        -12    1    1    2    0    0 -0.14416632111E+02  0.11524691534E+02  0.31636616241E+01  0.18726092792E+02  0.00000000000E+00 0.  1.
         11    1    3    3    0    0  0.19587733788E+02 -0.60709985221E+00  0.19625041177E+02  0.27734277107E+02  0.51100000000E-03 0. -1.
        -11    1    3    3    0    0  0.41805427310E+01  0.12496377740E+02 -0.63309045570E+01  0.14619054242E+02  0.51100000000E-03 0.  1.
        -12    1    3    3    0    0 -0.93516444084E+01 -0.23413969422E+02 -0.16457798244E+02  0.30108575859E+02  0.00000000000E+00 0.  1.
</event>
<event>
 7    1  0.3509180E-013  0.7246141E+02  0.7816164E-02  0.1226708E+00
        -11   -1    0    0    0    0  0.00000000000E+00  0.00000000000E+00  0.45593999997E+02  0.45594000000E+02  0.51100000000E-03 0. -1.
         11   -1    0    0    0    0 -0.00000000000E+00 -0.00000000000E+00 -0.45593999997E+02  0.45594000000E+02  0.51100000000E-03 0.  1.
    9900012    2    1    2    0    0  0.41187780944E+01  0.13597495360E+02  0.12199542241E+02  0.72461413446E+02  0.69999795676E+02 0.  0.
        -12    1    1    2    0    0 -0.41187780944E+01 -0.13597495360E+02 -0.12199542241E+02  0.18726586554E+02  0.00000000000E+00 0.  1.
         11    1    3    3    0    0 -0.10470536560E+02  0.73818007795E+01  0.54948162061E+01  0.13939731848E+02  0.51100000000E-03 0. -1.
        -11    1    3    3    0    0  0.47003784447E+01  0.19225394112E+02  0.26358421252E+02  0.32961730954E+02  0.51100000000E-03 0.  1.
         12    1    3    3    0    0  0.98889362093E+01 -0.13009699532E+02 -0.19653695217E+02  0.25559950644E+02  0.00000000000E+00 0. -1.
</event>
<event>
 7    1  0.3509180E-013  0.7246159E+02  0.7816164E-02  0.1226708E+00
        -11   -1    0    0    0    0  0.00000000000E+00  0.00000000000E+00  0.45593999997E+02  0.45594000000E+02  0.51100000000E-03 0. -1.
         11   -1    0    0    0    0 -0.00000000000E+00 -0.00000000000E+00 -0.45593999997E+02  0.45594000000E+02  0.51100000000E-03 0.  1.
    9900012    2    1    2    0    0 -0.16985201922E+02  0.40143065212E+01  0.67872454175E+01  0.72461589731E+02  0.70000025320E+02 0.  0.
        -12    1    1    2    0    0  0.16985201922E+02 -0.40143065212E+01 -0.67872454175E+01  0.18726410269E+02  0.00000000000E+00 0.  1.
         11    1    3    3    0    0  0.26562132377E+01 -0.19557914523E+01  0.41918728493E+01  0.53340779161E+01  0.51100000000E-03 0. -1.
        -11    1    3    3    0    0 -0.11479687758E+01 -0.27808749870E+02  0.59849607165E+01  0.28468652176E+02  0.51100000000E-03 0.  1.
         12    1    3    3    0    0 -0.18493446384E+02  0.33778847844E+02 -0.33895881482E+01  0.38658859640E+02  0.00000000000E+00 0. -1.
</event>
<event>
 7    1  0.3509180E-013  0.7246151E+02  0.7816164E-02  0.1226708E+00
        -11   -1    0    0    0    0  0.00000000000E+00  0.00000000000E+00  0.45593999997E+02  0.45594000000E+02  0.51100000000E-03 0.  1.
         11   -1    0    0    0    0 -0.00000000000E+00 -0.00000000000E+00 -0.45593999997E+02  0.45594000000E+02  0.51100000000E-03 0. -1.
    9900012    2    1    2    0    0 -0.15857779231E+02  0.81917553016E+01 -0.56663499945E+01  0.72461507020E+02  0.69999917573E+02 0.  0.
        -12    1    1    2    0    0  0.15857779231E+02 -0.81917553016E+01  0.56663499945E+01  0.18726492980E+02  0.00000000000E+00 0.  1.
         11    1    3    3    0    0 -0.12911538636E+02 -0.12144354648E+02  0.41589018309E+01  0.18206857073E+02  0.51100000000E-03 0. -1.
        -11    1    3    3    0    0 -0.23532220458E+02  0.11835752173E+02  0.58962316107E+01  0.26992887520E+02  0.51100000000E-03 0.  1.
         12    1    3    3    0    0  0.20585979862E+02  0.85003577772E+01 -0.15721483436E+02  0.27261762428E+02  0.00000000000E+00 0. -1.
</event>
<event>
 7    1  0.3509180E-013  0.7246162E+02  0.7816164E-02  0.1226708E+00
        -11   -1    0    0    0    0  0.00000000000E+00  0.00000000000E+00  0.45593999997E+02  0.45594000000E+02  0.51100000000E-03 0. -1.
         11   -1    0    0    0    0 -0.00000000000E+00 -0.00000000000E+00 -0.45593999997E+02  0.45594000000E+02  0.51100000000E-03 0.  1.
    9900012    2    1    2    0    0 -0.21641398391E+01 -0.16841017765E+02 -0.78977208940E+01  0.72461618184E+02  0.70000062385E+02 0.  0.
        -12    1    1    2    0    0  0.21641398391E+01  0.16841017765E+02  0.78977208940E+01  0.18726381816E+02  0.00000000000E+00 0.  1.
         11    1    3    3    0    0  0.12538801059E+01  0.20022628210E+01  0.25011278848E+02  0.25122606187E+02  0.51100000000E-03 0. -1.
        -11    1    3    3    0    0  0.45653940442E+01  0.62080692370E+01 -0.83128335187E+01  0.11335173038E+02  0.51100000000E-03 0.  1.
        -12    1    3    3    0    0 -0.79834139892E+01 -0.25051349823E+02 -0.24596166224E+02  0.36003838959E+02  0.00000000000E+00 0.  1.
</event>
<event>
 7    1  0.3509180E-013  0.7246159E+02  0.7816164E-02  0.1226708E+00
        -11   -1    0    0    0    0  0.00000000000E+00  0.00000000000E+00  0.45593999997E+02  0.45594000000E+02  0.51100000000E-03 0. -1.
         11   -1    0    0    0    0 -0.00000000000E+00 -0.00000000000E+00 -0.45593999997E+02  0.45594000000E+02  0.51100000000E-03 0.  1.
    9900012    2    1    2    0    0  0.91296641520E+01 -0.68580984080E+01  0.14842304032E+02  0.72461594304E+02  0.70000031278E+02 0.  0.
        -12    1    1    2    0    0 -0.91296641520E+01  0.68580984080E+01 -0.14842304032E+02  0.18726405696E+02  0.00000000000E+00 0.  1.
         11    1    3    3    0    0  0.19622582210E+02  0.14840794668E+02  0.14245076432E+02  0.28429159709E+02  0.51100000000E-03 0. -1.
        -11    1    3    3    0    0  0.13545033770E+02 -0.57209676234E+01 -0.28050890565E+01  0.14968832127E+02  0.51100000000E-03 0.  1.
        -12    1    3    3    0    0 -0.24037951827E+02 -0.15977925453E+02  0.34023166563E+01  0.29063602468E+02  0.00000000000E+00 0.  1.
</event>
<event>
 7    1  0.3509180E-013  0.7246161E+02  0.7816164E-02  0.1226708E+00
        -11   -1    0    0    0    0  0.00000000000E+00  0.00000000000E+00  0.45593999997E+02  0.45594000000E+02  0.51100000000E-03 0.  1.
         11   -1    0    0    0    0 -0.00000000000E+00 -0.00000000000E+00 -0.45593999997E+02  0.45594000000E+02  0.51100000000E-03 0. -1.
    9900012    2    1    2    0    0  0.16767726060E+02  0.63141674649E+01 -0.54454020103E+01  0.72461608168E+02  0.70000049337E+02 0.  0.
        -12    1    1    2    0    0 -0.16767726060E+02 -0.63141674649E+01  0.54454020103E+01  0.18726391832E+02  0.00000000000E+00 0.  1.
         11    1    3    3    0    0 -0.10017335583E+02  0.28498938864E+01 -0.61148159691E+01  0.12077246456E+02  0.51100000000E-03 0. -1.
        -11    1    3    3    0    0 -0.12243964723E+02 -0.51168938297E+01  0.12987108579E+02  0.18567774883E+02  0.51100000000E-03 0.  1.
         12    1    3    3    0    0  0.39029026367E+02  0.85811674081E+01 -0.12317694620E+02  0.41816586829E+02  0.00000000000E+00 0. -1.
</event>
<event>
 7    1  0.3509180E-013  0.7246154E+02  0.7816164E-02  0.1226708E+00
        -11   -1    0    0    0    0  0.00000000000E+00  0.00000000000E+00  0.45593999997E+02  0.45594000000E+02  0.51100000000E-03 0.  1.
         11   -1    0    0    0    0 -0.00000000000E+00 -0.00000000000E+00 -0.45593999997E+02  0.45594000000E+02  0.51100000000E-03 0. -1.
    9900012    2    1    2    0    0 -0.58320205709E+00 -0.69832785773E+01 -0.17365886926E+02  0.72461539228E+02  0.69999959530E+02 0.  0.
        -12    1    1    2    0    0  0.58320205709E+00  0.69832785773E+01  0.17365886926E+02  0.18726460772E+02  0.00000000000E+00 0.  1.
         11    1    3    3    0    0 -0.66510303518E+00  0.13091329601E+02  0.49670721650E+01  0.14017741577E+02  0.51100000000E-03 0. -1.
        -11    1    3    3    0    0  0.27847201789E+01  0.10059208649E+02  0.97942004132E+01  0.14313235383E+02  0.51100000000E-03 0.  1.
         12    1    3    3    0    0 -0.27028192008E+01 -0.30133816828E+02 -0.32127159504E+02  0.44130562268E+02  0.00000000000E+00 0. -1.
</event>
<event>
 7    1  0.3509180E-013  0.7246176E+02  0.7816164E-02  0.1226707E+00
        -11   -1    0    0    0    0  0.00000000000E+00  0.00000000000E+00  0.45593999997E+02  0.45594000000E+02  0.51100000000E-03 0.  1.
         11   -1    0    0    0    0 -0.00000000000E+00 -0.00000000000E+00 -0.45593999997E+02  0.45594000000E+02  0.51100000000E-03 0. -1.
    9900012    2    1    2    0    0  0.13964671074E+02  0.95622510410E+01 -0.80139408310E+01  0.72461763570E+02  0.70000251777E+02 0.  0.
        -12    1    1    2    0    0 -0.13964671074E+02 -0.95622510410E+01  0.80139408310E+01  0.18726236430E+02  0.00000000000E+00 0.  1.
         11    1    3    3    0    0  0.37665610205E+02 -0.11036349841E+01 -0.85479188031E+01  0.38639139721E+02  0.51100000000E-03 0. -1.
        -11    1    3    3    0    0  0.15822365066E+01  0.23471573932E+01 -0.58078946048E+01  0.64609798168E+01  0.51100000000E-03 0.  1.
        -12    1    3    3    0    0 -0.25283175637E+02  0.83187286318E+01  0.63418725769E+01  0.27361644032E+02  0.00000000000E+00 0.  1.
</event>
<event>
 7    1  0.3509180E-013  0.7246158E+02  0.7816164E-02  0.1226708E+00
        -11   -1    0    0    0    0  0.00000000000E+00  0.00000000000E+00  0.45593999997E+02  0.45594000000E+02  0.51100000000E-03 0.  1.
         11   -1    0    0    0    0 -0.00000000000E+00 -0.00000000000E+00 -0.45593999997E+02  0.45594000000E+02  0.51100000000E-03 0. -1.
    9900012    2    1    2    0    0  0.34183921613E+01  0.35212480369E+01 -0.18071916057E+02  0.72461581691E+02  0.70000014847E+02 0.  0.
        -12    1    1    2    0    0 -0.34183921613E+01 -0.35212480369E+01  0.18071916057E+02  0.18726418309E+02  0.00000000000E+00 0.  1.
         11    1    3    3    0    0 -0.16060902910E+02  0.69133349906E+01  0.48171532696E+01  0.18137027564E+02  0.51100000000E-03 0. -1.
        -11    1    3    3    0    0  0.70916232045E+01 -0.23171241762E+02 -0.45790560762E+01  0.24661008075E+02  0.51100000000E-03 0.  1.
         12    1    3    3    0    0  0.12387671867E+02  0.19779154808E+02 -0.18310013250E+02  0.29663546053E+02  0.00000000000E+00 0. -1.
</event>
<event>
 7    1  0.3509180E-013  0.7246159E+02  0.7816164E-02  0.1226708E+00
        -11   -1    0    0    0    0  0.00000000000E+00  0.00000000000E+00  0.45593999997E+02  0.45594000000E+02  0.51100000000E-03 0.  1.
         11   -1    0    0    0    0 -0.00000000000E+00 -0.00000000000E+00 -0.45593999997E+02  0.45594000000E+02  0.51100000000E-03 0. -1.
    9900012    2    1    2    0    0  0.54002507405E+01 -0.15676223339E+02 -0.87046987842E+01  0.72461589047E+02  0.70000024429E+02 0.  0.
        -12    1    1    2    0    0 -0.54002507405E+01  0.15676223339E+02  0.87046987842E+01  0.18726410953E+02  0.00000000000E+00 0.  1.
         11    1    3    3    0    0 -0.32696656360E+01  0.12562283646E+01  0.58359241141E+01  0.68063818290E+01  0.51100000000E-03 0. -1.
        -11    1    3    3    0    0  0.24481543678E+02 -0.10266491359E+02  0.15731390580E+02  0.30858118471E+02  0.51100000000E-03 0.  1.
         12    1    3    3    0    0 -0.15811627302E+02 -0.66659603445E+01 -0.30272013479E+02  0.34797088747E+02  0.00000000000E+00 0. -1.
</event>
<event>
 7    1  0.3509180E-013  0.7246156E+02  0.7816164E-02  0.1226708E+00
        -11   -1    0    0    0    0  0.00000000000E+00  0.00000000000E+00  0.45593999997E+02  0.45594000000E+02  0.51100000000E-03 0. -1.
         11   -1    0    0    0    0 -0.00000000000E+00 -0.00000000000E+00 -0.45593999997E+02  0.45594000000E+02  0.51100000000E-03 0.  1.
    9900012    2    1    2    0    0 -0.25020523957E+01  0.78809260435E+01  0.16802095552E+02  0.72461556760E+02  0.69999982369E+02 0.  0.
        -12    1    1    2    0    0  0.25020523957E+01 -0.78809260435E+01 -0.16802095552E+02  0.18726443240E+02  0.00000000000E+00 0.  1.
         11    1    3    3    0    0  0.50956972037E+01 -0.60686341858E+01 -0.24276133410E+01  0.82878077722E+01  0.51100000000E-03 0. -1.
        -11    1    3    3    0    0  0.74412701350E+01  0.29846234079E+02 -0.53962641963E+01  0.31229631081E+02  0.51100000000E-03 0.  1.
         12    1    3    3    0    0 -0.15039019734E+02 -0.15896673850E+02  0.24625973089E+02  0.32944117907E+02  0.00000000000E+00 0. -1.
</event>
<event>
 7    1  0.3509180E-013  0.7246160E+02  0.7816164E-02  0.1226708E+00
        -11   -1    0    0    0    0  0.00000000000E+00  0.00000000000E+00  0.45593999997E+02  0.45594000000E+02  0.51100000000E-03 0.  1.
         11   -1    0    0    0    0 -0.00000000000E+00 -0.00000000000E+00 -0.45593999997E+02  0.45594000000E+02  0.51100000000E-03 0. -1.
    9900012    2    1    2    0    0 -0.17042544103E+02  0.63619789521E+01 -0.44446364550E+01  0.72461604754E+02  0.70000044890E+02 0.  0.
        -12    1    1    2    0    0  0.17042544103E+02 -0.63619789521E+01  0.44446364550E+01  0.18726395246E+02  0.00000000000E+00 0.  1.
         11    1    3    3    0    0  0.68897322625E+01 -0.22575605793E+02  0.42148566259E+01  0.23976893130E+02  0.51100000000E-03 0. -1.
        -11    1    3    3    0    0 -0.13418279073E+02  0.14394543398E+02  0.10440486586E+02  0.22276823232E+02  0.51100000000E-03 0.  1.
        -12    1    3    3    0    0 -0.10513997293E+02  0.14543041347E+02 -0.19099979667E+02  0.26207888392E+02  0.00000000000E+00 0.  1.
</event>
<event>
 7    1  0.3509180E-013  0.7246159E+02  0.7816164E-02  0.1226708E+00
        -11   -1    0    0    0    0  0.00000000000E+00  0.00000000000E+00  0.45593999997E+02  0.45594000000E+02  0.51100000000E-03 0. -1.
         11   -1    0    0    0    0 -0.00000000000E+00 -0.00000000000E+00 -0.45593999997E+02  0.45594000000E+02  0.51100000000E-03 0.  1.
    9900012    2    1    2    0    0 -0.32566284600E+01 -0.13200225678E+02  0.12877374263E+02  0.72461592048E+02  0.70000028339E+02 0.  0.
        -12    1    1    2    0    0  0.32566284600E+01  0.13200225678E+02 -0.12877374263E+02  0.18726407952E+02  0.00000000000E+00 0.  1.
         11    1    3    3    0    0 -0.22928625037E+02 -0.16695511651E+02  0.83282750226E+01  0.29560482413E+02  0.51100000000E-03 0. -1.
        -11    1    3    3    0    0 -0.11332989021E+02  0.65632222895E-01  0.27109348704E+01  0.11652901607E+02  0.51100000000E-03 0.  1.
         12    1    3    3    0    0  0.31004985597E+02  0.34296537503E+01  0.18381643695E+01  0.31248208029E+02  0.00000000000E+00 0. -1.
</event>
<event>
 7    1  0.3509180E-013  0.7246158E+02  0.7816164E-02  0.1226708E+00
        -11   -1    0    0    0    0  0.00000000000E+00  0.00000000000E+00  0.45593999997E+02  0.45594000000E+02  0.51100000000E-03 0.  1.
         11   -1    0    0    0    0 -0.00000000000E+00 -0.00000000000E+00 -0.45593999997E+02  0.45594000000E+02  0.51100000000E-03 0. -1.
    9900012    2    1    2    0    0  0.11375789763E+02  0.14850327569E+02 -0.85902233686E+00  0.72461581736E+02  0.70000014905E+02 0.  0.
        -12    1    1    2    0    0 -0.11375789763E+02 -0.14850327569E+02  0.85902233686E+00  0.18726418264E+02  0.00000000000E+00 0.  1.
         11    1    3    3    0    0 -0.20835330692E+01  0.11275884077E+02  0.41036835440E+01  0.12178952774E+02  0.51100000000E-03 0. -1.
        -11    1    3    3    0    0  0.39216289113E+01  0.30869580875E+02 -0.37609397582E+01  0.31344136052E+02  0.51100000000E-03 0.  1.
        -12    1    3    3    0    0  0.95376939205E+01 -0.27295137384E+02 -0.12017661226E+01  0.28938492910E+02  0.00000000000E+00 0.  1.
</event>
<event>
 7    1  0.3509180E-013  0.7246157E+02  0.7816164E-02  0.1226708E+00
        -11   -1    0    0    0    0  0.00000000000E+00  0.00000000000E+00  0.45593999997E+02  0.45594000000E+02  0.51100000000E-03 0.  1.
         11   -1    0    0    0    0 -0.00000000000E+00 -0.00000000000E+00 -0.45593999997E+02  0.45594000000E+02  0.51100000000E-03 0. -1.
    9900012    2    1    2    0    0  0.37466222378E+01  0.45865858445E+01 -0.17765277151E+02  0.72461574282E+02  0.70000005195E+02 0.  0.
        -12    1    1    2    0    0 -0.37466222378E+01 -0.45865858445E+01  0.17765277151E+02  0.18726425718E+02  0.00000000000E+00 0.  1.
         11    1    3    3    0    0  0.18077622734E+02  0.15503416252E+02 -0.21797429877E+02  0.32284428270E+02  0.51100000000E-03 0. -1.
        -11    1    3    3    0    0 -0.48413076121E+01  0.12019743741E+02 -0.48174239956E+01  0.13824618375E+02  0.51100000000E-03 0.  1.
         12    1    3    3    0    0 -0.94896928843E+01 -0.22936574149E+02  0.88495767219E+01  0.26352527637E+02  0.00000000000E+00 0. -1.
</event>
<event>
 7    1  0.3509180E-013  0.7246160E+02  0.7816164E-02  0.1226708E+00
        -11   -1    0    0    0    0  0.00000000000E+00  0.00000000000E+00  0.45593999997E+02  0.45594000000E+02  0.51100000000E-03 0. -1.
         11   -1    0    0    0    0 -0.00000000000E+00 -0.00000000000E+00 -0.45593999997E+02  0.45594000000E+02  0.51100000000E-03 0.  1.
    9900012    2    1    2    0    0  0.30173596974E+01 -0.35012815611E+01  0.18147026760E+02  0.72461601191E+02  0.70000040249E+02 0.  0.
        -12    1    1    2    0    0 -0.30173596974E+01  0.35012815611E+01 -0.18147026760E+02  0.18726398809E+02  0.00000000000E+00 0.  1.
         11    1    3    3    0    0  0.22072702162E+02  0.14984318383E+01 -0.85920799236E+01  0.23733379792E+02  0.51100000000E-03 0. -1.
        -11    1    3    3    0    0  0.54439424275E+01 -0.62527146265E+01 -0.41596083475E+01  0.92755210754E+01  0.51100000000E-03 0.  1.
         12    1    3    3    0    0 -0.24499284892E+02  0.12530012271E+01  0.30898715031E+02  0.39452700324E+02  0.00000000000E+00 0. -1.
</event>
<event>
 7    1  0.3509180E-013  0.7246153E+02  0.7816164E-02  0.1226708E+00
        -11   -1    0    0    0    0  0.00000000000E+00  0.00000000000E+00  0.45593999997E+02  0.45594000000E+02  0.51100000000E-03 0. -1.
         11   -1    0    0    0    0 -0.00000000000E+00 -0.00000000000E+00 -0.45593999997E+02  0.45594000000E+02  0.51100000000E-03 0.  1.
    9900012    2    1    2    0    0  0.39036071435E+01 -0.18313371204E+02 -0.25087817614E+00  0.72461530673E+02  0.69999948386E+02 0.  0.
        -12    1    1    2    0    0 -0.39036071435E+01  0.18313371204E+02  0.25087817614E+00  0.18726469327E+02  0.00000000000E+00 0.  1.
         11    1    3    3    0    0 -0.24361423910E+01 -0.14459218776E+02  0.34590876312E+01  0.15065493183E+02  0.51100000000E-03 0. -1.
        -11    1    3    3    0    0 -0.14313381931E+02  0.41410027333E+01  0.20007390021E+02  0.24946271498E+02  0.51100000000E-03 0.  1.
        -12    1    3    3    0    0  0.20653131466E+02 -0.79951551622E+01 -0.23717355828E+02  0.32449765991E+02  0.00000000000E+00 0.  1.
</event>
<event>
 7    1  0.3509180E-013  0.7246194E+02  0.7816164E-02  0.1226707E+00
        -11   -1    0    0    0    0  0.00000000000E+00  0.00000000000E+00  0.45593999997E+02  0.45594000000E+02  0.51100000000E-03 0.  1.
         11   -1    0    0    0    0 -0.00000000000E+00 -0.00000000000E+00 -0.45593999997E+02  0.45594000000E+02  0.51100000000E-03 0. -1.
    9900012    2    1    2    0    0 -0.14999379188E+02  0.10808537476E+02 -0.29765166118E+01  0.72461935023E+02  0.70000475125E+02 0.  0.
        -12    1    1    2    0    0  0.14999379188E+02 -0.10808537476E+02  0.29765166118E+01  0.18726064977E+02  0.00000000000E+00 0.  1.
         11    1    3    3    0    0 -0.28898048810E+01 -0.63161277433E+01  0.19661085367E+01  0.72187273781E+01  0.51100000000E-03 0. -1.
        -11    1    3    3    0    0 -0.27583213290E+02  0.28165800556E+02  0.10449341347E+02  0.40784000677E+02  0.51100000000E-03 0.  1.
         12    1    3    3    0    0  0.15473638983E+02 -0.11041135337E+02 -0.15391966495E+02  0.24459206968E+02  0.00000000000E+00 0. -1.
</event>
<event>
 7    1  0.3509180E-013  0.7246160E+02  0.7816164E-02  0.1226708E+00
        -11   -1    0    0    0    0  0.00000000000E+00  0.00000000000E+00  0.45593999997E+02  0.45594000000E+02  0.51100000000E-03 0.  1.
         11   -1    0    0    0    0 -0.00000000000E+00 -0.00000000000E+00 -0.45593999997E+02  0.45594000000E+02  0.51100000000E-03 0. -1.
    9900012    2    1    2    0    0 -0.39862493382E+01 -0.16061866197E+02 -0.87638075962E+01  0.72461600103E+02  0.70000038832E+02 0.  0.
        -12    1    1    2    0    0  0.39862493382E+01  0.16061866197E+02  0.87638075962E+01  0.18726399897E+02  0.00000000000E+00 0.  1.
         11    1    3    3    0    0  0.24134630349E+01 -0.91808520617E+01  0.26152212401E+02  0.27821773166E+02  0.51100000000E-03 0. -1.
        -11    1    3    3    0    0 -0.56240614534E+01  0.45731758832E+01  0.63943287954E+00  0.72768729244E+01  0.51100000000E-03 0.  1.
         12    1    3    3    0    0 -0.77565091978E+00 -0.11454190018E+02 -0.35555452876E+02  0.37362954013E+02  0.00000000000E+00 0. -1.
</event>
<event>
 7    1  0.3509180E-013  0.7246152E+02  0.7816164E-02  0.1226708E+00
        -11   -1    0    0    0    0  0.00000000000E+00  0.00000000000E+00  0.45593999997E+02  0.45594000000E+02  0.51100000000E-03 0.  1.
         11   -1    0    0    0    0 -0.00000000000E+00 -0.00000000000E+00 -0.45593999997E+02  0.45594000000E+02  0.51100000000E-03 0. -1.
    9900012    2    1    2    0    0  0.77833475121E+01  0.16807964317E+02  0.27555297673E+01  0.72461518556E+02  0.69999932601E+02 0.  0.
        -12    1    1    2    0    0 -0.77833475121E+01 -0.16807964317E+02 -0.27555297673E+01  0.18726481444E+02  0.00000000000E+00 0.  1.
         11    1    3    3    0    0 -0.50815124677E+01  0.13265320636E+02 -0.72141153658E+01  0.15932167502E+02  0.51100000000E-03 0. -1.
        -11    1    3    3    0    0  0.17334783819E+02  0.26766061144E+02  0.40095475425E+01  0.32140212056E+02  0.51100000000E-03 0.  1.
        -12    1    3    3    0    0 -0.44699238390E+01 -0.23223417463E+02  0.59600975906E+01  0.24389138998E+02  0.00000000000E+00 0.  1.
</event>
<event>
 7    1  0.3509180E-013  0.7246150E+02  0.7816164E-02  0.1226708E+00
        -11   -1    0    0    0    0  0.00000000000E+00  0.00000000000E+00  0.45593999997E+02  0.45594000000E+02  0.51100000000E-03 0.  1.
         11   -1    0    0    0    0 -0.00000000000E+00 -0.00000000000E+00 -0.45593999997E+02  0.45594000000E+02  0.51100000000E-03 0. -1.
    9900012    2    1    2    0    0 -0.52343911942E+00 -0.53531306659E+01 -0.17937442734E+02  0.72461498771E+02  0.69999906828E+02 0.  0.
        -12    1    1    2    0    0  0.52343911942E+00  0.53531306659E+01  0.17937442734E+02  0.18726501229E+02  0.00000000000E+00 0.  1.
         11    1    3    3    0    0 -0.84602483673E+01 -0.11555770710E+02  0.13052403586E+02  0.19377225776E+02  0.51100000000E-03 0. -1.
        -11    1    3    3    0    0 -0.13639672731E+01  0.12189247755E+02  0.65808253074E+01  0.13919246730E+02  0.51100000000E-03 0.  1.
         12    1    3    3    0    0  0.93007765210E+01 -0.59866077111E+01 -0.37570671628E+02  0.39165026265E+02  0.00000000000E+00 0. -1.
</event>
<event>
 7    1  0.3509180E-013  0.7246155E+02  0.7816164E-02  0.1226708E+00
        -11   -1    0    0    0    0  0.00000000000E+00  0.00000000000E+00  0.45593999997E+02  0.45594000000E+02  0.51100000000E-03 0.  1.
         11   -1    0    0    0    0 -0.00000000000E+00 -0.00000000000E+00 -0.45593999997E+02  0.45594000000E+02  0.51100000000E-03 0. -1.
    9900012    2    1    2    0    0  0.18616801029E+02  0.17720651181E+01 -0.97702346063E+00  0.72461546246E+02  0.69999968673E+02 0.  0.
        -12    1    1    2    0    0 -0.18616801029E+02 -0.17720651181E+01  0.97702346063E+00  0.18726453754E+02  0.00000000000E+00 0.  1.
         11    1    3    3    0    0  0.19336193775E+01 -0.10121400144E+02 -0.32205424241E+00  0.10309478356E+02  0.51100000000E-03 0. -1.
        -11    1    3    3    0    0  0.23880270805E+02  0.13341602606E+02  0.24022777687E+02  0.36405487799E+02  0.51100000000E-03 0.  1.
         12    1    3    3    0    0 -0.71970891533E+01 -0.14481373443E+01 -0.24677746905E+02  0.25746580091E+02  0.00000000000E+00 0. -1.
</event>
<event>
 7    1  0.3509180E-013  0.7246155E+02  0.7816164E-02  0.1226708E+00
        -11   -1    0    0    0    0  0.00000000000E+00  0.00000000000E+00  0.45593999997E+02  0.45594000000E+02  0.51100000000E-03 0.  1.
         11   -1    0    0    0    0 -0.00000000000E+00 -0.00000000000E+00 -0.45593999997E+02  0.45594000000E+02  0.51100000000E-03 0. -1.
    9900012    2    1    2    0    0  0.19620142499E+01 -0.23904165692E+01 -0.18469332843E+02  0.72461552207E+02  0.69999976438E+02 0.  0.
        -12    1    1    2    0    0 -0.19620142499E+01  0.23904165692E+01  0.18469332843E+02  0.18726447793E+02  0.00000000000E+00 0.  1.
         11    1    3    3    0    0 -0.20671555993E+01  0.86127278192E+01 -0.20343605240E+02  0.22188160969E+02  0.51100000000E-03 0. -1.
        -11    1    3    3    0    0  0.11998330185E+02 -0.91502529387E+01 -0.21068933511E+02  0.25914995960E+02  0.51100000000E-03 0.  1.
        -12    1    3    3    0    0 -0.79691603356E+01 -0.18528914496E+01  0.22943205908E+02  0.24358395278E+02  0.00000000000E+00 0.  1.
</event>
<event>
 7    1  0.3509180E-013  0.7246156E+02  0.7816164E-02  0.1226708E+00
        -11   -1    0    0    0    0  0.00000000000E+00  0.00000000000E+00  0.45593999997E+02  0.45594000000E+02  0.51100000000E-03 0. -1.
         11   -1    0    0    0    0 -0.00000000000E+00 -0.00000000000E+00 -0.45593999997E+02  0.45594000000E+02  0.51100000000E-03 0.  1.
    9900012    2    1    2    0    0  0.79278669051E+01  0.68865705555E+01 -0.15504951285E+02  0.72461563018E+02  0.69999990521E+02 0.  0.
        -12    1    1    2    0    0 -0.79278669051E+01 -0.68865705555E+01  0.15504951285E+02  0.18726436982E+02  0.00000000000E+00 0.  1.
         11    1    3    3    0    0 -0.14868479538E+02 -0.26328367551E+01 -0.17345725636E+02  0.22997341395E+02  0.51100000000E-03 0. -1.
        -11    1    3    3    0    0 -0.24001639005E+01  0.19177330522E+02 -0.77550000635E+01  0.20824764559E+02  0.51100000000E-03 0.  1.
         12    1    3    3    0    0  0.25196510344E+02 -0.96579232116E+01  0.95957744139E+01  0.28639457063E+02  0.00000000000E+00 0. -1.
</event>
<event>
 7    1  0.3509180E-013  0.7246158E+02  0.7816164E-02  0.1226708E+00
        -11   -1    0    0    0    0  0.00000000000E+00  0.00000000000E+00  0.45593999997E+02  0.45594000000E+02  0.51100000000E-03 0. -1.
         11   -1    0    0    0    0 -0.00000000000E+00 -0.00000000000E+00 -0.45593999997E+02  0.45594000000E+02  0.51100000000E-03 0.  1.
    9900012    2    1    2    0    0 -0.10210957635E+02  0.14258638643E+02  0.65655395061E+01  0.72461581742E+02  0.70000014912E+02 0.  0.
        -12    1    1    2    0    0  0.10210957635E+02 -0.14258638643E+02 -0.65655395061E+01  0.18726418258E+02  0.00000000000E+00 0.  1.
         11    1    3    3    0    0  0.48383771114E+01  0.24798184948E+02  0.28889151844E+01  0.25430408982E+02  0.51100000000E-03 0. -1.
        -11    1    3    3    0    0  0.14506025557E+02  0.10324660394E+01 -0.23287487500E+01  0.14727994927E+02  0.51100000000E-03 0.  1.
         12    1    3    3    0    0 -0.29555360304E+02 -0.11572012344E+02  0.60053730716E+01  0.32303177833E+02  0.00000000000E+00 0. -1.
</event>
<event>
 7    1  0.3509180E-013  0.7246157E+02  0.7816164E-02  0.1226708E+00
        -11   -1    0    0    0    0  0.00000000000E+00  0.00000000000E+00  0.45593999997E+02  0.45594000000E+02  0.51100000000E-03 0.  1.
         11   -1    0    0    0    0 -0.00000000000E+00 -0.00000000000E+00 -0.45593999997E+02  0.45594000000E+02  0.51100000000E-03 0. -1.
    9900012    2    1    2    0    0  0.30134775180E+01  0.82024567439E+01 -0.16562547244E+02  0.72461566421E+02  0.69999994954E+02 0.  0.
        -12    1    1    2    0    0 -0.30134775180E+01 -0.82024567439E+01  0.16562547244E+02  0.18726433579E+02  0.00000000000E+00 0.  1.
         11    1    3    3    0    0  0.97374013721E+00 -0.15125071597E+02 -0.13708297294E+02  0.20436080241E+02  0.51100000000E-03 0. -1.
        -11    1    3    3    0    0  0.18878696574E+02 -0.31438220893E+01  0.48011747832E+01  0.19731702441E+02  0.51100000000E-03 0.  1.
         12    1    3    3    0    0 -0.16838959193E+02  0.26471350430E+02 -0.76554247328E+01  0.32293783738E+02  0.00000000000E+00 0. -1.
</event>
<event>
 7    1  0.3509180E-013  0.7246135E+02  0.7816164E-02  0.1226709E+00
        -11   -1    0    0    0    0  0.00000000000E+00  0.00000000000E+00  0.45593999997E+02  0.45594000000E+02  0.51100000000E-03 0.  1.
         11   -1    0    0    0    0 -0.00000000000E+00 -0.00000000000E+00 -0.45593999997E+02  0.45594000000E+02  0.51100000000E-03 0. -1.
    9900012    2    1    2    0    0  0.14125870089E+02  0.97662405144E+01  0.74677776339E+01  0.72461351545E+02  0.69999715038E+02 0.  0.
        -12    1    1    2    0    0 -0.14125870089E+02 -0.97662405144E+01 -0.74677776339E+01  0.18726648455E+02  0.00000000000E+00 0.  1.
         11    1    3    3    0    0 -0.67353909267E+01  0.55790261412E+01 -0.22065950083E+02  0.23735989067E+02  0.51100000000E-03 0. -1.
        -11    1    3    3    0    0 -0.47043258052E+01  0.80448719739E+01 -0.20143643189E+00  0.93215461837E+01  0.51100000000E-03 0.  1.
         12    1    3    3    0    0  0.25565586821E+02 -0.38576576007E+01  0.29735164149E+02  0.39403816295E+02  0.00000000000E+00 0. -1.
</event>
<event>
 7    1  0.3509180E-013  0.7246152E+02  0.7816164E-02  0.1226708E+00
        -11   -1    0    0    0    0  0.00000000000E+00  0.00000000000E+00  0.45593999997E+02  0.45594000000E+02  0.51100000000E-03 0.  1.
         11   -1    0    0    0    0 -0.00000000000E+00 -0.00000000000E+00 -0.45593999997E+02  0.45594000000E+02  0.51100000000E-03 0. -1.
    9900012    2    1    2    0    0  0.48331022385E+01 -0.17850958252E+02 -0.29437301509E+01  0.72461517816E+02  0.69999931638E+02 0.  0.
        -12    1    1    2    0    0 -0.48331022385E+01  0.17850958252E+02  0.29437301509E+01  0.18726482184E+02  0.00000000000E+00 0.  1.
         11    1    3    3    0    0 -0.71824830968E+01  0.34854137711E+01 -0.24997544263E+02  0.26241444168E+02  0.51100000000E-03 0. -1.
        -11    1    3    3    0    0 -0.11257732138E+02 -0.72040161443E+01  0.64930744287E+01  0.14859151971E+02  0.51100000000E-03 0.  1.
        -12    1    3    3    0    0  0.23273317474E+02 -0.14132355879E+02  0.15560739683E+02  0.31360921677E+02  0.00000000000E+00 0.  1.
</event>
<event>
 7    1  0.3509180E-013  0.7246165E+02  0.7816164E-02  0.1226708E+00
        -11   -1    0    0    0    0  0.00000000000E+00  0.00000000000E+00  0.45593999997E+02  0.45594000000E+02  0.51100000000E-03 0. -1.
         11   -1    0    0    0    0 -0.00000000000E+00 -0.00000000000E+00 -0.45593999997E+02  0.45594000000E+02  0.51100000000E-03 0.  1.
    9900012    2    1    2    0    0 -0.81367104493E+01  0.12385568190E+02  0.11448484410E+02  0.72461650873E+02  0.70000104969E+02 0.  0.
        -12    1    1    2    0    0  0.81367104493E+01 -0.12385568190E+02 -0.11448484410E+02  0.18726349127E+02  0.00000000000E+00 0.  1.
         11    1    3    3    0    0 -0.51880652839E+01 -0.25735665998E+01  0.20506759197E+02  0.21308834775E+02  0.51100000000E-03 0. -1.
        -11    1    3    3    0    0 -0.13640704979E+02  0.74811885565E+00  0.15609139251E+02  0.20743040823E+02  0.51100000000E-03 0.  1.
        -12    1    3    3    0    0  0.10692059814E+02  0.14211015935E+02 -0.24667414039E+02  0.30409775276E+02  0.00000000000E+00 0.  1.
</event>
<event>
 7    1  0.3509180E-013  0.7246159E+02  0.7816164E-02  0.1226708E+00
        -11   -1    0    0    0    0  0.00000000000E+00  0.00000000000E+00  0.45593999997E+02  0.45594000000E+02  0.51100000000E-03 0. -1.
         11   -1    0    0    0    0 -0.00000000000E+00 -0.00000000000E+00 -0.45593999997E+02  0.45594000000E+02  0.51100000000E-03 0.  1.
    9900012    2    1    2    0    0 -0.24398373705E+01  0.13173911584E+02  0.13083342265E+02  0.72461585564E+02  0.70000019891E+02 0.  0.
        -12    1    1    2    0    0  0.24398373705E+01 -0.13173911584E+02 -0.13083342265E+02  0.18726414436E+02  0.00000000000E+00 0.  1.
         11    1    3    3    0    0 -0.25090625666E+02 -0.35757580905E+01 -0.91724879140E+00  0.25360735160E+02  0.51100000000E-03 0. -1.
        -11    1    3    3    0    0 -0.86683070027E+01  0.20150224173E+01  0.80117677863E+01  0.11974484747E+02  0.51100000000E-03 0.  1.
         12    1    3    3    0    0  0.31319095298E+02  0.14734647257E+02  0.59888232697E+01  0.35126365657E+02  0.00000000000E+00 0. -1.
</event>
<event>
 7    1  0.3509180E-013  0.7246154E+02  0.7816164E-02  0.1226708E+00
        -11   -1    0    0    0    0  0.00000000000E+00  0.00000000000E+00  0.45593999997E+02  0.45594000000E+02  0.51100000000E-03 0.  1.
         11   -1    0    0    0    0 -0.00000000000E+00 -0.00000000000E+00 -0.45593999997E+02  0.45594000000E+02  0.51100000000E-03 0. -1.
    9900012    2    1    2    0    0  0.16205466124E+02  0.71381100796E+01 -0.60918399180E+01  0.72461541141E+02  0.69999962023E+02 0.  0.
        -12    1    1    2    0    0 -0.16205466124E+02 -0.71381100796E+01  0.60918399180E+01  0.18726458859E+02  0.00000000000E+00 0.  1.
         11    1    3    3    0    0 -0.26782173993E+01  0.85035853555E+01 -0.98583624500E+01  0.13291768987E+02  0.51100000000E-03 0. -1.
        -11    1    3    3    0    0  0.12548493977E+02 -0.46280405807E+01 -0.25636468810E+02  0.28915601222E+02  0.51100000000E-03 0.  1.
         12    1    3    3    0    0  0.63351895462E+01  0.32625653048E+01  0.29402991342E+02  0.30254170933E+02  0.00000000000E+00 0. -1.
</event>
<event>
 7    1  0.3509180E-013  0.7246155E+02  0.7816164E-02  0.1226708E+00
        -11   -1    0    0    0    0  0.00000000000E+00  0.00000000000E+00  0.45593999997E+02  0.45594000000E+02  0.51100000000E-03 0.  1.
         11   -1    0    0    0    0 -0.00000000000E+00 -0.00000000000E+00 -0.45593999997E+02  0.45594000000E+02  0.51100000000E-03 0. -1.
    9900012    2    1    2    0    0  0.15866783248E+02 -0.58058630205E+01 -0.80757029337E+01  0.72461552554E+02  0.69999976890E+02 0.  0.
        -12    1    1    2    0    0 -0.15866783248E+02  0.58058630205E+01  0.80757029337E+01  0.18726447446E+02  0.00000000000E+00 0.  1.
         11    1    3    3    0    0  0.24193963024E+02  0.17345086892E+01 -0.28919335752E+01  0.24427845736E+02  0.51100000000E-03 0. -1.
        -11    1    3    3    0    0 -0.11365675044E+02  0.15042422480E+02  0.93116064354E+01  0.21027578509E+02  0.51100000000E-03 0.  1.
         12    1    3    3    0    0  0.30384952681E+01 -0.22582794189E+02 -0.14495375794E+02  0.27006128310E+02  0.00000000000E+00 0. -1.
</event>
<event>
 7    1  0.3509180E-013  0.7246161E+02  0.7816164E-02  0.1226708E+00
        -11   -1    0    0    0    0  0.00000000000E+00  0.00000000000E+00  0.45593999997E+02  0.45594000000E+02  0.51100000000E-03 0. -1.
         11   -1    0    0    0    0 -0.00000000000E+00 -0.00000000000E+00 -0.45593999997E+02  0.45594000000E+02  0.51100000000E-03 0.  1.
    9900012    2    1    2    0    0  0.74698066795E+01  0.13545125832E+02  0.10555059435E+02  0.72461608855E+02  0.70000050233E+02 0.  0.
        -12    1    1    2    0    0 -0.74698066795E+01 -0.13545125832E+02 -0.10555059435E+02  0.18726391145E+02  0.00000000000E+00 0.  1.
         11    1    3    3    0    0  0.41707995621E+01  0.87039334216E+01 -0.14507736711E+01  0.97600599640E+01  0.51100000000E-03 0. -1.
        -11    1    3    3    0    0 -0.21713911283E+02  0.16608131375E+02 -0.81096216055E+01  0.28514731874E+02  0.51100000000E-03 0.  1.
         12    1    3    3    0    0  0.25012918401E+02 -0.11766938965E+02  0.20115454712E+02  0.34186817017E+02  0.00000000000E+00 0. -1.
</event>
<event>
 7    1  0.3509180E-013  0.7246162E+02  0.7816164E-02  0.1226708E+00
        -11   -1    0    0    0    0  0.00000000000E+00  0.00000000000E+00  0.45593999997E+02  0.45594000000E+02  0.51100000000E-03 0. -1.
         11   -1    0    0    0    0 -0.00000000000E+00 -0.00000000000E+00 -0.45593999997E+02  0.45594000000E+02  0.51100000000E-03 0.  1.
    9900012    2    1    2    0    0 -0.71976403296E+01 -0.13545317246E+02  0.10742245548E+02  0.72461615271E+02  0.70000058591E+02 0.  0.
        -12    1    1    2    0    0  0.71976403296E+01  0.13545317246E+02 -0.10742245548E+02  0.18726384729E+02  0.00000000000E+00 0.  1.
         11    1    3    3    0    0 -0.17300572981E+02  0.21212374881E+02 -0.48446445216E+01  0.27798295889E+02  0.51100000000E-03 0. -1.
        -11    1    3    3    0    0  0.21799718986E+01  0.26481806483E+01  0.16316512289E+00  0.34339134152E+01  0.51100000000E-03 0.  1.
        -12    1    3    3    0    0  0.79229607526E+01 -0.37405872775E+02  0.15423724947E+02  0.41229405967E+02  0.00000000000E+00 0.  1.
</event>
<event>
 7    1  0.3509180E-013  0.7246156E+02  0.7816164E-02  0.1226708E+00
        -11   -1    0    0    0    0  0.00000000000E+00  0.00000000000E+00  0.45593999997E+02  0.45594000000E+02  0.51100000000E-03 0.  1.
         11   -1    0    0    0    0 -0.00000000000E+00 -0.00000000000E+00 -0.45593999997E+02  0.45594000000E+02  0.51100000000E-03 0. -1.
    9900012    2    1    2    0    0 -0.46498084074E+01  0.17339033517E+02 -0.53307440478E+01  0.72461557903E+02  0.69999983858E+02 0.  0.
        -12    1    1    2    0    0  0.46498084074E+01 -0.17339033517E+02  0.53307440478E+01  0.18726442097E+02  0.00000000000E+00 0.  1.
         11    1    3    3    0    0 -0.18379668475E+02  0.10205810697E+02 -0.18377537893E+02  0.27923192591E+02  0.51100000000E-03 0. -1.
        -11    1    3    3    0    0 -0.14038768247E+01  0.10641846106E+02 -0.11345823687E+02  0.15618817947E+02  0.51100000000E-03 0.  1.
        -12    1    3    3    0    0  0.15133736892E+02 -0.35086232867E+01  0.24392617532E+02  0.28919547364E+02  0.00000000000E+00 0.  1.
</event>
<event>
 7    1  0.3509180E-013  0.7246155E+02  0.7816164E-02  0.1226708E+00
        -11   -1    0    0    0    0  0.00000000000E+00  0.00000000000E+00  0.45593999997E+02  0.45594000000E+02  0.51100000000E-03 0.  1.
         11   -1    0    0    0    0 -0.00000000000E+00 -0.00000000000E+00 -0.45593999997E+02  0.45594000000E+02  0.51100000000E-03 0. -1.
    9900012    2    1    2    0    0 -0.47998099337E+01  0.16205256128E+01 -0.18028187630E+02  0.72461552716E+02  0.69999977101E+02 0.  0.
        -12    1    1    2    0    0  0.47998099337E+01 -0.16205256128E+01  0.18028187630E+02  0.18726447284E+02  0.00000000000E+00 0.  1.
         11    1    3    3    0    0 -0.41227927886E+00  0.29375865126E+01 -0.65525815082E+00  0.30378861446E+01  0.51100000000E-03 0. -1.
        -11    1    3    3    0    0  0.30917123012E+02  0.29081509665E+01 -0.34748901368E+01  0.31247411079E+02  0.51100000000E-03 0.  1.
         12    1    3    3    0    0 -0.35304653667E+02 -0.42252118662E+01 -0.13898039343E+02  0.38176255492E+02  0.00000000000E+00 0. -1.
</event>
<event>
 7    1  0.3509180E-013  0.7246148E+02  0.7816164E-02  0.1226708E+00
        -11   -1    0    0    0    0  0.00000000000E+00  0.00000000000E+00  0.45593999997E+02  0.45594000000E+02  0.51100000000E-03 0.  1.
         11   -1    0    0    0    0 -0.00000000000E+00 -0.00000000000E+00 -0.45593999997E+02  0.45594000000E+02  0.51100000000E-03 0. -1.
    9900012    2    1    2    0    0 -0.60700537823E+01  0.16428999755E+02 -0.66275893915E+01  0.72461480648E+02  0.69999883219E+02 0.  0.
        -12    1    1    2    0    0  0.60700537823E+01 -0.16428999755E+02  0.66275893915E+01  0.18726519352E+02  0.00000000000E+00 0.  1.
         11    1    3    3    0    0 -0.25655540068E+02  0.11502254726E+02 -0.27698065125E+02  0.39467599521E+02  0.51100000000E-03 0. -1.
        -11    1    3    3    0    0 -0.19220807636E+01 -0.19836120255E+01  0.17631406312E+01  0.32768546315E+01  0.51100000000E-03 0.  1.
        -12    1    3    3    0    0  0.21507567049E+02  0.69103570552E+01  0.19307335103E+02  0.29717026496E+02  0.00000000000E+00 0.  1.
</event>
<event>
 7    1  0.3509180E-013  0.7246125E+02  0.7816164E-02  0.1226709E+00
        -11   -1    0    0    0    0  0.00000000000E+00  0.00000000000E+00  0.45593999997E+02  0.45594000000E+02  0.51100000000E-03 0. -1.
         11   -1    0    0    0    0 -0.00000000000E+00 -0.00000000000E+00 -0.45593999997E+02  0.45594000000E+02  0.51100000000E-03 0.  1.
    9900012    2    1    2    0    0 -0.11756480696E+02  0.19902484307E+01  0.14440059633E+02  0.72461247762E+02  0.69999579841E+02 0.  0.
        -12    1    1    2    0    0  0.11756480696E+02 -0.19902484307E+01 -0.14440059633E+02  0.18726752238E+02  0.00000000000E+00 0.  1.
         11    1    3    3    0    0 -0.17714117047E+02 -0.35256040290E+01  0.17867140551E+02  0.25405797335E+02  0.51100000000E-03 0. -1.
        -11    1    3    3    0    0  0.62871484698E+01 -0.20170528424E+02  0.86031284178E-01  0.21127845476E+02  0.51100000000E-03 0.  1.
        -12    1    3    3    0    0 -0.32951211852E+00  0.25686380884E+02 -0.35131122020E+01  0.25927604951E+02  0.00000000000E+00 0.  1.
</event>
<event>
 7    1  0.3509180E-013  0.7246156E+02  0.7816164E-02  0.1226708E+00
        -11   -1    0    0    0    0  0.00000000000E+00  0.00000000000E+00  0.45593999997E+02  0.45594000000E+02  0.51100000000E-03 0.  1.
         11   -1    0    0    0    0 -0.00000000000E+00 -0.00000000000E+00 -0.45593999997E+02  0.45594000000E+02  0.51100000000E-03 0. -1.
    9900012    2    1    2    0    0  0.12835537019E+02  0.98864571962E+01 -0.93907617410E+01  0.72461562738E+02  0.69999990156E+02 0.  0.
        -12    1    1    2    0    0 -0.12835537019E+02 -0.98864571962E+01  0.93907617410E+01  0.18726437262E+02  0.00000000000E+00 0.  1.
         11    1    3    3    0    0  0.15673830543E+02  0.29530454609E+02 -0.67669697427E+01  0.34110241762E+02  0.51100000000E-03 0. -1.
        -11    1    3    3    0    0  0.14106916749E+02 -0.47514846188E+01  0.28057134719E+01  0.15147730344E+02  0.51100000000E-03 0.  1.
         12    1    3    3    0    0 -0.16945210273E+02 -0.14892512794E+02 -0.54295054702E+01  0.23203590631E+02  0.00000000000E+00 0. -1.
</event>
<event>
 7    1  0.3509180E-013  0.7246159E+02  0.7816164E-02  0.1226708E+00
        -11   -1    0    0    0    0  0.00000000000E+00  0.00000000000E+00  0.45593999997E+02  0.45594000000E+02  0.51100000000E-03 0.  1.
         11   -1    0    0    0    0 -0.00000000000E+00 -0.00000000000E+00 -0.45593999997E+02  0.45594000000E+02  0.51100000000E-03 0. -1.
    9900012    2    1    2    0    0 -0.52736303465E+01 -0.96780032864E+01 -0.15139471157E+02  0.72461587862E+02  0.70000022885E+02 0.  0.
        -12    1    1    2    0    0  0.52736303465E+01  0.96780032864E+01  0.15139471157E+02  0.18726412138E+02  0.00000000000E+00 0.  1.
         11    1    3    3    0    0  0.10648662489E+01  0.22499715745E+02  0.43663980202E+01  0.22944205819E+02  0.51100000000E-03 0. -1.
        -11    1    3    3    0    0  0.82237496839E+01  0.89163302078E+00  0.36568471932E+00  0.82800237851E+01  0.51100000000E-03 0.  1.
        -12    1    3    3    0    0 -0.14562246279E+02 -0.33069352052E+02 -0.19871553897E+02  0.41237358258E+02  0.00000000000E+00 0.  1.
</event>
<event>
 7    1  0.3509180E-013  0.7246158E+02  0.7816164E-02  0.1226708E+00
        -11   -1    0    0    0    0  0.00000000000E+00  0.00000000000E+00  0.45593999997E+02  0.45594000000E+02  0.51100000000E-03 0.  1.
         11   -1    0    0    0    0 -0.00000000000E+00 -0.00000000000E+00 -0.45593999997E+02  0.45594000000E+02  0.51100000000E-03 0. -1.
    9900012    2    1    2    0    0 -0.13824051798E+01 -0.17981085857E+02 -0.50446215335E+01  0.72461582855E+02  0.70000016362E+02 0.  0.
        -12    1    1    2    0    0  0.13824051798E+01  0.17981085857E+02  0.50446215335E+01  0.18726417145E+02  0.00000000000E+00 0.  1.
         11    1    3    3    0    0  0.24620685247E+02 -0.23767463622E+01 -0.19475655623E+02  0.31482189052E+02  0.51100000000E-03 0. -1.
        -11    1    3    3    0    0  0.22380835933E+01 -0.90257940551E+01  0.25492917240E+01  0.96422437768E+01  0.51100000000E-03 0.  1.
        -12    1    3    3    0    0 -0.28241174020E+02 -0.65785454400E+01  0.11881742365E+02  0.31337150026E+02  0.00000000000E+00 0.  1.
</event>
<event>
 7    1  0.3509180E-013  0.7246154E+02  0.7816164E-02  0.1226708E+00
        -11   -1    0    0    0    0  0.00000000000E+00  0.00000000000E+00  0.45593999997E+02  0.45594000000E+02  0.51100000000E-03 0.  1.
         11   -1    0    0    0    0 -0.00000000000E+00 -0.00000000000E+00 -0.45593999997E+02  0.45594000000E+02  0.51100000000E-03 0. -1.
    9900012    2    1    2    0    0 -0.33415454363E+01  0.14919485209E+01 -0.18365414905E+02  0.72461540086E+02  0.69999960648E+02 0.  0.
        -12    1    1    2    0    0  0.33415454363E+01 -0.14919485209E+01  0.18365414905E+02  0.18726459914E+02  0.00000000000E+00 0.  1.
         11    1    3    3    0    0  0.46105819675E+01 -0.29810726846E+01 -0.17193018803E+02  0.18048383757E+02  0.51100000000E-03 0. -1.
        -11    1    3    3    0    0  0.17093514002E+02 -0.12129110536E+01  0.16059110062E+02  0.23485195132E+02  0.51100000000E-03 0.  1.
         12    1    3    3    0    0 -0.25045641405E+02  0.56859322591E+01 -0.17231506165E+02  0.30927961196E+02  0.00000000000E+00 0. -1.
</event>
<event>
 7    1  0.3509180E-013  0.7246161E+02  0.7816164E-02  0.1226708E+00
        -11   -1    0    0    0    0  0.00000000000E+00  0.00000000000E+00  0.45593999997E+02  0.45594000000E+02  0.51100000000E-03 0.  1.
         11   -1    0    0    0    0 -0.00000000000E+00 -0.00000000000E+00 -0.45593999997E+02  0.45594000000E+02  0.51100000000E-03 0. -1.
    9900012    2    1    2    0    0  0.11870770023E+02  0.34611514093E+01 -0.14063537934E+02  0.72461605546E+02  0.70000045922E+02 0.  0.
        -12    1    1    2    0    0 -0.11870770023E+02 -0.34611514093E+01  0.14063537934E+02  0.18726394454E+02  0.00000000000E+00 0.  1.
         11    1    3    3    0    0  0.18165828419E+02  0.24195585123E+01 -0.27439364849E+02  0.32996519955E+02  0.51100000000E-03 0. -1.
        -11    1    3    3    0    0 -0.10615844451E+02 -0.27439669743E+01 -0.10335321096E+02  0.15067991591E+02  0.51100000000E-03 0.  1.
        -12    1    3    3    0    0  0.43207860541E+01  0.37855598713E+01  0.23711148011E+02  0.24397094000E+02  0.00000000000E+00 0.  1.
</event>
<event>
 7    1  0.3509180E-013  0.7246135E+02  0.7816164E-02  0.1226709E+00
        -11   -1    0    0    0    0  0.00000000000E+00  0.00000000000E+00  0.45593999997E+02  0.45594000000E+02  0.51100000000E-03 0.  1.
         11   -1    0    0    0    0 -0.00000000000E+00 -0.00000000000E+00 -0.45593999997E+02  0.45594000000E+02  0.51100000000E-03 0. -1.
    9900012    2    1    2    0    0  0.55614571650E+01 -0.16133024900E+02 -0.77125394015E+01  0.72461346208E+02  0.69999708085E+02 0.  0.
        -12    1    1    2    0    0 -0.55614571650E+01  0.16133024900E+02  0.77125394015E+01  0.18726653792E+02  0.00000000000E+00 0.  1.
         11    1    3    3    0    0  0.65183697287E+01 -0.14070935408E+02  0.67630556993E+01  0.16918016723E+02  0.51100000000E-03 0. -1.
        -11    1    3    3    0    0 -0.10045956874E+02 -0.21276873934E+02 -0.22754309578E+02  0.32732021303E+02  0.51100000000E-03 0.  1.
        -12    1    3    3    0    0  0.90890443099E+01  0.19214784442E+02  0.82787144775E+01  0.22811308183E+02  0.00000000000E+00 0.  1.
</event>
<event>
 7    1  0.3509180E-013  0.7246157E+02  0.7816164E-02  0.1226708E+00
        -11   -1    0    0    0    0  0.00000000000E+00  0.00000000000E+00  0.45593999997E+02  0.45594000000E+02  0.51100000000E-03 0. -1.
         11   -1    0    0    0    0 -0.00000000000E+00 -0.00000000000E+00 -0.45593999997E+02  0.45594000000E+02  0.51100000000E-03 0.  1.
    9900012    2    1    2    0    0 -0.16179326388E+02  0.77654675388E+01  0.53484604749E+01  0.72461571672E+02  0.70000001795E+02 0.  0.
        -12    1    1    2    0    0  0.16179326388E+02 -0.77654675388E+01 -0.53484604749E+01  0.18726428328E+02  0.00000000000E+00 0.  1.
         11    1    3    3    0    0 -0.24174314171E+02  0.10123617551E+02  0.12017170726E+02  0.28832230064E+02  0.51100000000E-03 0. -1.
        -11    1    3    3    0    0  0.12341144686E+02 -0.16295573792E+02  0.88924344865E+01  0.22291813940E+02  0.51100000000E-03 0.  1.
        -12    1    3    3    0    0 -0.43461569038E+01  0.13937423780E+02 -0.15561144738E+02  0.21337527668E+02  0.00000000000E+00 0.  1.
</event>
<event>
 7    1  0.3509180E-013  0.7246162E+02  0.7816164E-02  0.1226708E+00
        -11   -1    0    0    0    0  0.00000000000E+00  0.00000000000E+00  0.45593999997E+02  0.45594000000E+02  0.51100000000E-03 0. -1.
         11   -1    0    0    0    0 -0.00000000000E+00 -0.00000000000E+00 -0.45593999997E+02  0.45594000000E+02  0.51100000000E-03 0.  1.
    9900012    2    1    2    0    0  0.12911669382E+02  0.23995693017E+01  0.13349467028E+02  0.72461617301E+02  0.70000061234E+02 0.  0.
        -12    1    1    2    0    0 -0.12911669382E+02 -0.23995693017E+01 -0.13349467028E+02  0.18726382699E+02  0.00000000000E+00 0.  1.
         11    1    3    3    0    0  0.79733459533E+01  0.67261425285E+01 -0.16369962829E+02  0.19411103067E+02  0.51100000000E-03 0. -1.
        -11    1    3    3    0    0 -0.19046616440E+02 -0.10124621508E+01  0.86059103288E+01  0.20925113387E+02  0.51100000000E-03 0.  1.
         12    1    3    3    0    0  0.23984939869E+02 -0.33141110760E+01  0.21113519528E+02  0.32125400847E+02  0.00000000000E+00 0. -1.
</event>
<event>
 7    1  0.3509180E-013  0.7246154E+02  0.7816164E-02  0.1226708E+00
        -11   -1    0    0    0    0  0.00000000000E+00  0.00000000000E+00  0.45593999997E+02  0.45594000000E+02  0.51100000000E-03 0. -1.
         11   -1    0    0    0    0 -0.00000000000E+00 -0.00000000000E+00 -0.45593999997E+02  0.45594000000E+02  0.51100000000E-03 0.  1.
    9900012    2    1    2    0    0 -0.11928673714E+01  0.12892678055E+02  0.13529086146E+02  0.72461541393E+02  0.69999962351E+02 0.  0.
        -12    1    1    2    0    0  0.11928673714E+01 -0.12892678055E+02 -0.13529086146E+02  0.18726458607E+02  0.00000000000E+00 0.  1.
         11    1    3    3    0    0 -0.17096402084E+02  0.20048263903E+02  0.20177339146E+01  0.26425198204E+02  0.51100000000E-03 0. -1.
        -11    1    3    3    0    0 -0.35913190952E+01  0.14464318471E+02  0.73888042386E+01  0.16634557704E+02  0.51100000000E-03 0.  1.
        -12    1    3    3    0    0  0.19494853808E+02 -0.21619904319E+02  0.41225479933E+01  0.29401785485E+02  0.00000000000E+00 0.  1.
</event>
<event>
 7    1  0.3509180E-013  0.7246159E+02  0.7816164E-02  0.1226708E+00
        -11   -1    0    0    0    0  0.00000000000E+00  0.00000000000E+00  0.45593999997E+02  0.45594000000E+02  0.51100000000E-03 0.  1.
         11   -1    0    0    0    0 -0.00000000000E+00 -0.00000000000E+00 -0.45593999997E+02  0.45594000000E+02  0.51100000000E-03 0. -1.
    9900012    2    1    2    0    0  0.11590936283E+02 -0.13692954457E+02 -0.53695007325E+01  0.72461592341E+02  0.70000028720E+02 0.  0.
        -12    1    1    2    0    0 -0.11590936283E+02  0.13692954457E+02  0.53695007325E+01  0.18726407659E+02  0.00000000000E+00 0.  1.
         11    1    3    3    0    0  0.19510025317E+02 -0.20772522831E+02  0.14389554912E+02  0.31924881887E+02  0.51100000000E-03 0. -1.
        -11    1    3    3    0    0  0.12682274747E+02 -0.19049086509E+01 -0.57638565099E+01  0.14060256464E+02  0.51100000000E-03 0.  1.
        -12    1    3    3    0    0 -0.20601363781E+02  0.89844770251E+01 -0.13995199135E+02  0.26476453990E+02  0.00000000000E+00 0.  1.
</event>
<event>
 7    1  0.3694897E-013  0.7246161E+02  0.7816164E-02  0.1226708E+00
        -11   -1    0    0    0    0  0.00000000000E+00  0.00000000000E+00  0.45593999997E+02  0.45594000000E+02  0.51100000000E-03 0. -1.
         11   -1    0    0    0    0 -0.00000000000E+00 -0.00000000000E+00 -0.45593999997E+02  0.45594000000E+02  0.51100000000E-03 0.  1.
    9900012    2    1    2    0    0  0.82500009919E+01 -0.59438558343E+01  0.15725316792E+02  0.72461614156E+02  0.70000057138E+02 0.  0.
        -12    1    1    2    0    0 -0.82500009919E+01  0.59438558343E+01 -0.15725316792E+02  0.18726385844E+02  0.00000000000E+00 0.  1.
         11    1    3    3    0    0 -0.42822085093E+01 -0.64239054101E+01  0.72315381022E+01  0.10578233029E+02  0.51100000000E-03 0. -1.
        -11    1    3    3    0    0  0.20512730175E+02 -0.21276549853E+02 -0.11065889029E+02  0.31558161751E+02  0.51100000000E-03 0.  1.
         12    1    3    3    0    0 -0.79805206735E+01  0.21756599429E+02  0.19559667719E+02  0.30325219376E+02  0.00000000000E+00 0. -1.
</event>
<event>
 7    1  0.3509180E-013  0.7246159E+02  0.7816164E-02  0.1226708E+00
        -11   -1    0    0    0    0  0.00000000000E+00  0.00000000000E+00  0.45593999997E+02  0.45594000000E+02  0.51100000000E-03 0. -1.
         11   -1    0    0    0    0 -0.00000000000E+00 -0.00000000000E+00 -0.45593999997E+02  0.45594000000E+02  0.51100000000E-03 0.  1.
    9900012    2    1    2    0    0  0.79581218821E+01 -0.14322471178E+02  0.90671666523E+01  0.72461590957E+02  0.70000026917E+02 0.  0.
        -12    1    1    2    0    0 -0.79581218821E+01  0.14322471178E+02 -0.90671666523E+01  0.18726409043E+02  0.00000000000E+00 0.  1.
         11    1    3    3    0    0  0.47704312498E+01 -0.17420958525E+02  0.12224633683E+02  0.21810283794E+02  0.51100000000E-03 0. -1.
        -11    1    3    3    0    0  0.24605339838E+01 -0.39286528737E+01  0.23048370486E+02  0.23509911170E+02  0.51100000000E-03 0.  1.
        -12    1    3    3    0    0  0.72715664838E+00  0.70271402200E+01 -0.26205837517E+02  0.27141395993E+02  0.00000000000E+00 0.  1.
</event>
<event>
 7    1  0.3509180E-013  0.7246159E+02  0.7816164E-02  0.1226708E+00
        -11   -1    0    0    0    0  0.00000000000E+00  0.00000000000E+00  0.45593999997E+02  0.45594000000E+02  0.51100000000E-03 0.  1.
         11   -1    0    0    0    0 -0.00000000000E+00 -0.00000000000E+00 -0.45593999997E+02  0.45594000000E+02  0.51100000000E-03 0. -1.
    9900012    2    1    2    0    0 -0.12182015476E+02  0.57946379030E+01 -0.12988425180E+02  0.72461587687E+02  0.70000022657E+02 0.  0.
        -12    1    1    2    0    0  0.12182015476E+02 -0.57946379030E+01  0.12988425180E+02  0.18726412313E+02  0.00000000000E+00 0.  1.
         11    1    3    3    0    0  0.28552614523E+01  0.21048657450E+02 -0.19122219256E+02  0.28580723713E+02  0.51100000000E-03 0. -1.
        -11    1    3    3    0    0  0.10491085409E+02 -0.71642143536E+01 -0.65006881875E+01  0.14270521628E+02  0.51100000000E-03 0.  1.
        -12    1    3    3    0    0 -0.25528362338E+02 -0.80898051933E+01  0.12634482264E+02  0.29610342345E+02  0.00000000000E+00 0.  1.
</event>
<event>
 7    1  0.3509180E-013  0.7246154E+02  0.7816164E-02  0.1226708E+00
        -11   -1    0    0    0    0  0.00000000000E+00  0.00000000000E+00  0.45593999997E+02  0.45594000000E+02  0.51100000000E-03 0.  1.
         11   -1    0    0    0    0 -0.00000000000E+00 -0.00000000000E+00 -0.45593999997E+02  0.45594000000E+02  0.51100000000E-03 0. -1.
    9900012    2    1    2    0    0 -0.91156451189E+01  0.43621637476E+01 -0.15765689146E+02  0.72461537100E+02  0.69999956758E+02 0.  0.
        -12    1    1    2    0    0  0.91156451189E+01 -0.43621637476E+01  0.15765689146E+02  0.18726462900E+02  0.00000000000E+00 0.  1.
         11    1    3    3    0    0 -0.22468398480E+01  0.59580811529E+01  0.68687311244E+01  0.93662419277E+01  0.51100000000E-03 0. -1.
        -11    1    3    3    0    0 -0.21524980886E+02 -0.23584165698E+02 -0.81203731094E+01  0.32946595173E+02  0.51100000000E-03 0.  1.
         12    1    3    3    0    0  0.14656175615E+02  0.21988248293E+02 -0.14514047161E+02  0.30148699999E+02  0.00000000000E+00 0. -1.
</event>
<event>
 7    1  0.3509180E-013  0.7246158E+02  0.7816164E-02  0.1226708E+00
        -11   -1    0    0    0    0  0.00000000000E+00  0.00000000000E+00  0.45593999997E+02  0.45594000000E+02  0.51100000000E-03 0. -1.
         11   -1    0    0    0    0 -0.00000000000E+00 -0.00000000000E+00 -0.45593999997E+02  0.45594000000E+02  0.51100000000E-03 0.  1.
    9900012    2    1    2    0    0  0.14122942733E+02 -0.85628723288E+01 -0.88260204746E+01  0.72461576653E+02  0.70000008283E+02 0.  0.
        -12    1    1    2    0    0 -0.14122942733E+02  0.85628723288E+01  0.88260204746E+01  0.18726423347E+02  0.00000000000E+00 0.  1.
         11    1    3    3    0    0  0.52705784180E+01  0.75072687776E+01  0.13624422333E+02  0.16424462412E+02  0.51100000000E-03 0. -1.
        -11    1    3    3    0    0  0.26212177159E+02  0.62989548269E+00 -0.60889101537E+01  0.26917463232E+02  0.51100000000E-03 0.  1.
         12    1    3    3    0    0 -0.17359812844E+02 -0.16700036589E+02 -0.16361532654E+02  0.29119651008E+02  0.00000000000E+00 0. -1.
</event>
<event>
 7    1  0.3509180E-013  0.7246155E+02  0.7816164E-02  0.1226708E+00
        -11   -1    0    0    0    0  0.00000000000E+00  0.00000000000E+00  0.45593999997E+02  0.45594000000E+02  0.51100000000E-03 0.  1.
         11   -1    0    0    0    0 -0.00000000000E+00 -0.00000000000E+00 -0.45593999997E+02  0.45594000000E+02  0.51100000000E-03 0. -1.
    9900012    2    1    2    0    0 -0.82535809681E+01  0.99487994642E+01  0.13549152675E+02  0.72461554855E+02  0.69999979887E+02 0.  0.
        -12    1    1    2    0    0  0.82535809681E+01 -0.99487994642E+01 -0.13549152675E+02  0.18726445145E+02  0.00000000000E+00 0.  1.
         11    1    3    3    0    0  0.56531069068E+01  0.54499573124E+01  0.20832242869E+01  0.81240061606E+01  0.51100000000E-03 0. -1.
        -11    1    3    3    0    0  0.21733642536E+02 -0.29820522076E+01  0.16667642453E+02  0.27550937524E+02  0.51100000000E-03 0.  1.
         12    1    3    3    0    0 -0.35640330411E+02  0.74808943594E+01 -0.52017140648E+01  0.36786611171E+02  0.00000000000E+00 0. -1.
</event>
<event>
 7    1  0.3509180E-013  0.7246160E+02  0.7816164E-02  0.1226708E+00
        -11   -1    0    0    0    0  0.00000000000E+00  0.00000000000E+00  0.45593999997E+02  0.45594000000E+02  0.51100000000E-03 0. -1.
         11   -1    0    0    0    0 -0.00000000000E+00 -0.00000000000E+00 -0.45593999997E+02  0.45594000000E+02  0.51100000000E-03 0.  1.
    9900012    2    1    2    0    0  0.10035961287E+02  0.39373856791E+01  0.15311910655E+02  0.72461597974E+02  0.70000036057E+02 0.  0.
        -12    1    1    2    0    0 -0.10035961287E+02 -0.39373856791E+01 -0.15311910655E+02  0.18726402026E+02  0.00000000000E+00 0.  1.
         11    1    3    3    0    0  0.21560800883E+02 -0.10185093122E+01 -0.14215908156E+02  0.25845648394E+02  0.51100000000E-03 0. -1.
        -11    1    3    3    0    0 -0.87119998566E+01 -0.47691693944E+01 -0.46526729868E+01  0.10967738345E+02  0.51100000000E-03 0.  1.
         12    1    3    3    0    0 -0.28128397393E+01  0.97250643857E+01  0.34180491798E+02  0.35648211235E+02  0.00000000000E+00 0. -1.
</event>
<event>
 7    1  0.3509180E-013  0.7246156E+02  0.7816164E-02  0.1226708E+00
        -11   -1    0    0    0    0  0.00000000000E+00  0.00000000000E+00  0.45593999997E+02  0.45594000000E+02  0.51100000000E-03 0. -1.
         11   -1    0    0    0    0 -0.00000000000E+00 -0.00000000000E+00 -0.45593999997E+02  0.45594000000E+02  0.51100000000E-03 0.  1.
    9900012    2    1    2    0    0 -0.46229870931E+01 -0.62243641251E+01  0.17045964585E+02  0.72461558078E+02  0.69999984085E+02 0.  0.
        -12    1    1    2    0    0  0.46229870931E+01  0.62243641251E+01 -0.17045964585E+02  0.18726441922E+02  0.00000000000E+00 0.  1.
         11    1    3    3    0    0 -0.14605949500E+02  0.12296832452E+02 -0.12728134339E+00  0.19093508058E+02  0.51100000000E-03 0. -1.
        -11    1    3    3    0    0 -0.14018860762E+02 -0.75119606996E+01  0.21361028085E+02  0.26631776729E+02  0.51100000000E-03 0.  1.
         12    1    3    3    0    0  0.24001823170E+02 -0.11009235878E+02 -0.41877821562E+01  0.26736273291E+02  0.00000000000E+00 0. -1.
</event>
<event>
 7    1  0.3509180E-013  0.7246163E+02  0.7816164E-02  0.1226708E+00
        -11   -1    0    0    0    0  0.00000000000E+00  0.00000000000E+00  0.45593999997E+02  0.45594000000E+02  0.51100000000E-03 0. -1.
         11   -1    0    0    0    0 -0.00000000000E+00 -0.00000000000E+00 -0.45593999997E+02  0.45594000000E+02  0.51100000000E-03 0.  1.
    9900012    2    1    2    0    0 -0.42235194597E+01  0.10849177417E+02  0.14667446977E+02  0.72461634414E+02  0.70000083528E+02 0.  0.
        -12    1    1    2    0    0  0.42235194597E+01 -0.10849177417E+02 -0.14667446977E+02  0.18726365586E+02  0.00000000000E+00 0.  1.
         11    1    3    3    0    0  0.22616974233E+02 -0.22183174429E+01  0.32957999961E+01  0.22963247889E+02  0.51100000000E-03 0. -1.
        -11    1    3    3    0    0  0.61390190845E+01  0.12636636305E+02  0.84325610807E+01  0.16385366003E+02  0.51100000000E-03 0.  1.
         12    1    3    3    0    0 -0.32979512778E+02  0.43085855492E+00  0.29390859001E+01  0.33113020522E+02  0.00000000000E+00 0. -1.
</event>
<event>
 7    1  0.3509180E-013  0.7246154E+02  0.7816164E-02  0.1226708E+00
        -11   -1    0    0    0    0  0.00000000000E+00  0.00000000000E+00  0.45593999997E+02  0.45594000000E+02  0.51100000000E-03 0.  1.
         11   -1    0    0    0    0 -0.00000000000E+00 -0.00000000000E+00 -0.45593999997E+02  0.45594000000E+02  0.51100000000E-03 0. -1.
    9900012    2    1    2    0    0 -0.22906122000E+01 -0.60604624695E+01 -0.17569977366E+02  0.72461542400E+02  0.69999963663E+02 0.  0.
        -12    1    1    2    0    0  0.22906122000E+01  0.60604624695E+01  0.17569977366E+02  0.18726457600E+02  0.00000000000E+00 0.  1.
         11    1    3    3    0    0  0.27147067532E+01 -0.10108759130E+02  0.39149848772E+01  0.11175139854E+02  0.51100000000E-03 0. -1.
        -11    1    3    3    0    0  0.79875174578E+01  0.28297357148E+02 -0.71272169436E+01  0.30254554670E+02  0.51100000000E-03 0.  1.
         12    1    3    3    0    0 -0.12992836411E+02 -0.24249060487E+02 -0.14357745300E+02  0.31031847876E+02  0.00000000000E+00 0. -1.
</event>
<event>
 7    1  0.3509180E-013  0.7246164E+02  0.7816164E-02  0.1226708E+00
        -11   -1    0    0    0    0  0.00000000000E+00  0.00000000000E+00  0.45593999997E+02  0.45594000000E+02  0.51100000000E-03 0.  1.
         11   -1    0    0    0    0 -0.00000000000E+00 -0.00000000000E+00 -0.45593999997E+02  0.45594000000E+02  0.51100000000E-03 0. -1.
    9900012    2    1    2    0    0  0.11202493357E+02 -0.10851818247E+02  0.10364307501E+02  0.72461636588E+02  0.70000086359E+02 0.  0.
        -12    1    1    2    0    0 -0.11202493357E+02  0.10851818247E+02 -0.10364307501E+02  0.18726363412E+02  0.00000000000E+00 0.  1.
         11    1    3    3    0    0  0.11886269191E+02  0.16114433448E+01  0.14719268166E+02  0.18987811895E+02  0.51100000000E-03 0.  1.
        -11    1    3    3    0    0 -0.16089325622E+02  0.12017501422E+02  0.85180711960E+01  0.21813855152E+02  0.51100000000E-03 0. -1.
         12    1    3    3    0    0  0.15405549789E+02 -0.24480763014E+02 -0.12873031861E+02  0.31659969541E+02  0.00000000000E+00 0. -1.
</event>
<event>
 7    1  0.3509180E-013  0.7246166E+02  0.7816164E-02  0.1226708E+00
        -11   -1    0    0    0    0  0.00000000000E+00  0.00000000000E+00  0.45593999997E+02  0.45594000000E+02  0.51100000000E-03 0. -1.
         11   -1    0    0    0    0 -0.00000000000E+00 -0.00000000000E+00 -0.45593999997E+02  0.45594000000E+02  0.51100000000E-03 0.  1.
    9900012    2    1    2    0    0 -0.12802675140E+02 -0.51329093316E+01  0.12665731155E+02  0.72461655064E+02  0.70000110429E+02 0.  0.
        -12    1    1    2    0    0  0.12802675140E+02  0.51329093316E+01 -0.12665731155E+02  0.18726344936E+02  0.00000000000E+00 0.  1.
         11    1    3    3    0    0  0.17074937552E+00  0.13900699149E+02 -0.16874974330E+02  0.21863745129E+02  0.51100000000E-03 0. -1.
        -11    1    3    3    0    0 -0.78407830115E+01 -0.12026838344E+02 -0.48292988460E+01  0.15147436958E+02  0.51100000000E-03 0.  1.
         12    1    3    3    0    0 -0.51326415041E+01 -0.70067701367E+01  0.34370004332E+02  0.35450472977E+02  0.00000000000E+00 0. -1.
</event>
<event>
 7    1  0.3509180E-013  0.7246162E+02  0.7816164E-02  0.1226708E+00
        -11   -1    0    0    0    0  0.00000000000E+00  0.00000000000E+00  0.45593999997E+02  0.45594000000E+02  0.51100000000E-03 0.  1.
         11   -1    0    0    0    0 -0.00000000000E+00 -0.00000000000E+00 -0.45593999997E+02  0.45594000000E+02  0.51100000000E-03 0. -1.
    9900012    2    1    2    0    0 -0.36683365437E+01  0.18298352949E+02  0.15462673970E+01  0.72461618702E+02  0.70000063060E+02 0.  0.
        -12    1    1    2    0    0  0.36683365437E+01 -0.18298352949E+02 -0.15462673970E+01  0.18726381298E+02  0.00000000000E+00 0.  1.
         11    1    3    3    0    0 -0.16199716163E+01 -0.13843852318E+02 -0.22102842619E+01  0.14112473625E+02  0.51100000000E-03 0. -1.
        -11    1    3    3    0    0 -0.15504745408E+02 -0.50128439383E+01  0.87875935289E+01  0.18513442004E+02  0.51100000000E-03 0.  1.
        -12    1    3    3    0    0  0.13456380481E+02  0.37155049205E+02 -0.50310418699E+01  0.39835703074E+02  0.00000000000E+00 0.  1.
</event>
<event>
 7    1  0.3509180E-013  0.7246160E+02  0.7816164E-02  0.1226708E+00
        -11   -1    0    0    0    0  0.00000000000E+00  0.00000000000E+00  0.45593999997E+02  0.45594000000E+02  0.51100000000E-03 0.  1.
         11   -1    0    0    0    0 -0.00000000000E+00 -0.00000000000E+00 -0.45593999997E+02  0.45594000000E+02  0.51100000000E-03 0. -1.
    9900012    2    1    2    0    0  0.30317193980E+01 -0.17926181390E+02 -0.44876254916E+01  0.72461599271E+02  0.70000037747E+02 0.  0.
        -12    1    1    2    0    0 -0.30317193980E+01  0.17926181390E+02  0.44876254916E+01  0.18726400729E+02  0.00000000000E+00 0.  1.
         11    1    3    3    0    0 -0.83086065769E-01  0.20477925318E+02  0.19207310434E+01  0.20567973566E+02  0.51100000000E-03 0.  1.
        -11    1    3    3    0    0  0.15974381104E+02 -0.74540051967E+01 -0.51080832505E+01  0.18353080392E+02  0.51100000000E-03 0. -1.
        -12    1    3    3    0    0 -0.12859575640E+02 -0.30950101511E+02 -0.13002732845E+01  0.33540545312E+02  0.00000000000E+00 0.  1.
</event>
<event>
 7    1  0.3509180E-013  0.7246157E+02  0.7816164E-02  0.1226708E+00
        -11   -1    0    0    0    0  0.00000000000E+00  0.00000000000E+00  0.45593999997E+02  0.45594000000E+02  0.51100000000E-03 0.  1.
         11   -1    0    0    0    0 -0.00000000000E+00 -0.00000000000E+00 -0.45593999997E+02  0.45594000000E+02  0.51100000000E-03 0. -1.
    9900012    2    1    2    0    0  0.10050744422E+02  0.82945861289E+01 -0.13448480364E+02  0.72461568236E+02  0.69999997319E+02 0.  0.
        -12    1    1    2    0    0 -0.10050744422E+02 -0.82945861289E+01  0.13448480364E+02  0.18726431764E+02  0.00000000000E+00 0.  1.
         11    1    3    3    0    0 -0.37442933874E+01 -0.20778584885E+01 -0.44649788477E+01  0.61865390357E+01  0.51100000000E-03 0. -1.
        -11    1    3    3    0    0  0.42076591049E+00  0.21191545888E+02 -0.31482782881E+02  0.37952921880E+02  0.51100000000E-03 0.  1.
        -12    1    3    3    0    0  0.13374271899E+02 -0.10819101270E+02  0.22499281365E+02  0.28322107320E+02  0.00000000000E+00 0.  1.
</event>
<event>
 7    1  0.3509180E-013  0.7246123E+02  0.7816164E-02  0.1226709E+00
        -11   -1    0    0    0    0  0.00000000000E+00  0.00000000000E+00  0.45593999997E+02  0.45594000000E+02  0.51100000000E-03 0.  1.
         11   -1    0    0    0    0 -0.00000000000E+00 -0.00000000000E+00 -0.45593999997E+02  0.45594000000E+02  0.51100000000E-03 0. -1.
    9900012    2    1    2    0    0  0.15124050840E+02 -0.66758377129E+01  0.87970550017E+01  0.72461230399E+02  0.69999557222E+02 0.  0.
        -12    1    1    2    0    0 -0.15124050840E+02  0.66758377129E+01 -0.87970550017E+01  0.18726769601E+02  0.00000000000E+00 0.  1.
         11    1    3    3    0    0  0.17564018426E+02  0.14439292833E+01 -0.18362994417E+02  0.25451507603E+02  0.51100000000E-03 0. -1.
        -11    1    3    3    0    0  0.11796009640E+02  0.86752776973E+01  0.42760980274E+01  0.15254222404E+02  0.51100000000E-03 0.  1.
        -12    1    3    3    0    0 -0.14235977226E+02 -0.16795044694E+02  0.22883951392E+02  0.31755500392E+02  0.00000000000E+00 0.  1.
</event>
<event>
 7    1  0.3509180E-013  0.7246152E+02  0.7816164E-02  0.1226708E+00
        -11   -1    0    0    0    0  0.00000000000E+00  0.00000000000E+00  0.45593999997E+02  0.45594000000E+02  0.51100000000E-03 0.  1.
         11   -1    0    0    0    0 -0.00000000000E+00 -0.00000000000E+00 -0.45593999997E+02  0.45594000000E+02  0.51100000000E-03 0. -1.
    9900012    2    1    2    0    0  0.42269410689E+01 -0.15114772937E+02 -0.10215564442E+02  0.72461517452E+02  0.69999931163E+02 0.  0.
        -12    1    1    2    0    0 -0.42269410689E+01  0.15114772937E+02  0.10215564442E+02  0.18726482548E+02  0.00000000000E+00 0.  1.
         11    1    3    3    0    0 -0.12503695067E+02 -0.14666553368E+01 -0.74324718482E+01  0.14619682152E+02  0.51100000000E-03 0. -1.
        -11    1    3    3    0    0 -0.15772491018E+02 -0.93577685579E-01  0.11827887651E+02  0.19714947533E+02  0.51100000000E-03 0.  1.
         12    1    3    3    0    0  0.32503127154E+02 -0.13554539915E+02 -0.14610980245E+02  0.38126887767E+02  0.00000000000E+00 0. -1.
</event>
<event>
 7    1  0.3509180E-013  0.7246143E+02  0.7816164E-02  0.1226708E+00
        -11   -1    0    0    0    0  0.00000000000E+00  0.00000000000E+00  0.45593999997E+02  0.45594000000E+02  0.51100000000E-03 0.  1.
         11   -1    0    0    0    0 -0.00000000000E+00 -0.00000000000E+00 -0.45593999997E+02  0.45594000000E+02  0.51100000000E-03 0. -1.
    9900012    2    1    2    0    0 -0.15100855078E+02  0.81738327994E+01 -0.74724147389E+01  0.72461432008E+02  0.69999819856E+02 0.  0.
        -12    1    1    2    0    0  0.15100855078E+02 -0.81738327994E+01  0.74724147389E+01  0.18726567992E+02  0.00000000000E+00 0.  1.
         11    1    3    3    0    0 -0.19230138448E+02  0.40684551970E+01  0.11855521276E+02  0.22954388195E+02  0.51100000000E-03 0. -1.
        -11    1    3    3    0    0 -0.36348060100E+01  0.14748515022E+02  0.94273868168E+01  0.17877531500E+02  0.51100000000E-03 0.  1.
         12    1    3    3    0    0  0.77640893795E+01 -0.10643137419E+02 -0.28755322832E+02  0.31629512313E+02  0.00000000000E+00 0. -1.
</event>
<event>
 7    1  0.3509180E-013  0.7246160E+02  0.7816164E-02  0.1226708E+00
        -11   -1    0    0    0    0  0.00000000000E+00  0.00000000000E+00  0.45593999997E+02  0.45594000000E+02  0.51100000000E-03 0. -1.
         11   -1    0    0    0    0 -0.00000000000E+00 -0.00000000000E+00 -0.45593999997E+02  0.45594000000E+02  0.51100000000E-03 0.  1.
    9900012    2    1    2    0    0 -0.13716025941E+02  0.11112672349E+02  0.62495612439E+01  0.72461604990E+02  0.70000045197E+02 0.  0.
        -12    1    1    2    0    0  0.13716025941E+02 -0.11112672349E+02 -0.62495612439E+01  0.18726395010E+02  0.00000000000E+00 0.  1.
         11    1    3    3    0    0 -0.24842796153E+02  0.60570234478E+01 -0.70145088897E+01  0.26515191664E+02  0.51100000000E-03 0. -1.
        -11    1    3    3    0    0  0.12960957865E+01 -0.10677481195E+02 -0.11011932127E+02  0.15393216635E+02  0.51100000000E-03 0.  1.
        -12    1    3    3    0    0  0.98306744255E+01  0.15733130096E+02  0.24276002260E+02  0.30553196690E+02  0.00000000000E+00 0.  1.
</event>
<event>
 7    1  0.3509180E-013  0.7246155E+02  0.7816164E-02  0.1226708E+00
        -11   -1    0    0    0    0  0.00000000000E+00  0.00000000000E+00  0.45593999997E+02  0.45594000000E+02  0.51100000000E-03 0. -1.
         11   -1    0    0    0    0 -0.00000000000E+00 -0.00000000000E+00 -0.45593999997E+02  0.45594000000E+02  0.51100000000E-03 0.  1.
    9900012    2    1    2    0    0  0.24588140180E+01 -0.62881605540E+01  0.17466915905E+02  0.72461551304E+02  0.69999975262E+02 0.  0.
        -12    1    1    2    0    0 -0.24588140180E+01  0.62881605540E+01 -0.17466915905E+02  0.18726448696E+02  0.00000000000E+00 0.  1.
         11    1    3    3    0    0 -0.59449752728E+01  0.14251078610E+02 -0.15990112775E+02  0.22228802922E+02  0.51100000000E-03 0. -1.
        -11    1    3    3    0    0  0.35328248086E+01  0.71849070392E+01  0.24914975675E+01  0.83851834017E+01  0.51100000000E-03 0.  1.
        -12    1    3    3    0    0  0.48709644822E+01 -0.27724146204E+02  0.30965531112E+02  0.41847564980E+02  0.00000000000E+00 0.  1.
</event>
<event>
 7    1  0.3509180E-013  0.7246154E+02  0.7816164E-02  0.1226708E+00
        -11   -1    0    0    0    0  0.00000000000E+00  0.00000000000E+00  0.45593999997E+02  0.45594000000E+02  0.51100000000E-03 0. -1.
         11   -1    0    0    0    0 -0.00000000000E+00 -0.00000000000E+00 -0.45593999997E+02  0.45594000000E+02  0.51100000000E-03 0.  1.
    9900012    2    1    2    0    0  0.35013614583E+01 -0.18363491962E+02 -0.10967642358E+01  0.72461541155E+02  0.69999962040E+02 0.  0.
        -12    1    1    2    0    0 -0.35013614583E+01  0.18363491962E+02  0.10967642358E+01  0.18726458845E+02  0.00000000000E+00 0.  1.
         11    1    3    3    0    0  0.16303425833E+02 -0.19481778165E+02  0.21427625813E+01  0.25493779753E+02  0.51100000000E-03 0. -1.
        -11    1    3    3    0    0 -0.20265820326E+02  0.57579498316E+01  0.15576297787E+02  0.26200734965E+02  0.51100000000E-03 0.  1.
         12    1    3    3    0    0  0.74637559509E+01 -0.46396636291E+01 -0.18815824604E+02  0.20767026436E+02  0.00000000000E+00 0. -1.
</event>
<event>
 7    1  0.3509180E-013  0.7246157E+02  0.7816164E-02  0.1226708E+00
        -11   -1    0    0    0    0  0.00000000000E+00  0.00000000000E+00  0.45593999997E+02  0.45594000000E+02  0.51100000000E-03 0.  1.
         11   -1    0    0    0    0 -0.00000000000E+00 -0.00000000000E+00 -0.45593999997E+02  0.45594000000E+02  0.51100000000E-03 0. -1.
    9900012    2    1    2    0    0 -0.17800665702E+02  0.46147866059E+01 -0.35382422031E+01  0.72461571810E+02  0.70000001974E+02 0.  0.
        -12    1    1    2    0    0  0.17800665702E+02 -0.46147866059E+01  0.35382422031E+01  0.18726428190E+02  0.00000000000E+00 0.  1.
         11    1    3    3    0    0 -0.77535727910E+01  0.98444396537E+01 -0.15570553634E+02  0.19986821254E+02  0.51100000000E-03 0. -1.
        -11    1    3    3    0    0 -0.16073960876E+02 -0.17216125123E+02  0.24623999325E+02  0.34075042561E+02  0.51100000000E-03 0.  1.
         12    1    3    3    0    0  0.60268679646E+01  0.11986472076E+02 -0.12591687894E+02  0.18399707995E+02  0.00000000000E+00 0. -1.
</event>
<event>
 7    1  0.3509180E-013  0.7246147E+02  0.7816164E-02  0.1226708E+00
        -11   -1    0    0    0    0  0.00000000000E+00  0.00000000000E+00  0.45593999997E+02  0.45594000000E+02  0.51100000000E-03 0.  1.
         11   -1    0    0    0    0 -0.00000000000E+00 -0.00000000000E+00 -0.45593999997E+02  0.45594000000E+02  0.51100000000E-03 0. -1.
    9900012    2    1    2    0    0 -0.17173817689E+02  0.67761152569E+01  0.31348530819E+01  0.72461466529E+02  0.69999864827E+02 0.  0.
        -12    1    1    2    0    0  0.17173817689E+02 -0.67761152569E+01 -0.31348530819E+01  0.18726533471E+02  0.00000000000E+00 0.  1.
         11    1    3    3    0    0 -0.25889384124E+02 -0.26651106410E+01  0.11357420702E+02  0.28396373541E+02  0.51100000000E-03 0. -1.
        -11    1    3    3    0    0 -0.36791945356E+01 -0.31607030510E+01  0.14492666110E+02  0.15282797108E+02  0.51100000000E-03 0.  1.
         12    1    3    3    0    0  0.12394760971E+02  0.12601928949E+02 -0.22715233729E+02  0.28782295880E+02  0.00000000000E+00 0. -1.
</event>
<event>
 7    1  0.3509180E-013  0.7246150E+02  0.7816164E-02  0.1226708E+00
        -11   -1    0    0    0    0  0.00000000000E+00  0.00000000000E+00  0.45593999997E+02  0.45594000000E+02  0.51100000000E-03 0. -1.
         11   -1    0    0    0    0 -0.00000000000E+00 -0.00000000000E+00 -0.45593999997E+02  0.45594000000E+02  0.51100000000E-03 0.  1.
    9900012    2    1    2    0    0  0.64302951900E+01  0.15583985737E+02 -0.81530552197E+01  0.72461504944E+02  0.69999914869E+02 0.  0.
        -12    1    1    2    0    0 -0.64302951900E+01 -0.15583985737E+02  0.81530552197E+01  0.18726495056E+02  0.00000000000E+00 0.  1.
         11    1    3    3    0    0  0.62275951120E+01 -0.22108397330E+01  0.23018783965E+02  0.23948594294E+02  0.51100000000E-03 0. -1.
        -11    1    3    3    0    0  0.10926768623E+02 -0.49734244237E+01 -0.10040589055E+02  0.15650643817E+02  0.51100000000E-03 0.  1.
        -12    1    3    3    0    0 -0.10724068545E+02  0.22768249893E+02 -0.21131250129E+02  0.32862266833E+02  0.00000000000E+00 0.  1.
</event>
<event>
 7    1  0.3509180E-013  0.7246151E+02  0.7816164E-02  0.1226708E+00
        -11   -1    0    0    0    0  0.00000000000E+00  0.00000000000E+00  0.45593999997E+02  0.45594000000E+02  0.51100000000E-03 0. -1.
         11   -1    0    0    0    0 -0.00000000000E+00 -0.00000000000E+00 -0.45593999997E+02  0.45594000000E+02  0.51100000000E-03 0.  1.
    9900012    2    1    2    0    0  0.15314962421E+02 -0.50792402460E+01 -0.95044641678E+01  0.72461505546E+02  0.69999915653E+02 0.  0.
        -12    1    1    2    0    0 -0.15314962421E+02  0.50792402460E+01  0.95044641678E+01  0.18726494454E+02  0.00000000000E+00 0.  1.
         11    1    3    3    0    0  0.29370512241E+02 -0.20223267713E+02  0.88245959228E+01  0.36735283309E+02  0.51100000000E-03 0. -1.
        -11    1    3    3    0    0 -0.13105247826E+01 -0.57051405332E+01 -0.14602188336E+01  0.60331039285E+01  0.51100000000E-03 0.  1.
         12    1    3    3    0    0 -0.12745025038E+02  0.20849168000E+02 -0.16868841257E+02  0.29693118308E+02  0.00000000000E+00 0. -1.
</event>
<event>
 7    1  0.3509180E-013  0.7246142E+02  0.7816164E-02  0.1226708E+00
        -11   -1    0    0    0    0  0.00000000000E+00  0.00000000000E+00  0.45593999997E+02  0.45594000000E+02  0.51100000000E-03 0. -1.
         11   -1    0    0    0    0 -0.00000000000E+00 -0.00000000000E+00 -0.45593999997E+02  0.45594000000E+02  0.51100000000E-03 0.  1.
    9900012    2    1    2    0    0 -0.14198347377E+02  0.10715462252E+02 -0.58541138419E+01  0.72461418667E+02  0.69999802478E+02 0.  0.
        -12    1    1    2    0    0  0.14198347377E+02 -0.10715462252E+02  0.58541138419E+01  0.18726581333E+02  0.00000000000E+00 0.  1.
         11    1    3    3    0    0 -0.71252134676E+01  0.21352020222E+00 -0.52933457382E+01  0.88788381672E+01  0.51100000000E-03 0. -1.
        -11    1    3    3    0    0  0.15667598220E+02  0.22904663819E+02 -0.17337333338E+02  0.32721252821E+02  0.51100000000E-03 0.  1.
         12    1    3    3    0    0 -0.22740732130E+02 -0.12402721769E+02  0.16776565234E+02  0.30861327679E+02  0.00000000000E+00 0. -1.
</event>
<event>
 7    1  0.3509180E-013  0.7246158E+02  0.7816164E-02  0.1226708E+00
        -11   -1    0    0    0    0  0.00000000000E+00  0.00000000000E+00  0.45593999997E+02  0.45594000000E+02  0.51100000000E-03 0.  1.
         11   -1    0    0    0    0 -0.00000000000E+00 -0.00000000000E+00 -0.45593999997E+02  0.45594000000E+02  0.51100000000E-03 0. -1.
    9900012    2    1    2    0    0 -0.10985010710E+02  0.32603754303E+01 -0.14811428788E+02  0.72461576663E+02  0.70000008296E+02 0.  0.
        -12    1    1    2    0    0  0.10985010710E+02 -0.32603754303E+01  0.14811428788E+02  0.18726423337E+02  0.00000000000E+00 0.  1.
         11    1    3    3    0    0  0.91807823836E+00  0.63118447161E+01 -0.20692958173E+02  0.21653654878E+02  0.51100000000E-03 0. -1.
        -11    1    3    3    0    0 -0.22290681073E+02  0.15792845643E+02  0.96305049838E+01  0.28966101959E+02  0.51100000000E-03 0.  1.
         12    1    3    3    0    0  0.10387592124E+02 -0.18844314929E+02 -0.37489755991E+01  0.21841819826E+02  0.00000000000E+00 0. -1.
</event>
<event>
 7    1  0.3509180E-013  0.7246156E+02  0.7816164E-02  0.1226708E+00
        -11   -1    0    0    0    0  0.00000000000E+00  0.00000000000E+00  0.45593999997E+02  0.45594000000E+02  0.51100000000E-03 0.  1.
         11   -1    0    0    0    0 -0.00000000000E+00 -0.00000000000E+00 -0.45593999997E+02  0.45594000000E+02  0.51100000000E-03 0. -1.
    9900012    2    1    2    0    0  0.10594332943E+02 -0.11668923896E+02  0.10113154853E+02  0.72461559428E+02  0.69999985845E+02 0.  0.
        -12    1    1    2    0    0 -0.10594332943E+02  0.11668923896E+02 -0.10113154853E+02  0.18726440572E+02  0.00000000000E+00 0.  1.
         11    1    3    3    0    0 -0.14435879378E+02 -0.33460497382E+01 -0.13288972988E+02  0.19904458435E+02  0.51100000000E-03 0. -1.
        -11    1    3    3    0    0 -0.58075461016E+01  0.77145156899E+01 -0.15362189160E+01  0.97775923862E+01  0.51100000000E-03 0.  1.
         12    1    3    3    0    0  0.30837758423E+02 -0.16037389847E+02  0.24938346757E+02  0.42779508607E+02  0.00000000000E+00 0. -1.
</event>
<event>
 7    1  0.3509180E-013  0.7246158E+02  0.7816164E-02  0.1226708E+00
        -11   -1    0    0    0    0  0.00000000000E+00  0.00000000000E+00  0.45593999997E+02  0.45594000000E+02  0.51100000000E-03 0.  1.
         11   -1    0    0    0    0 -0.00000000000E+00 -0.00000000000E+00 -0.45593999997E+02  0.45594000000E+02  0.51100000000E-03 0. -1.
    9900012    2    1    2    0    0  0.91992902502E+01 -0.16156479201E+02  0.22405734906E+01  0.72461576667E+02  0.70000008302E+02 0.  0.
        -12    1    1    2    0    0 -0.91992902502E+01  0.16156479201E+02 -0.22405734906E+01  0.18726423333E+02  0.00000000000E+00 0.  1.
         11    1    3    3    0    0  0.15056223125E+02 -0.61776492987E+01 -0.46054070564E+01  0.16913396468E+02  0.51100000000E-03 0. -1.
        -11    1    3    3    0    0  0.18601046419E+02 -0.16874523092E+02  0.14511461738E+02  0.29005705982E+02  0.51100000000E-03 0.  1.
        -12    1    3    3    0    0 -0.24457979294E+02  0.68956931895E+01 -0.76654811908E+01  0.26542474218E+02  0.00000000000E+00 0.  1.
</event>
<event>
 7    1  0.3509180E-013  0.7246157E+02  0.7816164E-02  0.1226708E+00
        -11   -1    0    0    0    0  0.00000000000E+00  0.00000000000E+00  0.45593999997E+02  0.45594000000E+02  0.51100000000E-03 0. -1.
         11   -1    0    0    0    0 -0.00000000000E+00 -0.00000000000E+00 -0.45593999997E+02  0.45594000000E+02  0.51100000000E-03 0.  1.
    9900012    2    1    2    0    0 -0.12289203444E+01 -0.11375456414E+02  0.14824576619E+02  0.72461566122E+02  0.69999994564E+02 0.  0.
        -12    1    1    2    0    0  0.12289203444E+01  0.11375456414E+02 -0.14824576619E+02  0.18726433878E+02  0.00000000000E+00 0.  1.
         11    1    3    3    0    0  0.77553905147E+01 -0.67650113442E+01 -0.78185699550E+01  0.12924453448E+02  0.51100000000E-03 0. -1.
        -11    1    3    3    0    0 -0.57785214668E+01  0.24690649563E+02  0.13185395092E+02  0.28581009957E+02  0.51100000000E-03 0.  1.
         12    1    3    3    0    0 -0.32057893923E+01 -0.29301094633E+02  0.94577514828E+01  0.30956102717E+02  0.00000000000E+00 0. -1.
</event>
<event>
 7    1  0.3509180E-013  0.7246158E+02  0.7816164E-02  0.1226708E+00
        -11   -1    0    0    0    0  0.00000000000E+00  0.00000000000E+00  0.45593999997E+02  0.45594000000E+02  0.51100000000E-03 0.  1.
         11   -1    0    0    0    0 -0.00000000000E+00 -0.00000000000E+00 -0.45593999997E+02  0.45594000000E+02  0.51100000000E-03 0. -1.
    9900012    2    1    2    0    0  0.60022763103E+01 -0.17706236200E+02  0.10679482727E+01  0.72461584572E+02  0.70000018600E+02 0.  0.
        -12    1    1    2    0    0 -0.60022763103E+01  0.17706236200E+02 -0.10679482727E+01  0.18726415428E+02  0.00000000000E+00 0.  1.
         11    1    3    3    0    0  0.16114338805E+01  0.35159829204E+01  0.32978423309E+01  0.50827767360E+01  0.51100000000E-03 0. -1.
        -11    1    3    3    0    0 -0.80748445871E+01  0.40063006651E+01  0.26000503452E+02  0.27518716179E+02  0.51100000000E-03 0.  1.
         12    1    3    3    0    0  0.12465687017E+02 -0.25228519785E+02 -0.28230397510E+02  0.39860091657E+02  0.00000000000E+00 0. -1.
</event>
<event>
 7    1  0.3509180E-013  0.7246153E+02  0.7816164E-02  0.1226708E+00
        -11   -1    0    0    0    0  0.00000000000E+00  0.00000000000E+00  0.45593999997E+02  0.45594000000E+02  0.51100000000E-03 0.  1.
         11   -1    0    0    0    0 -0.00000000000E+00 -0.00000000000E+00 -0.45593999997E+02  0.45594000000E+02  0.51100000000E-03 0. -1.
    9900012    2    1    2    0    0  0.58870556069E+01 -0.16632333222E+02  0.62760349932E+01  0.72461533505E+02  0.69999952075E+02 0.  0.
        -12    1    1    2    0    0 -0.58870556069E+01  0.16632333222E+02 -0.62760349932E+01  0.18726466495E+02  0.00000000000E+00 0.  1.
         11    1    3    3    0    0  0.11547693283E+02  0.89816685051E+00  0.20584837302E+01  0.11764067297E+02  0.51100000000E-03 0. -1.
        -11    1    3    3    0    0  0.59997102529E+01  0.19172420621E+02  0.87672741005E+01  0.21919017565E+02  0.51100000000E-03 0.  1.
        -12    1    3    3    0    0 -0.11660347929E+02 -0.36702920694E+02 -0.45497228376E+01  0.38778448643E+02  0.00000000000E+00 0.  1.
</event>
<event>
 7    1  0.3509180E-013  0.7246159E+02  0.7816164E-02  0.1226708E+00
        -11   -1    0    0    0    0  0.00000000000E+00  0.00000000000E+00  0.45593999997E+02  0.45594000000E+02  0.51100000000E-03 0.  1.
         11   -1    0    0    0    0 -0.00000000000E+00 -0.00000000000E+00 -0.45593999997E+02  0.45594000000E+02  0.51100000000E-03 0. -1.
    9900012    2    1    2    0    0  0.88849289658E+01 -0.15502981856E+02 -0.56030266250E+01  0.72461593070E+02  0.70000029669E+02 0.  0.
        -12    1    1    2    0    0 -0.88849289658E+01  0.15502981856E+02  0.56030266250E+01  0.18726406930E+02  0.00000000000E+00 0.  1.
         11    1    3    3    0    0 -0.32811975704E+01 -0.15249241450E+00 -0.75582643499E+00  0.33705764037E+01  0.51100000000E-03 0. -1.
        -11    1    3    3    0    0  0.73811467810E+01 -0.12694149991E+01  0.30149318957E+02  0.31065643017E+02  0.51100000000E-03 0.  1.
         12    1    3    3    0    0  0.47849797552E+01 -0.14081074443E+02 -0.34996519147E+02  0.38025373649E+02  0.00000000000E+00 0. -1.
</event>
<event>
 7    1  0.3509180E-013  0.7246138E+02  0.7816164E-02  0.1226709E+00
        -11   -1    0    0    0    0  0.00000000000E+00  0.00000000000E+00  0.45593999997E+02  0.45594000000E+02  0.51100000000E-03 0.  1.
         11   -1    0    0    0    0 -0.00000000000E+00 -0.00000000000E+00 -0.45593999997E+02  0.45594000000E+02  0.51100000000E-03 0. -1.
    9900012    2    1    2    0    0  0.13181018212E+02  0.21003502366E+01 -0.13135279613E+02  0.72461380371E+02  0.69999752589E+02 0.  0.
        -12    1    1    2    0    0 -0.13181018212E+02 -0.21003502366E+01  0.13135279613E+02  0.18726619629E+02  0.00000000000E+00 0.  1.
         11    1    3    3    0    0 -0.45562864397E+01  0.67681550934E+01  0.82540104851E+01  0.11605876048E+02  0.51100000000E-03 0. -1.
        -11    1    3    3    0    0  0.85567426312E+01  0.15854928508E+02  0.11236564520E+02  0.21233393156E+02  0.51100000000E-03 0.  1.
         12    1    3    3    0    0  0.91805620206E+01 -0.20522733364E+02 -0.32625854618E+02  0.39622111167E+02  0.00000000000E+00 0. -1.
</event>
<event>
 7    1  0.3509180E-013  0.7246168E+02  0.7816164E-02  0.1226708E+00
        -11   -1    0    0    0    0  0.00000000000E+00  0.00000000000E+00  0.45593999997E+02  0.45594000000E+02  0.51100000000E-03 0.  1.
         11   -1    0    0    0    0 -0.00000000000E+00 -0.00000000000E+00 -0.45593999997E+02  0.45594000000E+02  0.51100000000E-03 0. -1.
    9900012    2    1    2    0    0  0.40592668932E+01 -0.28113480928E+01 -0.18063601768E+02  0.72461680697E+02  0.70000143820E+02 0.  0.
        -12    1    1    2    0    0 -0.40592668932E+01  0.28113480928E+01  0.18063601768E+02  0.18726319303E+02  0.00000000000E+00 0.  1.
         11    1    3    3    0    0  0.96378646204E+01 -0.29981247304E+02 -0.20800343936E+02  0.37741461716E+02  0.51100000000E-03 0. -1.
        -11    1    3    3    0    0  0.67962128487E+01  0.30199208851E+01 -0.89751981539E-01  0.74375054230E+01  0.51100000000E-03 0.  1.
        -12    1    3    3    0    0 -0.12374810576E+02  0.24149978326E+02  0.28264941498E+01  0.27282713558E+02  0.00000000000E+00 0.  1.
</event>
<event>
 7    1  0.3509180E-013  0.7246157E+02  0.7816164E-02  0.1226708E+00
        -11   -1    0    0    0    0  0.00000000000E+00  0.00000000000E+00  0.45593999997E+02  0.45594000000E+02  0.51100000000E-03 0.  1.
         11   -1    0    0    0    0 -0.00000000000E+00 -0.00000000000E+00 -0.45593999997E+02  0.45594000000E+02  0.51100000000E-03 0. -1.
    9900012    2    1    2    0    0 -0.92296535589E+01 -0.49653900415E+01 -0.15518945595E+02  0.72461567466E+02  0.69999996316E+02 0.  0.
        -12    1    1    2    0    0  0.92296535589E+01  0.49653900415E+01  0.15518945595E+02  0.18726432534E+02  0.00000000000E+00 0.  1.
         11    1    3    3    0    0 -0.30032618399E+01  0.34239288328E+01 -0.36445003032E+01  0.58331169242E+01  0.51100000000E-03 0. -1.
        -11    1    3    3    0    0 -0.10370738076E+02  0.13403553537E+02  0.20990142881E+02  0.26977649158E+02  0.51100000000E-03 0.  1.
         12    1    3    3    0    0  0.41443463574E+01 -0.21792872412E+02 -0.32864588172E+02  0.39650801384E+02  0.00000000000E+00 0. -1.
</event>
<event>
 7    1  0.3509180E-013  0.7246161E+02  0.7816164E-02  0.1226708E+00
        -11   -1    0    0    0    0  0.00000000000E+00  0.00000000000E+00  0.45593999997E+02  0.45594000000E+02  0.51100000000E-03 0. -1.
         11   -1    0    0    0    0 -0.00000000000E+00 -0.00000000000E+00 -0.45593999997E+02  0.45594000000E+02  0.51100000000E-03 0.  1.
    9900012    2    1    2    0    0 -0.45342273293E+01  0.16802457507E+02  0.69134690317E+01  0.72461605531E+02  0.70000045903E+02 0.  0.
        -12    1    1    2    0    0  0.45342273293E+01 -0.16802457507E+02 -0.69134690317E+01  0.18726394469E+02  0.00000000000E+00 0.  1.
         11    1    3    3    0    0  0.16368418060E+02  0.70187306659E+01 -0.35280456267E+01  0.18155847437E+02  0.51100000000E-03 0. -1.
        -11    1    3    3    0    0 -0.27981495570E+02  0.15966137506E+02 -0.83624658776E+01  0.33283817044E+02  0.51100000000E-03 0.  1.
         12    1    3    3    0    0  0.70788501802E+01 -0.61824106656E+01  0.18803980536E+02  0.21021941050E+02  0.00000000000E+00 0. -1.
</event>
<event>
 7    1  0.3509180E-013  0.7246172E+02  0.7816164E-02  0.1226708E+00
        -11   -1    0    0    0    0  0.00000000000E+00  0.00000000000E+00  0.45593999997E+02  0.45594000000E+02  0.51100000000E-03 0.  1.
         11   -1    0    0    0    0 -0.00000000000E+00 -0.00000000000E+00 -0.45593999997E+02  0.45594000000E+02  0.51100000000E-03 0. -1.
    9900012    2    1    2    0    0 -0.10906365068E+02  0.13357174946E+02 -0.73014192973E+01  0.72461717793E+02  0.70000192145E+02 0.  0.
        -12    1    1    2    0    0  0.10906365068E+02 -0.13357174946E+02  0.73014192973E+01  0.18726282207E+02  0.00000000000E+00 0.  1.
         11    1    3    3    0    0  0.12085028102E+02  0.69355872776E+01  0.37140598816E+01  0.14420281418E+02  0.51100000000E-03 0. -1.
        -11    1    3    3    0    0  0.67554471810E+01  0.92456019334E+01  0.14689878473E+02  0.18625513457E+02  0.51100000000E-03 0.  1.
        -12    1    3    3    0    0 -0.29746840351E+02 -0.28240142650E+01 -0.25705357652E+02  0.39415922918E+02  0.00000000000E+00 0.  1.
</event>
<event>
 7    1  0.3761234E-013  0.7246156E+02  0.7816164E-02  0.1226708E+00
        -11   -1    0    0    0    0  0.00000000000E+00  0.00000000000E+00  0.45593999997E+02  0.45594000000E+02  0.51100000000E-03 0. -1.
         11   -1    0    0    0    0 -0.00000000000E+00 -0.00000000000E+00 -0.45593999997E+02  0.45594000000E+02  0.51100000000E-03 0.  1.
    9900012    2    1    2    0    0 -0.10491882240E+02 -0.10935933230E+01  0.15472689964E+02  0.72461556824E+02  0.69999982452E+02 0.  0.
        -12    1    1    2    0    0  0.10491882240E+02  0.10935933230E+01 -0.15472689964E+02  0.18726443176E+02  0.00000000000E+00 0.  1.
         11    1    3    3    0    0 -0.83184059777E+00 -0.15000290749E+01  0.32444332717E+02  0.32489640991E+02  0.51100000000E-03 0. -1.
        -11    1    3    3    0    0 -0.19787586150E+02 -0.93604259800E+01 -0.81095066615E+01  0.23343740890E+02  0.51100000000E-03 0.  1.
        -12    1    3    3    0    0  0.10127544508E+02  0.97668617319E+01 -0.88621360912E+01  0.16628174943E+02  0.00000000000E+00 0.  1.
</event>
<event>
 7    1  0.3509180E-013  0.7246158E+02  0.7816164E-02  0.1226708E+00
        -11   -1    0    0    0    0  0.00000000000E+00  0.00000000000E+00  0.45593999997E+02  0.45594000000E+02  0.51100000000E-03 0.  1.
         11   -1    0    0    0    0 -0.00000000000E+00 -0.00000000000E+00 -0.45593999997E+02  0.45594000000E+02  0.51100000000E-03 0. -1.
    9900012    2    1    2    0    0 -0.65221991396E+00  0.84959461447E+01 -0.16675498678E+02  0.72461581552E+02  0.70000014665E+02 0.  0.
        -12    1    1    2    0    0  0.65221991396E+00 -0.84959461447E+01  0.16675498678E+02  0.18726418448E+02  0.00000000000E+00 0.  1.
         11    1    3    3    0    0 -0.94706228316E+01  0.20458873840E+02 -0.29971536812E+01  0.22742936180E+02  0.51100000000E-03 0. -1.
        -11    1    3    3    0    0 -0.64287998461E+01  0.14082805942E+02 -0.11826814464E+02  0.19481489452E+02  0.51100000000E-03 0.  1.
        -12    1    3    3    0    0  0.15247202764E+02 -0.26045733637E+02 -0.18515305335E+01  0.30237155920E+02  0.00000000000E+00 0.  1.
</event>
<event>
 7    1  0.3509180E-013  0.7246145E+02  0.7816164E-02  0.1226708E+00
        -11   -1    0    0    0    0  0.00000000000E+00  0.00000000000E+00  0.45593999997E+02  0.45594000000E+02  0.51100000000E-03 0.  1.
         11   -1    0    0    0    0 -0.00000000000E+00 -0.00000000000E+00 -0.45593999997E+02  0.45594000000E+02  0.51100000000E-03 0. -1.
    9900012    2    1    2    0    0 -0.40172175599E+01  0.16289571606E+02 -0.83183897286E+01  0.72461446988E+02  0.69999839371E+02 0.  0.
        -12    1    1    2    0    0  0.40172175599E+01 -0.16289571606E+02  0.83183897286E+01  0.18726553012E+02  0.00000000000E+00 0.  1.
         11    1    3    3    0    0  0.12859840619E+02 -0.52225754742E+01 -0.31333833034E+02  0.34270393756E+02  0.51100000000E-03 0. -1.
        -11    1    3    3    0    0 -0.65836192709E+01  0.51188860214E+00  0.24358095390E+01  0.70384118248E+01  0.51100000000E-03 0.  1.
        -12    1    3    3    0    0 -0.10293438908E+02  0.21000258478E+02  0.20579633766E+02  0.31152641407E+02  0.00000000000E+00 0.  1.
</event>
<event>
 7    1  0.3509180E-013  0.7246150E+02  0.7816164E-02  0.1226708E+00
        -11   -1    0    0    0    0  0.00000000000E+00  0.00000000000E+00  0.45593999997E+02  0.45594000000E+02  0.51100000000E-03 0.  1.
         11   -1    0    0    0    0 -0.00000000000E+00 -0.00000000000E+00 -0.45593999997E+02  0.45594000000E+02  0.51100000000E-03 0. -1.
    9900012    2    1    2    0    0  0.14178253315E+02  0.78135633716E+01 -0.94131376621E+01  0.72461500053E+02  0.69999908497E+02 0.  0.
        -12    1    1    2    0    0 -0.14178253315E+02 -0.78135633716E+01  0.94131376621E+01  0.18726499947E+02  0.00000000000E+00 0.  1.
         11    1    3    3    0    0 -0.73951516469E+01 -0.86025233621E+01 -0.15923615136E+02  0.19551296513E+02  0.51100000000E-03 0. -1.
        -11    1    3    3    0    0 -0.69378361814E+01  0.84066712544E+01 -0.13363422512E+02  0.17244905159E+02  0.51100000000E-03 0.  1.
        -12    1    3    3    0    0  0.28511241144E+02  0.80094154793E+01  0.19873899986E+02  0.35665298380E+02  0.00000000000E+00 0.  1.
</event>
<event>
 7    1  0.3509180E-013  0.7246157E+02  0.7816164E-02  0.1226708E+00
        -11   -1    0    0    0    0  0.00000000000E+00  0.00000000000E+00  0.45593999997E+02  0.45594000000E+02  0.51100000000E-03 0.  1.
         11   -1    0    0    0    0 -0.00000000000E+00 -0.00000000000E+00 -0.45593999997E+02  0.45594000000E+02  0.51100000000E-03 0. -1.
    9900012    2    1    2    0    0 -0.63046213872E-01 -0.15763409067E+01 -0.18659858612E+02  0.72461570845E+02  0.70000000718E+02 0.  0.
        -12    1    1    2    0    0  0.63046213872E-01  0.15763409067E+01  0.18659858612E+02  0.18726429155E+02  0.00000000000E+00 0.  1.
         11    1    3    3    0    0 -0.78057265972E+00  0.35755582235E+01 -0.46580573086E+01  0.59238001687E+01  0.51100000000E-03 0. -1.
        -11    1    3    3    0    0  0.62209339002E+01  0.20725061365E+02  0.15720921028E+02  0.26746505293E+02  0.51100000000E-03 0.  1.
         12    1    3    3    0    0 -0.55034074544E+01 -0.25876960495E+02 -0.29722722331E+02  0.39791265384E+02  0.00000000000E+00 0. -1.
</event>
<event>
 7    1  0.3509180E-013  0.7246195E+02  0.7816164E-02  0.1226707E+00
        -11   -1    0    0    0    0  0.00000000000E+00  0.00000000000E+00  0.45593999997E+02  0.45594000000E+02  0.51100000000E-03 0. -1.
         11   -1    0    0    0    0 -0.00000000000E+00 -0.00000000000E+00 -0.45593999997E+02  0.45594000000E+02  0.51100000000E-03 0.  1.
    9900012    2    1    2    0    0  0.17406702644E+02  0.66508721429E+01 -0.18540737356E+01  0.72461948985E+02  0.70000493313E+02 0.  0.
        -12    1    1    2    0    0 -0.17406702644E+02 -0.66508721429E+01  0.18540737356E+01  0.18726051015E+02  0.00000000000E+00 0.  1.
         11    1    3    3    0    0 -0.15557397800E+02 -0.16744185727E+02  0.10078336358E+02  0.24979456478E+02  0.51100000000E-03 0. -1.
        -11    1    3    3    0    0  0.43967447024E+01 -0.19590814868E+01  0.38407079799E+01  0.61579543923E+01  0.51100000000E-03 0.  1.
        -12    1    3    3    0    0  0.28567355742E+02  0.25354139356E+02 -0.15773118074E+02  0.41324538114E+02  0.00000000000E+00 0.  1.
</event>
<event>
 7    1  0.3509180E-013  0.7246153E+02  0.7816164E-02  0.1226708E+00
        -11   -1    0    0    0    0  0.00000000000E+00  0.00000000000E+00  0.45593999997E+02  0.45594000000E+02  0.51100000000E-03 0. -1.
         11   -1    0    0    0    0 -0.00000000000E+00 -0.00000000000E+00 -0.45593999997E+02  0.45594000000E+02  0.51100000000E-03 0.  1.
    9900012    2    1    2    0    0  0.13262076224E+02 -0.13209873464E+02  0.54509817062E+00  0.72461533309E+02  0.69999951820E+02 0.  0.
        -12    1    1    2    0    0 -0.13262076224E+02  0.13209873464E+02 -0.54509817062E+00  0.18726466691E+02  0.00000000000E+00 0.  1.
         11    1    3    3    0    0  0.12076784628E+02  0.17287249054E+02  0.34039167519E+01  0.21360813569E+02  0.51100000000E-03 0. -1.
        -11    1    3    3    0    0 -0.27789402645E+01 -0.47198282934E+00 -0.17314156277E+02  0.17542100348E+02  0.51100000000E-03 0.  1.
         12    1    3    3    0    0  0.39642318598E+01 -0.30025139689E+02  0.14455337696E+02  0.33558619392E+02  0.00000000000E+00 0. -1.
</event>
<event>
 7    1  0.3509180E-013  0.7246156E+02  0.7816164E-02  0.1226708E+00
        -11   -1    0    0    0    0  0.00000000000E+00  0.00000000000E+00  0.45593999997E+02  0.45594000000E+02  0.51100000000E-03 0. -1.
         11   -1    0    0    0    0 -0.00000000000E+00 -0.00000000000E+00 -0.45593999997E+02  0.45594000000E+02  0.51100000000E-03 0.  1.
    9900012    2    1    2    0    0 -0.44984623099E+01 -0.65886539804E+01  0.16942049845E+02  0.72461559405E+02  0.69999985814E+02 0.  0.
        -12    1    1    2    0    0  0.44984623099E+01  0.65886539804E+01 -0.16942049845E+02  0.18726440595E+02  0.00000000000E+00 0.  1.
         11    1    3    3    0    0 -0.56683125844E+01 -0.26163244447E+02 -0.90623655491E+00  0.26785563136E+02  0.51100000000E-03 0. -1.
        -11    1    3    3    0    0 -0.44071198415E+01 -0.10425847543E+02  0.69033011669E+01  0.13258075636E+02  0.51100000000E-03 0.  1.
        -12    1    3    3    0    0  0.55769701160E+01  0.30000438010E+02  0.10944985233E+02  0.32417920633E+02  0.00000000000E+00 0.  1.
</event>
<event>
 7    1  0.3509180E-013  0.7246159E+02  0.7816164E-02  0.1226708E+00
        -11   -1    0    0    0    0  0.00000000000E+00  0.00000000000E+00  0.45593999997E+02  0.45594000000E+02  0.51100000000E-03 0.  1.
         11   -1    0    0    0    0 -0.00000000000E+00 -0.00000000000E+00 -0.45593999997E+02  0.45594000000E+02  0.51100000000E-03 0. -1.
    9900012    2    1    2    0    0  0.92770882505E+01  0.73167951392E+00 -0.16250497089E+02  0.72461591456E+02  0.70000027566E+02 0.  0.
        -12    1    1    2    0    0 -0.92770882505E+01 -0.73167951392E+00  0.16250497089E+02  0.18726408544E+02  0.00000000000E+00 0.  1.
         11    1    3    3    0    0 -0.14222526213E+00  0.11923533842E+02  0.14040255021E+01  0.12006755397E+02  0.51100000000E-03 0. -1.
        -11    1    3    3    0    0 -0.57282895116E+01  0.17171234297E+01  0.18358753701E+02  0.19308175763E+02  0.51100000000E-03 0.  1.
         12    1    3    3    0    0  0.15147603024E+02 -0.12908977757E+02 -0.36013276292E+02  0.41146660295E+02  0.00000000000E+00 0. -1.
</event>
<event>
 7    1  0.3509180E-013  0.7246162E+02  0.7816164E-02  0.1226708E+00
        -11   -1    0    0    0    0  0.00000000000E+00  0.00000000000E+00  0.45593999997E+02  0.45594000000E+02  0.51100000000E-03 0. -1.
         11   -1    0    0    0    0 -0.00000000000E+00 -0.00000000000E+00 -0.45593999997E+02  0.45594000000E+02  0.51100000000E-03 0.  1.
    9900012    2    1    2    0    0  0.10342323420E+02 -0.21791945723E+01  0.15458482156E+02  0.72461622527E+02  0.70000068042E+02 0.  0.
        -12    1    1    2    0    0 -0.10342323420E+02  0.21791945723E+01 -0.15458482156E+02  0.18726377473E+02  0.00000000000E+00 0.  1.
         11    1    3    3    0    0 -0.11962705927E+02  0.16099386483E+01  0.65408228477E+01  0.13728823669E+02  0.51100000000E-03 0. -1.
        -11    1    3    3    0    0  0.10834140498E+02 -0.62454319580E+01 -0.22198614919E+02  0.25478668043E+02  0.51100000000E-03 0.  1.
         12    1    3    3    0    0  0.11470888848E+02  0.24562987373E+01  0.31116274227E+02  0.33254130815E+02  0.00000000000E+00 0. -1.
</event>
<event>
 7    1  0.3509180E-013  0.7246146E+02  0.7816164E-02  0.1226708E+00
        -11   -1    0    0    0    0  0.00000000000E+00  0.00000000000E+00  0.45593999997E+02  0.45594000000E+02  0.51100000000E-03 0. -1.
         11   -1    0    0    0    0 -0.00000000000E+00 -0.00000000000E+00 -0.45593999997E+02  0.45594000000E+02  0.51100000000E-03 0.  1.
    9900012    2    1    2    0    0  0.92782730655E+01 -0.16159799907E+02  0.18594813302E+01  0.72461463883E+02  0.69999861380E+02 0.  0.
        -12    1    1    2    0    0 -0.92782730655E+01  0.16159799907E+02 -0.18594813302E+01  0.18726536117E+02  0.00000000000E+00 0.  1.
         11    1    3    3    0    0  0.46603350414E+01 -0.14068257408E+02  0.35390829465E+01  0.15236787639E+02  0.51100000000E-03 0. -1.
        -11    1    3    3    0    0 -0.19658693517E+02 -0.11759063292E+02 -0.15505635826E+02  0.27661607743E+02  0.51100000000E-03 0.  1.
         12    1    3    3    0    0  0.24276631541E+02  0.96675207929E+01  0.13826034210E+02  0.29563068501E+02  0.00000000000E+00 0. -1.
</event>
<event>
 7    1  0.3509180E-013  0.7246142E+02  0.7816164E-02  0.1226708E+00
        -11   -1    0    0    0    0  0.00000000000E+00  0.00000000000E+00  0.45593999997E+02  0.45594000000E+02  0.51100000000E-03 0.  1.
         11   -1    0    0    0    0 -0.00000000000E+00 -0.00000000000E+00 -0.45593999997E+02  0.45594000000E+02  0.51100000000E-03 0. -1.
    9900012    2    1    2    0    0 -0.84555901171E+00 -0.14414815251E+02 -0.11924051389E+02  0.72461418083E+02  0.69999801717E+02 0.  0.
        -12    1    1    2    0    0  0.84555901171E+00  0.14414815251E+02  0.11924051389E+02  0.18726581917E+02  0.00000000000E+00 0.  1.
         11    1    3    3    0    0 -0.49103243346E+01  0.15263459690E+02 -0.58449060599E+01  0.17065972398E+02  0.51100000000E-03 0. -1.
        -11    1    3    3    0    0  0.12041907040E+02 -0.48332658333E+01 -0.21480268413E+02  0.25095216977E+02  0.51100000000E-03 0.  1.
        -12    1    3    3    0    0 -0.79771417169E+01 -0.24845009108E+02  0.15401123084E+02  0.30300228708E+02  0.00000000000E+00 0.  1.
</event>
<event>
 7    1  0.3509180E-013  0.7246159E+02  0.7816164E-02  0.1226708E+00
        -11   -1    0    0    0    0  0.00000000000E+00  0.00000000000E+00  0.45593999997E+02  0.45594000000E+02  0.51100000000E-03 0. -1.
         11   -1    0    0    0    0 -0.00000000000E+00 -0.00000000000E+00 -0.45593999997E+02  0.45594000000E+02  0.51100000000E-03 0.  1.
    9900012    2    1    2    0    0 -0.99164016922E+01  0.72176246218E+01  0.14150944299E+02  0.72461592116E+02  0.70000028427E+02 0.  0.
        -12    1    1    2    0    0  0.99164016922E+01 -0.72176246218E+01 -0.14150944299E+02  0.18726407884E+02  0.00000000000E+00 0.  1.
         11    1    3    3    0    0 -0.10318599556E+02  0.30088421222E+02  0.13861764273E+02  0.34697767903E+02  0.51100000000E-03 0. -1.
        -11    1    3    3    0    0 -0.28170163956E+01  0.64600142283E+01 -0.37476928303E+01  0.79820152226E+01  0.51100000000E-03 0.  1.
        -12    1    3    3    0    0  0.32192142593E+01 -0.29330810828E+02  0.40368728560E+01  0.29781808990E+02  0.00000000000E+00 0.  1.
</event>
<event>
 7    1  0.3509180E-013  0.7246160E+02  0.7816164E-02  0.1226708E+00
        -11   -1    0    0    0    0  0.00000000000E+00  0.00000000000E+00  0.45593999997E+02  0.45594000000E+02  0.51100000000E-03 0.  1.
         11   -1    0    0    0    0 -0.00000000000E+00 -0.00000000000E+00 -0.45593999997E+02  0.45594000000E+02  0.51100000000E-03 0. -1.
    9900012    2    1    2    0    0 -0.91575533473E+01 -0.52993785104E+01 -0.15451017607E+02  0.72461597756E+02  0.70000035774E+02 0.  0.
        -12    1    1    2    0    0  0.91575533473E+01  0.52993785104E+01  0.15451017607E+02  0.18726402244E+02  0.00000000000E+00 0.  1.
         11    1    3    3    0    0 -0.35101113813E+02  0.26728550946E+01 -0.76967601454E+01  0.36034323392E+02  0.51100000000E-03 0. -1.
        -11    1    3    3    0    0  0.33320737779E+01  0.73318937502E+01 -0.36162534194E-01  0.80536134508E+01  0.51100000000E-03 0.  1.
        -12    1    3    3    0    0  0.22611486688E+02 -0.15304127355E+02 -0.77180949273E+01  0.28373660914E+02  0.00000000000E+00 0.  1.
</event>
<event>
 7    1  0.3509180E-013  0.7246148E+02  0.7816164E-02  0.1226708E+00
        -11   -1    0    0    0    0  0.00000000000E+00  0.00000000000E+00  0.45593999997E+02  0.45594000000E+02  0.51100000000E-03 0. -1.
         11   -1    0    0    0    0 -0.00000000000E+00 -0.00000000000E+00 -0.45593999997E+02  0.45594000000E+02  0.51100000000E-03 0.  1.
    9900012    2    1    2    0    0  0.15967577448E+02  0.83406593477E+01 -0.51139417193E+01  0.72461480627E+02  0.69999883191E+02 0.  0.
        -12    1    1    2    0    0 -0.15967577448E+02 -0.83406593477E+01  0.51139417193E+01  0.18726519373E+02  0.00000000000E+00 0.  1.
         11    1    3    3    0    0  0.14416328794E+02  0.17797697457E+02  0.22611065429E+02  0.32184605804E+02  0.51100000000E-03 0. -1.
        -11    1    3    3    0    0  0.99814247842E+01  0.39398543197E+01 -0.19924759469E+02  0.22630672393E+02  0.51100000000E-03 0.  1.
        -12    1    3    3    0    0 -0.84301761296E+01 -0.13396892429E+02 -0.78002476794E+01  0.17646202430E+02  0.00000000000E+00 0.  1.
</event>
<event>
 7    1  0.3509180E-013  0.7246161E+02  0.7816164E-02  0.1226708E+00
        -11   -1    0    0    0    0  0.00000000000E+00  0.00000000000E+00  0.45593999997E+02  0.45594000000E+02  0.51100000000E-03 0.  1.
         11   -1    0    0    0    0 -0.00000000000E+00 -0.00000000000E+00 -0.45593999997E+02  0.45594000000E+02  0.51100000000E-03 0. -1.
    9900012    2    1    2    0    0  0.65073302165E+01  0.12255272491E+02 -0.12575403751E+02  0.72461606063E+02  0.70000046596E+02 0.  0.
        -12    1    1    2    0    0 -0.65073302165E+01 -0.12255272491E+02  0.12575403751E+02  0.18726393937E+02  0.00000000000E+00 0.  1.
         11    1    3    3    0    0 -0.56291382862E+01  0.18727590473E+02 -0.15927903818E+02  0.25221180842E+02  0.51100000000E-03 0. -1.
        -11    1    3    3    0    0  0.14897021449E+02  0.15739196047E+02  0.10034795751E+02  0.23881806177E+02  0.51100000000E-03 0.  1.
        -12    1    3    3    0    0 -0.27605529460E+01 -0.22211514029E+02 -0.66822956840E+01  0.23358619044E+02  0.00000000000E+00 0.  1.
</event>
<event>
 7    1  0.3509180E-013  0.7246159E+02  0.7816164E-02  0.1226708E+00
        -11   -1    0    0    0    0  0.00000000000E+00  0.00000000000E+00  0.45593999997E+02  0.45594000000E+02  0.51100000000E-03 0. -1.
         11   -1    0    0    0    0 -0.00000000000E+00 -0.00000000000E+00 -0.45593999997E+02  0.45594000000E+02  0.51100000000E-03 0.  1.
    9900012    2    1    2    0    0  0.13404601458E+02  0.86311164964E+01  0.98233956990E+01  0.72461585093E+02  0.70000019278E+02 0.  0.
        -12    1    1    2    0    0 -0.13404601458E+02 -0.86311164964E+01 -0.98233956990E+01  0.18726414907E+02  0.00000000000E+00 0.  1.
         11    1    3    3    0    0  0.61807399305E+01 -0.22504651400E+02 -0.84249550049E+01  0.24812108895E+02  0.51100000000E-03 0. -1.
        -11    1    3    3    0    0  0.10900749679E+02  0.76039704447E+01 -0.51574295838E+01  0.14256429786E+02  0.51100000000E-03 0.  1.
         12    1    3    3    0    0 -0.36768881512E+01  0.23531797451E+02  0.23405780288E+02  0.33393046412E+02  0.00000000000E+00 0. -1.
</event>
<event>
 7    1  0.3509180E-013  0.7246154E+02  0.7816164E-02  0.1226708E+00
        -11   -1    0    0    0    0  0.00000000000E+00  0.00000000000E+00  0.45593999997E+02  0.45594000000E+02  0.51100000000E-03 0.  1.
         11   -1    0    0    0    0 -0.00000000000E+00 -0.00000000000E+00 -0.45593999997E+02  0.45594000000E+02  0.51100000000E-03 0. -1.
    9900012    2    1    2    0    0  0.14179081433E+02 -0.11194577014E+02 -0.49310555840E+01  0.72461542407E+02  0.69999963671E+02 0.  0.
        -12    1    1    2    0    0 -0.14179081433E+02  0.11194577014E+02  0.49310555840E+01  0.18726457593E+02  0.00000000000E+00 0.  1.
         11    1    3    3    0    0  0.10182948833E+02  0.19688762564E+02 -0.18014189561E+02  0.28563102843E+02  0.51100000000E-03 0. -1.
        -11    1    3    3    0    0  0.64508390859E+01 -0.12669456580E+01 -0.57345295803E+01  0.87237208794E+01  0.51100000000E-03 0.  1.
        -12    1    3    3    0    0 -0.24547064855E+01 -0.29616393921E+02  0.18817663557E+02  0.35174718685E+02  0.00000000000E+00 0.  1.
</event>
<event>
 7    1  0.3509180E-013  0.7246159E+02  0.7816164E-02  0.1226708E+00
        -11   -1    0    0    0    0  0.00000000000E+00  0.00000000000E+00  0.45593999997E+02  0.45594000000E+02  0.51100000000E-03 0. -1.
         11   -1    0    0    0    0 -0.00000000000E+00 -0.00000000000E+00 -0.45593999997E+02  0.45594000000E+02  0.51100000000E-03 0.  1.
    9900012    2    1    2    0    0 -0.61668571117E+01 -0.84354084549E+01  0.15540019353E+02  0.72461589668E+02  0.70000025237E+02 0.  0.
        -12    1    1    2    0    0  0.61668571117E+01  0.84354084549E+01 -0.15540019353E+02  0.18726410332E+02  0.00000000000E+00 0.  1.
         11    1    3    3    0    0 -0.33217420921E+01 -0.22036563711E+02  0.21921971059E+02  0.31260469064E+02  0.51100000000E-03 0. -1.
        -11    1    3    3    0    0 -0.95436219895E+01 -0.50275969885E+01  0.10596596957E+02  0.15121022435E+02  0.51100000000E-03 0.  1.
        -12    1    3    3    0    0  0.66985069700E+01  0.18628752245E+02 -0.16978548662E+02  0.26080098169E+02  0.00000000000E+00 0.  1.
</event>
<event>
 7    1  0.3509180E-013  0.7246158E+02  0.7816164E-02  0.1226708E+00
        -11   -1    0    0    0    0  0.00000000000E+00  0.00000000000E+00  0.45593999997E+02  0.45594000000E+02  0.51100000000E-03 0.  1.
         11   -1    0    0    0    0 -0.00000000000E+00 -0.00000000000E+00 -0.45593999997E+02  0.45594000000E+02  0.51100000000E-03 0. -1.
    9900012    2    1    2    0    0 -0.13379741194E+02 -0.49034894781E+01 -0.12149771640E+02  0.72461584583E+02  0.70000018613E+02 0.  0.
        -12    1    1    2    0    0  0.13379741194E+02  0.49034894781E+01  0.12149771640E+02  0.18726415417E+02  0.00000000000E+00 0.  1.
         11    1    3    3    0    0 -0.18194410636E+00 -0.58319316958E+00  0.13167037768E+02  0.13181202592E+02  0.51100000000E-03 0.  1.
        -11    1    3    3    0    0 -0.30931051846E+02 -0.73162362606E+01 -0.26320662283E+02  0.41267839108E+02  0.51100000000E-03 0. -1.
         12    1    3    3    0    0  0.17733254758E+02  0.29959399521E+01  0.10038528758E+01  0.18012542883E+02  0.00000000000E+00 0. -1.
</event>
<event>
 7    1  0.3509180E-013  0.7246153E+02  0.7816164E-02  0.1226708E+00
        -11   -1    0    0    0    0  0.00000000000E+00  0.00000000000E+00  0.45593999997E+02  0.45594000000E+02  0.51100000000E-03 0.  1.
         11   -1    0    0    0    0 -0.00000000000E+00 -0.00000000000E+00 -0.45593999997E+02  0.45594000000E+02  0.51100000000E-03 0. -1.
    9900012    2    1    2    0    0  0.16685192295E+02  0.25695129141E+01 -0.81044895695E+01  0.72461527035E+02  0.69999943647E+02 0.  0.
        -12    1    1    2    0    0 -0.16685192295E+02 -0.25695129141E+01  0.81044895695E+01  0.18726472965E+02  0.00000000000E+00 0.  1.
         11    1    3    3    0    0  0.20211935445E+02 -0.36012853644E+01 -0.49157656414E+00  0.20536144684E+02  0.51100000000E-03 0. -1.
        -11    1    3    3    0    0  0.92607236427E+01 -0.13364929578E+02  0.12970301941E+02  0.20799304741E+02  0.51100000000E-03 0.  1.
         12    1    3    3    0    0 -0.12787466793E+02  0.19535727856E+02 -0.20583214946E+02  0.31126077610E+02  0.00000000000E+00 0. -1.
</event>
<event>
 7    1  0.3509180E-013  0.7246158E+02  0.7816164E-02  0.1226708E+00
        -11   -1    0    0    0    0  0.00000000000E+00  0.00000000000E+00  0.45593999997E+02  0.45594000000E+02  0.51100000000E-03 0.  1.
         11   -1    0    0    0    0 -0.00000000000E+00 -0.00000000000E+00 -0.45593999997E+02  0.45594000000E+02  0.51100000000E-03 0. -1.
    9900012    2    1    2    0    0  0.42716074119E+01  0.98573033429E+00 -0.18206058354E+02  0.72461578693E+02  0.70000010941E+02 0.  0.
        -12    1    1    2    0    0 -0.42716074119E+01 -0.98573033429E+00  0.18206058354E+02  0.18726421307E+02  0.00000000000E+00 0.  1.
         11    1    3    3    0    0  0.91364193114E+01 -0.16314655771E+01  0.11104807545E+02  0.14472476935E+02  0.51100000000E-03 0. -1.
        -11    1    3    3    0    0 -0.67159266456E+00  0.13776677282E+02  0.99181197016E+01  0.16988730745E+02  0.51100000000E-03 0.  1.
         12    1    3    3    0    0 -0.41932192349E+01 -0.11159481371E+02 -0.39228985600E+02  0.41000371013E+02  0.00000000000E+00 0. -1.
</event>
<event>
 7    1  0.3509180E-013  0.7246145E+02  0.7816164E-02  0.1226708E+00
        -11   -1    0    0    0    0  0.00000000000E+00  0.00000000000E+00  0.45593999997E+02  0.45594000000E+02  0.51100000000E-03 0.  1.
         11   -1    0    0    0    0 -0.00000000000E+00 -0.00000000000E+00 -0.45593999997E+02  0.45594000000E+02  0.51100000000E-03 0. -1.
    9900012    2    1    2    0    0  0.73817215841E+01 -0.14389902663E+02 -0.94405880745E+01  0.72461446249E+02  0.69999838408E+02 0.  0.
        -12    1    1    2    0    0 -0.73817215841E+01  0.14389902663E+02  0.94405880745E+01  0.18726553751E+02  0.00000000000E+00 0.  1.
         11    1    3    3    0    0  0.91315048412E+01 -0.10498460999E+02 -0.15291797109E+02  0.20674649286E+02  0.51100000000E-03 0. -1.
        -11    1    3    3    0    0 -0.23580524303E+02 -0.11759588267E+02 -0.38600036136E+01  0.26631347521E+02  0.51100000000E-03 0.  1.
        -12    1    3    3    0    0  0.21830741046E+02  0.78681466031E+01  0.97112126477E+01  0.25155449443E+02  0.00000000000E+00 0.  1.
</event>
<event>
 7    1  0.3509180E-013  0.7246174E+02  0.7816164E-02  0.1226708E+00
        -11   -1    0    0    0    0  0.00000000000E+00  0.00000000000E+00  0.45593999997E+02  0.45594000000E+02  0.51100000000E-03 0.  1.
         11   -1    0    0    0    0 -0.00000000000E+00 -0.00000000000E+00 -0.45593999997E+02  0.45594000000E+02  0.51100000000E-03 0. -1.
    9900012    2    1    2    0    0 -0.15819548927E+01  0.71710744825E+01 -0.17226313954E+02  0.72461740818E+02  0.70000222138E+02 0.  0.
        -12    1    1    2    0    0  0.15819548927E+01 -0.71710744825E+01  0.17226313954E+02  0.18726259182E+02  0.00000000000E+00 0.  1.
         11    1    3    3    0    0  0.30886126973E+02 -0.39608858480E+01 -0.17702448092E+02  0.35819242381E+02  0.51100000000E-03 0. -1.
        -11    1    3    3    0    0 -0.11471370360E+01 -0.22771951107E+01 -0.26718601317E+00  0.25637725286E+01  0.51100000000E-03 0.  1.
        -12    1    3    3    0    0 -0.31320944829E+02  0.13409155441E+02  0.74332015095E+00  0.34078725908E+02  0.00000000000E+00 0.  1.
</event>
<event>
 7    1  0.3509180E-013  0.7246160E+02  0.7816164E-02  0.1226708E+00
        -11   -1    0    0    0    0  0.00000000000E+00  0.00000000000E+00  0.45593999997E+02  0.45594000000E+02  0.51100000000E-03 0.  1.
         11   -1    0    0    0    0 -0.00000000000E+00 -0.00000000000E+00 -0.45593999997E+02  0.45594000000E+02  0.51100000000E-03 0. -1.
    9900012    2    1    2    0    0  0.94765126922E+01 -0.67228975983E+01 -0.14685923068E+02  0.72461602021E+02  0.70000041329E+02 0.  0.
        -12    1    1    2    0    0 -0.94765126922E+01  0.67228975983E+01  0.14685923068E+02  0.18726397979E+02  0.00000000000E+00 0.  1.
         11    1    3    3    0    0  0.15038375694E+01  0.68447702696E+01 -0.32486615625E+00  0.70155502820E+01  0.51100000000E-03 0. -1.
        -11    1    3    3    0    0 -0.50572671933E+01  0.95754284962E+01  0.19564201173E+02  0.22361188478E+02  0.51100000000E-03 0.  1.
         12    1    3    3    0    0  0.13029942316E+02 -0.23143096364E+02 -0.33925258085E+02  0.43084863261E+02  0.00000000000E+00 0. -1.
</event>
<event>
 7    1  0.3509180E-013  0.7246154E+02  0.7816164E-02  0.1226708E+00
        -11   -1    0    0    0    0  0.00000000000E+00  0.00000000000E+00  0.45593999997E+02  0.45594000000E+02  0.51100000000E-03 0. -1.
         11   -1    0    0    0    0 -0.00000000000E+00 -0.00000000000E+00 -0.45593999997E+02  0.45594000000E+02  0.51100000000E-03 0.  1.
    9900012    2    1    2    0    0 -0.65167957156E+00  0.13272956759E+02  0.13194093709E+02  0.72461543416E+02  0.69999964986E+02 0.  0.
        -12    1    1    2    0    0  0.65167957156E+00 -0.13272956759E+02 -0.13194093709E+02  0.18726456584E+02  0.00000000000E+00 0.  1.
         11    1    3    3    0    0  0.21600972554E+02  0.12255156101E+02 -0.98924069999E+01  0.26732949385E+02  0.51100000000E-03 0. -1.
        -11    1    3    3    0    0 -0.74740767972E+01 -0.76168351966E+01 -0.58046482545E+01  0.12147919328E+02  0.51100000000E-03 0.  1.
         12    1    3    3    0    0 -0.14778575328E+02  0.86346358554E+01  0.28891148963E+02  0.33580674703E+02  0.00000000000E+00 0. -1.
</event>
<event>
 7    1  0.3509180E-013  0.7246154E+02  0.7816164E-02  0.1226708E+00
        -11   -1    0    0    0    0  0.00000000000E+00  0.00000000000E+00  0.45593999997E+02  0.45594000000E+02  0.51100000000E-03 0. -1.
         11   -1    0    0    0    0 -0.00000000000E+00 -0.00000000000E+00 -0.45593999997E+02  0.45594000000E+02  0.51100000000E-03 0.  1.
    9900012    2    1    2    0    0  0.68026930173E+01  0.14588923016E+01  0.17386070599E+02  0.72461536107E+02  0.69999955465E+02 0.  0.
        -12    1    1    2    0    0 -0.68026930173E+01 -0.14588923016E+01 -0.17386070599E+02  0.18726463893E+02  0.00000000000E+00 0.  1.
         11    1    3    3    0    0 -0.27422659429E+01  0.15185829859E+02  0.15381640593E+02  0.21788169235E+02  0.51100000000E-03 0. -1.
        -11    1    3    3    0    0 -0.17356940132E+02 -0.46288060561E+01 -0.91535407747E+01  0.20161262987E+02  0.51100000000E-03 0.  1.
        -12    1    3    3    0    0  0.26901899092E+02 -0.90981315013E+01  0.11157970781E+02  0.30512103886E+02  0.00000000000E+00 0.  1.
</event>
<event>
 7    1  0.3509180E-013  0.7246154E+02  0.7816164E-02  0.1226708E+00
        -11   -1    0    0    0    0  0.00000000000E+00  0.00000000000E+00  0.45593999997E+02  0.45594000000E+02  0.51100000000E-03 0.  1.
         11   -1    0    0    0    0 -0.00000000000E+00 -0.00000000000E+00 -0.45593999997E+02  0.45594000000E+02  0.51100000000E-03 0. -1.
    9900012    2    1    2    0    0  0.12553699453E+02 -0.51586660527E+01 -0.12902440291E+02  0.72461543559E+02  0.69999965172E+02 0.  0.
        -12    1    1    2    0    0 -0.12553699453E+02  0.51586660527E+01  0.12902440291E+02  0.18726456441E+02  0.00000000000E+00 0.  1.
         11    1    3    3    0    0 -0.21541054512E+02  0.12989020397E+02  0.75850089724E+01  0.26272876541E+02  0.51100000000E-03 0.  1.
        -11    1    3    3    0    0  0.68155596971E+01  0.12553963638E+01 -0.76848508050E+01  0.10348178882E+02  0.51100000000E-03 0. -1.
        -12    1    3    3    0    0  0.27279194267E+02 -0.19403082814E+02 -0.12802598458E+02  0.35840488136E+02  0.00000000000E+00 0.  1.
</event>
<event>
 7    1  0.3509180E-013  0.7246156E+02  0.7816164E-02  0.1226708E+00
        -11   -1    0    0    0    0  0.00000000000E+00  0.00000000000E+00  0.45593999997E+02  0.45594000000E+02  0.51100000000E-03 0.  1.
         11   -1    0    0    0    0 -0.00000000000E+00 -0.00000000000E+00 -0.45593999997E+02  0.45594000000E+02  0.51100000000E-03 0. -1.
    9900012    2    1    2    0    0 -0.83915040265E+01 -0.23463102250E+01 -0.16575792795E+02  0.72461563652E+02  0.69999991347E+02 0.  0.
        -12    1    1    2    0    0  0.83915040265E+01  0.23463102250E+01  0.16575792795E+02  0.18726436348E+02  0.00000000000E+00 0.  1.
         11    1    3    3    0    0  0.86317906847E+01 -0.26820545601E+01 -0.18206329621E+02  0.20326624550E+02  0.51100000000E-03 0. -1.
        -11    1    3    3    0    0 -0.10445701421E+01  0.20490119895E+02  0.12705051725E+02  0.24132021873E+02  0.51100000000E-03 0.  1.
         12    1    3    3    0    0 -0.15978724569E+02 -0.20154375560E+02 -0.11074514900E+02  0.28002917229E+02  0.00000000000E+00 0. -1.
</event>
<event>
 7    1  0.3509180E-013  0.7246155E+02  0.7816164E-02  0.1226708E+00
        -11   -1    0    0    0    0  0.00000000000E+00  0.00000000000E+00  0.45593999997E+02  0.45594000000E+02  0.51100000000E-03 0.  1.
         11   -1    0    0    0    0 -0.00000000000E+00 -0.00000000000E+00 -0.45593999997E+02  0.45594000000E+02  0.51100000000E-03 0. -1.
    9900012    2    1    2    0    0  0.28243133395E+01  0.68415799132E+01 -0.17201621711E+02  0.72461554768E+02  0.69999979774E+02 0.  0.
        -12    1    1    2    0    0 -0.28243133395E+01 -0.68415799132E+01  0.17201621711E+02  0.18726445232E+02  0.00000000000E+00 0.  1.
         11    1    3    3    0    0 -0.81576555384E+01 -0.23759260102E+02 -0.13686634795E+01  0.25157961453E+02  0.51100000000E-03 0. -1.
        -11    1    3    3    0    0 -0.95541190493E+01  0.27218941368E+01 -0.30251007613E+01  0.10384658559E+02  0.51100000000E-03 0.  1.
         12    1    3    3    0    0  0.20536087927E+02  0.27878945878E+02 -0.12807857470E+02  0.36918934757E+02  0.00000000000E+00 0. -1.
</event>
<event>
 7    1  0.3509180E-013  0.7246159E+02  0.7816164E-02  0.1226708E+00
        -11   -1    0    0    0    0  0.00000000000E+00  0.00000000000E+00  0.45593999997E+02  0.45594000000E+02  0.51100000000E-03 0. -1.
         11   -1    0    0    0    0 -0.00000000000E+00 -0.00000000000E+00 -0.45593999997E+02  0.45594000000E+02  0.51100000000E-03 0.  1.
    9900012    2    1    2    0    0 -0.16718281099E+02  0.29955885669E+01  0.78869544524E+01  0.72461587521E+02  0.70000022442E+02 0.  0.
        -12    1    1    2    0    0  0.16718281099E+02 -0.29955885669E+01 -0.78869544524E+01  0.18726412479E+02  0.00000000000E+00 0.  1.
         11    1    3    3    0    0 -0.47053376309E+01  0.25693116788E+02 -0.95042668600E+01  0.27795818774E+02  0.51100000000E-03 0. -1.
        -11    1    3    3    0    0  0.99373834930E+01 -0.73709633025E+00  0.27491969085E+01  0.10336971780E+02  0.51100000000E-03 0.  1.
        -12    1    3    3    0    0 -0.21950326961E+02 -0.21960431891E+02  0.14642024404E+02  0.34328796967E+02  0.00000000000E+00 0.  1.
</event>
<event>
 7    1  0.3509180E-013  0.7246158E+02  0.7816164E-02  0.1226708E+00
        -11   -1    0    0    0    0  0.00000000000E+00  0.00000000000E+00  0.45593999997E+02  0.45594000000E+02  0.51100000000E-03 0.  1.
         11   -1    0    0    0    0 -0.00000000000E+00 -0.00000000000E+00 -0.45593999997E+02  0.45594000000E+02  0.51100000000E-03 0. -1.
    9900012    2    1    2    0    0 -0.57707745931E+01  0.16928578317E+02 -0.55498098324E+01  0.72461575023E+02  0.70000006160E+02 0.  0.
        -12    1    1    2    0    0  0.57707745931E+01 -0.16928578317E+02  0.55498098324E+01  0.18726424977E+02  0.00000000000E+00 0.  1.
         11    1    3    3    0    0  0.30786290670E+02  0.42558428156E+01  0.37922579490E+01  0.31309569015E+02  0.51100000000E-03 0. -1.
        -11    1    3    3    0    0 -0.10666599590E+01  0.31291362814E+01 -0.11372946026E+01  0.34960973399E+01  0.51100000000E-03 0.  1.
        -12    1    3    3    0    0 -0.35490405304E+02  0.95435992204E+01 -0.82047731788E+01  0.37655908668E+02  0.00000000000E+00 0.  1.
</event>
<event>
 7    1  0.3509180E-013  0.7246159E+02  0.7816164E-02  0.1226708E+00
        -11   -1    0    0    0    0  0.00000000000E+00  0.00000000000E+00  0.45593999997E+02  0.45594000000E+02  0.51100000000E-03 0.  1.
         11   -1    0    0    0    0 -0.00000000000E+00 -0.00000000000E+00 -0.45593999997E+02  0.45594000000E+02  0.51100000000E-03 0. -1.
    9900012    2    1    2    0    0  0.11381866814E+02 -0.14717991916E+02 -0.21242076862E+01  0.72461589866E+02  0.70000025496E+02 0.  0.
        -12    1    1    2    0    0 -0.11381866814E+02  0.14717991916E+02  0.21242076862E+01  0.18726410134E+02  0.00000000000E+00 0.  1.
         11    1    3    3    0    0 -0.23524304737E+01  0.12355086732E+02  0.76900212552E+01  0.14741727323E+02  0.51100000000E-03 0. -1.
        -11    1    3    3    0    0  0.17911874187E+01  0.38658329343E+01  0.15451400644E+02  0.16028062852E+02  0.51100000000E-03 0.  1.
         12    1    3    3    0    0  0.11943109869E+02 -0.30938911582E+02 -0.25265629586E+02  0.41691799692E+02  0.00000000000E+00 0. -1.
</event>
<event>
 7    1  0.3509180E-013  0.7246156E+02  0.7816164E-02  0.1226708E+00
        -11   -1    0    0    0    0  0.00000000000E+00  0.00000000000E+00  0.45593999997E+02  0.45594000000E+02  0.51100000000E-03 0.  1.
         11   -1    0    0    0    0 -0.00000000000E+00 -0.00000000000E+00 -0.45593999997E+02  0.45594000000E+02  0.51100000000E-03 0. -1.
    9900012    2    1    2    0    0  0.14323985501E+02 -0.10632599120E+02  0.56965564164E+01  0.72461562013E+02  0.69999989212E+02 0.  0.
        -12    1    1    2    0    0 -0.14323985501E+02  0.10632599120E+02 -0.56965564164E+01  0.18726437987E+02  0.00000000000E+00 0.  1.
         11    1    3    3    0    0  0.19524428642E+02  0.76335114268E+01 -0.13170455701E+02  0.24757518335E+02  0.51100000000E-03 0. -1.
        -11    1    3    3    0    0  0.78923192327E+01 -0.22956434150E+02  0.22745036082E+02  0.33265947129E+02  0.51100000000E-03 0.  1.
        -12    1    3    3    0    0 -0.13092762373E+02  0.46903236035E+01 -0.38780239643E+01  0.14438096548E+02  0.00000000000E+00 0.  1.
</event>
<event>
 7    1  0.3509180E-013  0.7246158E+02  0.7816164E-02  0.1226708E+00
        -11   -1    0    0    0    0  0.00000000000E+00  0.00000000000E+00  0.45593999997E+02  0.45594000000E+02  0.51100000000E-03 0. -1.
         11   -1    0    0    0    0 -0.00000000000E+00 -0.00000000000E+00 -0.45593999997E+02  0.45594000000E+02  0.51100000000E-03 0.  1.
    9900012    2    1    2    0    0  0.13072737244E+02  0.13198320819E+02 -0.23636500078E+01  0.72461575546E+02  0.70000006841E+02 0.  0.
        -12    1    1    2    0    0 -0.13072737244E+02 -0.13198320819E+02  0.23636500078E+01  0.18726424454E+02  0.00000000000E+00 0.  1.
         11    1    3    3    0    0  0.32075734262E+02  0.19470255340E+02  0.10688306584E+02  0.39015169734E+02  0.51100000000E-03 0. -1.
        -11    1    3    3    0    0 -0.81756552182E+01  0.88342233607E+01 -0.68712197965E+01  0.13859960404E+02  0.51100000000E-03 0.  1.
        -12    1    3    3    0    0 -0.10827341800E+02 -0.15106157882E+02 -0.61807367956E+01  0.19586445409E+02  0.00000000000E+00 0.  1.
</event>
<event>
 7    1  0.3509180E-013  0.7246152E+02  0.7816164E-02  0.1226708E+00
        -11   -1    0    0    0    0  0.00000000000E+00  0.00000000000E+00  0.45593999997E+02  0.45594000000E+02  0.51100000000E-03 0.  1.
         11   -1    0    0    0    0 -0.00000000000E+00 -0.00000000000E+00 -0.45593999997E+02  0.45594000000E+02  0.51100000000E-03 0. -1.
    9900012    2    1    2    0    0  0.14989455413E+02 -0.32202333004E+01 -0.10753009487E+02  0.72461524381E+02  0.69999940189E+02 0.  0.
        -12    1    1    2    0    0 -0.14989455413E+02  0.32202333004E+01  0.10753009487E+02  0.18726475619E+02  0.00000000000E+00 0.  1.
         11    1    3    3    0    0 -0.76280840664E+01 -0.82061101268E+01 -0.20756621873E+02  0.23587396248E+02  0.51100000000E-03 0. -1.
        -11    1    3    3    0    0  0.11668088760E+02 -0.18519838368E+02  0.52752298581E+01  0.22515700274E+02  0.51100000000E-03 0.  1.
         12    1    3    3    0    0  0.10949450719E+02  0.23505715194E+02  0.47283825275E+01  0.26358427859E+02  0.00000000000E+00 0. -1.
</event>
<event>
 7    1  0.3509180E-013  0.7246156E+02  0.7816164E-02  0.1226708E+00
        -11   -1    0    0    0    0  0.00000000000E+00  0.00000000000E+00  0.45593999997E+02  0.45594000000E+02  0.51100000000E-03 0.  1.
         11   -1    0    0    0    0 -0.00000000000E+00 -0.00000000000E+00 -0.45593999997E+02  0.45594000000E+02  0.51100000000E-03 0. -1.
    9900012    2    1    2    0    0  0.50215247796E+01 -0.67291763824E+01 -0.16738637327E+02  0.72461561325E+02  0.69999988315E+02 0.  0.
        -12    1    1    2    0    0 -0.50215247796E+01  0.67291763824E+01  0.16738637327E+02  0.18726438675E+02  0.00000000000E+00 0.  1.
         11    1    3    3    0    0  0.27431983749E+01 -0.19636661059E+01 -0.13731282022E+02  0.14139633239E+02  0.51100000000E-03 0. -1.
        -11    1    3    3    0    0  0.17970169959E+02  0.15098584854E+02  0.14458349930E+02  0.27566975821E+02  0.51100000000E-03 0.  1.
         12    1    3    3    0    0 -0.15691843555E+02 -0.19864095130E+02 -0.17465705235E+02  0.30754952265E+02  0.00000000000E+00 0. -1.
</event>
<event>
 7    1  0.3509180E-013  0.7246161E+02  0.7816164E-02  0.1226708E+00
        -11   -1    0    0    0    0  0.00000000000E+00  0.00000000000E+00  0.45593999997E+02  0.45594000000E+02  0.51100000000E-03 0.  1.
         11   -1    0    0    0    0 -0.00000000000E+00 -0.00000000000E+00 -0.45593999997E+02  0.45594000000E+02  0.51100000000E-03 0. -1.
    9900012    2    1    2    0    0 -0.80248569796E+01  0.63652451419E+01 -0.15676825721E+02  0.72461613805E+02  0.70000056680E+02 0.  0.
        -12    1    1    2    0    0  0.80248569796E+01 -0.63652451419E+01  0.15676825721E+02  0.18726386195E+02  0.00000000000E+00 0.  1.
         11    1    3    3    0    0 -0.15393105781E+01 -0.39088422254E+00 -0.11105440317E+02  0.11218425577E+02  0.51100000000E-03 0. -1.
        -11    1    3    3    0    0  0.22532316127E+02 -0.82637142991E+01 -0.13278486737E+02  0.27428314828E+02  0.51100000000E-03 0.  1.
        -12    1    3    3    0    0 -0.29017862528E+02  0.15019843664E+02  0.87071013333E+01  0.33814873399E+02  0.00000000000E+00 0.  1.
</event>
<event>
 7    1  0.3509180E-013  0.7246160E+02  0.7816164E-02  0.1226708E+00
        -11   -1    0    0    0    0  0.00000000000E+00  0.00000000000E+00  0.45593999997E+02  0.45594000000E+02  0.51100000000E-03 0.  1.
         11   -1    0    0    0    0 -0.00000000000E+00 -0.00000000000E+00 -0.45593999997E+02  0.45594000000E+02  0.51100000000E-03 0. -1.
    9900012    2    1    2    0    0  0.96432038729E+01  0.93380365409E+01 -0.13057094641E+02  0.72461600778E+02  0.70000039710E+02 0.  0.
        -12    1    1    2    0    0 -0.96432038729E+01 -0.93380365409E+01  0.13057094641E+02  0.18726399222E+02  0.00000000000E+00 0.  1.
         11    1    3    3    0    0 -0.15564931201E+02 -0.31693162015E+01  0.58054918985E+01  0.16911989384E+02  0.51100000000E-03 0. -1.
        -11    1    3    3    0    0  0.25448785363E+02 -0.11534003664E+02 -0.12922263122E+02  0.30784067331E+02  0.51100000000E-03 0.  1.
         12    1    3    3    0    0 -0.24065028945E+00  0.24041356407E+02 -0.59403234166E+01  0.24765544063E+02  0.00000000000E+00 0. -1.
</event>
<event>
 7    1  0.3509180E-013  0.7246156E+02  0.7816164E-02  0.1226708E+00
        -11   -1    0    0    0    0  0.00000000000E+00  0.00000000000E+00  0.45593999997E+02  0.45594000000E+02  0.51100000000E-03 0.  1.
         11   -1    0    0    0    0 -0.00000000000E+00 -0.00000000000E+00 -0.45593999997E+02  0.45594000000E+02  0.51100000000E-03 0. -1.
    9900012    2    1    2    0    0  0.11754467149E+02 -0.70046354672E+01 -0.12784640021E+02  0.72461563167E+02  0.69999990716E+02 0.  0.
        -12    1    1    2    0    0 -0.11754467149E+02  0.70046354672E+01  0.12784640021E+02  0.18726436833E+02  0.00000000000E+00 0.  1.
         11    1    3    3    0    0  0.88714650521E+01  0.64431223274E+01 -0.16745069439E+02  0.20015345819E+02  0.51100000000E-03 0. -1.
        -11    1    3    3    0    0  0.10478661236E+02 -0.25947674979E+02 -0.12306646112E+02  0.30570209631E+02  0.51100000000E-03 0.  1.
        -12    1    3    3    0    0 -0.75956591391E+01  0.12499917184E+02  0.16267075529E+02  0.21876007717E+02  0.00000000000E+00 0.  1.
</event>
<event>
 7    1  0.3509180E-013  0.7246157E+02  0.7816164E-02  0.1226708E+00
        -11   -1    0    0    0    0  0.00000000000E+00  0.00000000000E+00  0.45593999997E+02  0.45594000000E+02  0.51100000000E-03 0. -1.
         11   -1    0    0    0    0 -0.00000000000E+00 -0.00000000000E+00 -0.45593999997E+02  0.45594000000E+02  0.51100000000E-03 0.  1.
    9900012    2    1    2    0    0 -0.50098965045E+01  0.45635577418E+01  0.17457210102E+02  0.72461566629E+02  0.69999995225E+02 0.  0.
        -12    1    1    2    0    0  0.50098965045E+01 -0.45635577418E+01 -0.17457210102E+02  0.18726433371E+02  0.00000000000E+00 0.  1.
         11    1    3    3    0    0 -0.38774801216E+01 -0.67141607838E+01  0.21786680580E+02  0.23125186660E+02  0.51100000000E-03 0. -1.
        -11    1    3    3    0    0 -0.21555649395E+02 -0.31537305129E+01  0.54963145212E+01  0.22467788288E+02  0.51100000000E-03 0.  1.
        -12    1    3    3    0    0  0.20423233012E+02  0.14431449038E+02 -0.98257849989E+01  0.26868591680E+02  0.00000000000E+00 0.  1.
</event>
<event>
 7    1  0.3509180E-013  0.7246155E+02  0.7816164E-02  0.1226708E+00
        -11   -1    0    0    0    0  0.00000000000E+00  0.00000000000E+00  0.45593999997E+02  0.45594000000E+02  0.51100000000E-03 0.  1.
         11   -1    0    0    0    0 -0.00000000000E+00 -0.00000000000E+00 -0.45593999997E+02  0.45594000000E+02  0.51100000000E-03 0. -1.
    9900012    2    1    2    0    0  0.78223247526E+00 -0.12208470356E+02 -0.14178196125E+02  0.72461551286E+02  0.69999975239E+02 0.  0.
        -12    1    1    2    0    0 -0.78223247526E+00  0.12208470356E+02  0.14178196125E+02  0.18726448714E+02  0.00000000000E+00 0.  1.
         11    1    3    3    0    0  0.50263610115E+00 -0.24542581388E+02 -0.19234873416E+02  0.31186075415E+02  0.51100000000E-03 0. -1.
        -11    1    3    3    0    0  0.48811577650E+01 -0.93132281480E+01  0.13911946688E+02  0.17438583101E+02  0.51100000000E-03 0.  1.
        -12    1    3    3    0    0 -0.46015613909E+01  0.21647339180E+02 -0.88552693971E+01  0.23836892770E+02  0.00000000000E+00 0.  1.
</event>
<event>
 7    1  0.3509180E-013  0.7246155E+02  0.7816164E-02  0.1226708E+00
        -11   -1    0    0    0    0  0.00000000000E+00  0.00000000000E+00  0.45593999997E+02  0.45594000000E+02  0.51100000000E-03 0. -1.
         11   -1    0    0    0    0 -0.00000000000E+00 -0.00000000000E+00 -0.45593999997E+02  0.45594000000E+02  0.51100000000E-03 0.  1.
    9900012    2    1    2    0    0 -0.20838610084E+01  0.18351793872E+02 -0.30901779769E+01  0.72461547722E+02  0.69999970595E+02 0.  0.
        -12    1    1    2    0    0  0.20838610084E+01 -0.18351793872E+02  0.30901779769E+01  0.18726452278E+02  0.00000000000E+00 0.  1.
         11    1    3    3    0    0 -0.18014965717E+02 -0.93905577374E+00  0.11874530557E+02  0.21596881528E+02  0.51100000000E-03 0. -1.
        -11    1    3    3    0    0 -0.13889493841E+02  0.10151778910E+02 -0.76537529328E+01  0.18829673083E+02  0.51100000000E-03 0.  1.
        -12    1    3    3    0    0  0.29820598550E+02  0.91390707349E+01 -0.73109556010E+01  0.32034993110E+02  0.00000000000E+00 0.  1.
</event>
<event>
 7    1  0.3509180E-013  0.7246157E+02  0.7816164E-02  0.1226708E+00
        -11   -1    0    0    0    0  0.00000000000E+00  0.00000000000E+00  0.45593999997E+02  0.45594000000E+02  0.51100000000E-03 0. -1.
         11   -1    0    0    0    0 -0.00000000000E+00 -0.00000000000E+00 -0.45593999997E+02  0.45594000000E+02  0.51100000000E-03 0.  1.
    9900012    2    1    2    0    0  0.12920503666E+02  0.10249843657E+02  0.88701938942E+01  0.72461573494E+02  0.70000004168E+02 0.  0.
        -12    1    1    2    0    0 -0.12920503666E+02 -0.10249843657E+02 -0.88701938942E+01  0.18726426506E+02  0.00000000000E+00 0.  1.
         11    1    3    3    0    0  0.28334286464E+02  0.12276674859E+02  0.74023539626E+01  0.31754422991E+02  0.51100000000E-03 0. -1.
        -11    1    3    3    0    0 -0.55551126898E+01  0.14994338199E+02  0.10430359218E+02  0.19091407719E+02  0.51100000000E-03 0.  1.
         12    1    3    3    0    0 -0.98586701082E+01 -0.17021169402E+02 -0.89625192865E+01  0.21615742783E+02  0.00000000000E+00 0. -1.
</event>
<event>
 7    1  0.3509180E-013  0.7246152E+02  0.7816164E-02  0.1226708E+00
        -11   -1    0    0    0    0  0.00000000000E+00  0.00000000000E+00  0.45593999997E+02  0.45594000000E+02  0.51100000000E-03 0. -1.
         11   -1    0    0    0    0 -0.00000000000E+00 -0.00000000000E+00 -0.45593999997E+02  0.45594000000E+02  0.51100000000E-03 0.  1.
    9900012    2    1    2    0    0 -0.44649997547E+01  0.14129494363E+02  0.11449993208E+02  0.72461516662E+02  0.69999930134E+02 0.  0.
        -12    1    1    2    0    0  0.44649997547E+01 -0.14129494363E+02 -0.11449993208E+02  0.18726483338E+02  0.00000000000E+00 0.  1.
         11    1    3    3    0    0 -0.16727529542E+01  0.14504538247E+02  0.11219873114E+02  0.18413725456E+02  0.51100000000E-03 0. -1.
        -11    1    3    3    0    0 -0.93059903965E+01 -0.11888484654E+02 -0.22884253892E+02  0.27415809328E+02  0.51100000000E-03 0.  1.
         12    1    3    3    0    0  0.65137435960E+01  0.11513440770E+02  0.23114373986E+02  0.26631981878E+02  0.00000000000E+00 0. -1.
</event>
<event>
 7    1  0.3509180E-013  0.7246163E+02  0.7816164E-02  0.1226708E+00
        -11   -1    0    0    0    0  0.00000000000E+00  0.00000000000E+00  0.45593999997E+02  0.45594000000E+02  0.51100000000E-03 0. -1.
         11   -1    0    0    0    0 -0.00000000000E+00 -0.00000000000E+00 -0.45593999997E+02  0.45594000000E+02  0.51100000000E-03 0.  1.
    9900012    2    1    2    0    0 -0.12229088423E+02 -0.33648508536E+01  0.13776937442E+02  0.72461632755E+02  0.70000081366E+02 0.  0.
        -12    1    1    2    0    0  0.12229088423E+02  0.33648508536E+01 -0.13776937442E+02  0.18726367245E+02  0.00000000000E+00 0.  1.
         11    1    3    3    0    0 -0.51984799013E+01  0.12671353420E+02  0.26903515368E+02  0.30189179025E+02  0.51100000000E-03 0. -1.
        -11    1    3    3    0    0  0.12848624742E+02  0.51322235184E+00 -0.98530677613E+01  0.16199799366E+02  0.51100000000E-03 0.  1.
        -12    1    3    3    0    0 -0.19879233263E+02 -0.16549426626E+02 -0.32735101645E+01  0.26072654364E+02  0.00000000000E+00 0.  1.
</event>
<event>
 7    1  0.3509180E-013  0.7246176E+02  0.7816164E-02  0.1226708E+00
        -11   -1    0    0    0    0  0.00000000000E+00  0.00000000000E+00  0.45593999997E+02  0.45594000000E+02  0.51100000000E-03 0.  1.
         11   -1    0    0    0    0 -0.00000000000E+00 -0.00000000000E+00 -0.45593999997E+02  0.45594000000E+02  0.51100000000E-03 0. -1.
    9900012    2    1    2    0    0  0.48297370080E+01  0.46276232905E+01 -0.17490874752E+02  0.72461762886E+02  0.70000250885E+02 0.  0.
        -12    1    1    2    0    0 -0.48297370080E+01 -0.46276232905E+01  0.17490874752E+02  0.18726237114E+02  0.00000000000E+00 0.  1.
         11    1    3    3    0    0  0.70072522897E+01 -0.38150336664E+00 -0.32043856732E+02  0.32803290749E+02  0.51100000000E-03 0. -1.
        -11    1    3    3    0    0  0.10853154091E+02  0.12061291534E+02 -0.31967628123E+01  0.16537381895E+02  0.51100000000E-03 0.  1.
        -12    1    3    3    0    0 -0.13030669373E+02 -0.70521648770E+01  0.17749744792E+02  0.23121090241E+02  0.00000000000E+00 0.  1.
</event>
<event>
 7    1  0.3509180E-013  0.7246160E+02  0.7816164E-02  0.1226708E+00
        -11   -1    0    0    0    0  0.00000000000E+00  0.00000000000E+00  0.45593999997E+02  0.45594000000E+02  0.51100000000E-03 0. -1.
         11   -1    0    0    0    0 -0.00000000000E+00 -0.00000000000E+00 -0.45593999997E+02  0.45594000000E+02  0.51100000000E-03 0.  1.
    9900012    2    1    2    0    0 -0.16164455079E+02  0.75617136245E+01 -0.56752774332E+01  0.72461604328E+02  0.70000044335E+02 0.  0.
        -12    1    1    2    0    0  0.16164455079E+02 -0.75617136245E+01  0.56752774332E+01  0.18726395672E+02  0.00000000000E+00 0.  1.
         11    1    3    3    0    0  0.69280448820E+01  0.15998301991E+02  0.21740782956E+02  0.27867635642E+02  0.51100000000E-03 0. -1.
        -11    1    3    3    0    0  0.72196291650E+00  0.62647601201E+01 -0.15708740071E+01  0.64989303137E+01  0.51100000000E-03 0.  1.
        -12    1    3    3    0    0 -0.23814462877E+02 -0.14701348487E+02 -0.25845186382E+02  0.38095038372E+02  0.00000000000E+00 0.  1.
</event>
<event>
 7    1  0.3509180E-013  0.7246156E+02  0.7816164E-02  0.1226708E+00
        -11   -1    0    0    0    0  0.00000000000E+00  0.00000000000E+00  0.45593999997E+02  0.45594000000E+02  0.51100000000E-03 0. -1.
         11   -1    0    0    0    0 -0.00000000000E+00 -0.00000000000E+00 -0.45593999997E+02  0.45594000000E+02  0.51100000000E-03 0.  1.
    9900012    2    1    2    0    0 -0.13207649025E+02  0.73106918369E+01  0.11081120687E+02  0.72461562977E+02  0.69999990468E+02 0.  0.
        -12    1    1    2    0    0  0.13207649025E+02 -0.73106918369E+01 -0.11081120687E+02  0.18726437023E+02  0.00000000000E+00 0.  1.
         11    1    3    3    0    0  0.14670509000E+02  0.32782162410E+01  0.15345908729E+02  0.21481793478E+02  0.51100000000E-03 0. -1.
        -11    1    3    3    0    0  0.41166679621E+01  0.12063986093E+02 -0.11545457814E+02  0.17198381085E+02  0.51100000000E-03 0.  1.
         12    1    3    3    0    0 -0.31994825987E+02 -0.80315104970E+01  0.72806697716E+01  0.33781388413E+02  0.00000000000E+00 0. -1.
</event>
<event>
 7    1  0.3509180E-013  0.7246157E+02  0.7816164E-02  0.1226708E+00
        -11   -1    0    0    0    0  0.00000000000E+00  0.00000000000E+00  0.45593999997E+02  0.45594000000E+02  0.51100000000E-03 0. -1.
         11   -1    0    0    0    0 -0.00000000000E+00 -0.00000000000E+00 -0.45593999997E+02  0.45594000000E+02  0.51100000000E-03 0.  1.
    9900012    2    1    2    0    0 -0.11947373085E+02 -0.17496341543E+01  0.14313563577E+02  0.72461573604E+02  0.70000004311E+02 0.  0.
        -12    1    1    2    0    0  0.11947373085E+02  0.17496341543E+01 -0.14313563577E+02  0.18726426396E+02  0.00000000000E+00 0.  1.
         11    1    3    3    0    0  0.89255241191E+01  0.33574005756E+01 -0.45643462815E+01  0.10572150995E+02  0.51100000000E-03 0. -1.
        -11    1    3    3    0    0  0.16259310574E+02  0.75816237768E-01 -0.55047931636E+01  0.17166061764E+02  0.51100000000E-03 0.  1.
         12    1    3    3    0    0 -0.37132207778E+02 -0.51828509677E+01  0.24382703022E+02  0.44723360845E+02  0.00000000000E+00 0. -1.
</event>
<event>
 7    1  0.3509180E-013  0.7246153E+02  0.7816164E-02  0.1226708E+00
        -11   -1    0    0    0    0  0.00000000000E+00  0.00000000000E+00  0.45593999997E+02  0.45594000000E+02  0.51100000000E-03 0.  1.
         11   -1    0    0    0    0 -0.00000000000E+00 -0.00000000000E+00 -0.45593999997E+02  0.45594000000E+02  0.51100000000E-03 0. -1.
    9900012    2    1    2    0    0  0.62043568405E+01  0.15698061971E+02 -0.81090889310E+01  0.72461534323E+02  0.69999953141E+02 0.  0.
        -12    1    1    2    0    0 -0.62043568405E+01 -0.15698061971E+02  0.81090889310E+01  0.18726465677E+02  0.00000000000E+00 0.  1.
         11    1    3    3    0    0  0.21504667627E+01  0.21554308390E+02 -0.79970666793E+01  0.23090383132E+02  0.51100000000E-03 0. -1.
        -11    1    3    3    0    0 -0.14248663233E+02  0.25211610755E+01  0.17442342744E+02  0.22663097267E+02  0.51100000000E-03 0.  1.
         12    1    3    3    0    0  0.18302553311E+02 -0.83774074940E+01 -0.17554364996E+02  0.26708053924E+02  0.00000000000E+00 0. -1.
</event>
<event>
 7    1  0.3509180E-013  0.7246139E+02  0.7816164E-02  0.1226708E+00
        -11   -1    0    0    0    0  0.00000000000E+00  0.00000000000E+00  0.45593999997E+02  0.45594000000E+02  0.51100000000E-03 0.  1.
         11   -1    0    0    0    0 -0.00000000000E+00 -0.00000000000E+00 -0.45593999997E+02  0.45594000000E+02  0.51100000000E-03 0. -1.
    9900012    2    1    2    0    0  0.16702689619E+01 -0.43684964923E+00 -0.18646855830E+02  0.72461391434E+02  0.69999767001E+02 0.  0.
        -12    1    1    2    0    0 -0.16702689619E+01  0.43684964923E+00  0.18646855830E+02  0.18726608566E+02  0.00000000000E+00 0.  1.
         11    1    3    3    0    0  0.18298344327E+01  0.13708427276E+02 -0.14934722234E+02  0.20354734115E+02  0.51100000000E-03 0. -1.
        -11    1    3    3    0    0  0.92448265594E+00  0.59456723277E+01 -0.23277126506E+02  0.24042260839E+02  0.51100000000E-03 0.  1.
        -12    1    3    3    0    0 -0.10840481267E+01 -0.20090949253E+02  0.19564992910E+02  0.28064396480E+02  0.00000000000E+00 0.  1.
</event>
<event>
 7    1  0.3509180E-013  0.7246147E+02  0.7816164E-02  0.1226708E+00
        -11   -1    0    0    0    0  0.00000000000E+00  0.00000000000E+00  0.45593999997E+02  0.45594000000E+02  0.51100000000E-03 0. -1.
         11   -1    0    0    0    0 -0.00000000000E+00 -0.00000000000E+00 -0.45593999997E+02  0.45594000000E+02  0.51100000000E-03 0.  1.
    9900012    2    1    2    0    0  0.13095355697E+02 -0.13383848069E+02  0.25895862377E+00  0.72461473639E+02  0.69999874089E+02 0.  0.
        -12    1    1    2    0    0 -0.13095355697E+02  0.13383848069E+02 -0.25895862377E+00  0.18726526361E+02  0.00000000000E+00 0.  1.
         11    1    3    3    0    0  0.10549499931E+02 -0.58440462025E+01  0.96519122595E+01  0.15446819587E+02  0.51100000000E-03 0. -1.
        -11    1    3    3    0    0  0.24730056334E+02  0.10384682068E+02  0.50101612643E+00  0.26826634627E+02  0.51100000000E-03 0.  1.
         12    1    3    3    0    0 -0.22184200569E+02 -0.17924483935E+02 -0.98939697622E+01  0.30188019426E+02  0.00000000000E+00 0. -1.
</event>
<event>
 7    1  0.3509180E-013  0.7246147E+02  0.7816164E-02  0.1226708E+00
        -11   -1    0    0    0    0  0.00000000000E+00  0.00000000000E+00  0.45593999997E+02  0.45594000000E+02  0.51100000000E-03 0.  1.
         11   -1    0    0    0    0 -0.00000000000E+00 -0.00000000000E+00 -0.45593999997E+02  0.45594000000E+02  0.51100000000E-03 0. -1.
    9900012    2    1    2    0    0  0.13265061123E+02  0.12453175089E+02 -0.44316643948E+01  0.72461466266E+02  0.69999864483E+02 0.  0.
        -12    1    1    2    0    0 -0.13265061123E+02 -0.12453175089E+02  0.44316643948E+01  0.18726533734E+02  0.00000000000E+00 0.  1.
         11    1    3    3    0    0  0.22234165903E+02 -0.17070917819E+02 -0.17525217988E+02  0.33059153564E+02  0.51100000000E-03 0. -1.
        -11    1    3    3    0    0 -0.17139342248E+01 -0.20816410596E+01 -0.22648307576E+01  0.35214000979E+01  0.51100000000E-03 0.  1.
        -12    1    3    3    0    0 -0.72551705548E+01  0.31605733968E+02  0.15358384351E+02  0.35880912604E+02  0.00000000000E+00 0.  1.
</event>
<event>
 7    1  0.3509180E-013  0.7246147E+02  0.7816164E-02  0.1226708E+00
        -11   -1    0    0    0    0  0.00000000000E+00  0.00000000000E+00  0.45593999997E+02  0.45594000000E+02  0.51100000000E-03 0. -1.
         11   -1    0    0    0    0 -0.00000000000E+00 -0.00000000000E+00 -0.45593999997E+02  0.45594000000E+02  0.51100000000E-03 0.  1.
    9900012    2    1    2    0    0 -0.15651179093E+02 -0.86907872041E+01 -0.54948694636E+01  0.72461473904E+02  0.69999874433E+02 0.  0.
        -12    1    1    2    0    0  0.15651179093E+02  0.86907872041E+01  0.54948694636E+01  0.18726526096E+02  0.00000000000E+00 0.  1.
         11    1    3    3    0    0  0.16028134262E+02  0.12822702313E+02  0.41104841668E+01  0.20933677720E+02  0.51100000000E-03 0. -1.
        -11    1    3    3    0    0  0.62300981667E+01  0.80209356652E+00  0.77680286204E+00  0.63293680730E+01  0.51100000000E-03 0.  1.
         12    1    3    3    0    0 -0.37909411521E+02 -0.22315583084E+02 -0.10382156492E+02  0.45198428111E+02  0.00000000000E+00 0. -1.
</event>
<event>
 7    1  0.3509180E-013  0.7246152E+02  0.7816164E-02  0.1226708E+00
        -11   -1    0    0    0    0  0.00000000000E+00  0.00000000000E+00  0.45593999997E+02  0.45594000000E+02  0.51100000000E-03 0.  1.
         11   -1    0    0    0    0 -0.00000000000E+00 -0.00000000000E+00 -0.45593999997E+02  0.45594000000E+02  0.51100000000E-03 0. -1.
    9900012    2    1    2    0    0 -0.15391848480E+01  0.18255234613E+02 -0.38804978538E+01  0.72461522905E+02  0.69999938267E+02 0.  0.
        -12    1    1    2    0    0  0.15391848480E+01 -0.18255234613E+02  0.38804978538E+01  0.18726477095E+02  0.00000000000E+00 0.  1.
         11    1    3    3    0    0  0.12177360394E+02  0.41846654219E+01 -0.86849817922E+01  0.15531530506E+02  0.51100000000E-03 0. -1.
        -11    1    3    3    0    0 -0.97313944307E+01  0.33552302321E+02  0.10073910000E+02  0.36358502329E+02  0.51100000000E-03 0.  1.
         12    1    3    3    0    0 -0.39851508111E+01 -0.19481733130E+02 -0.52694260618E+01  0.20571490071E+02  0.00000000000E+00 0. -1.
</event>
<event>
 7    1  0.3509180E-013  0.7246162E+02  0.7816164E-02  0.1226708E+00
        -11   -1    0    0    0    0  0.00000000000E+00  0.00000000000E+00  0.45593999997E+02  0.45594000000E+02  0.51100000000E-03 0.  1.
         11   -1    0    0    0    0 -0.00000000000E+00 -0.00000000000E+00 -0.45593999997E+02  0.45594000000E+02  0.51100000000E-03 0. -1.
    9900012    2    1    2    0    0 -0.13030922609E+02 -0.42754393770E+01  0.12751196104E+02  0.72461619464E+02  0.70000064052E+02 0.  0.
        -12    1    1    2    0    0  0.13030922609E+02  0.42754393770E+01 -0.12751196104E+02  0.18726380536E+02  0.00000000000E+00 0.  1.
         11    1    3    3    0    0  0.13467941369E+02 -0.20063547310E+02  0.94185129950E+01  0.25935299549E+02  0.51100000000E-03 0. -1.
        -11    1    3    3    0    0  0.77662179119E+01  0.23291959493E+01 -0.39188253626E+01  0.90053587885E+01  0.51100000000E-03 0.  1.
         12    1    3    3    0    0 -0.34265081890E+02  0.13458911984E+02  0.72515084720E+01  0.37520961126E+02  0.00000000000E+00 0. -1.
</event>
<event>
 7    1  0.3509180E-013  0.7246145E+02  0.7816164E-02  0.1226708E+00
        -11   -1    0    0    0    0  0.00000000000E+00  0.00000000000E+00  0.45593999997E+02  0.45594000000E+02  0.51100000000E-03 0.  1.
         11   -1    0    0    0    0 -0.00000000000E+00 -0.00000000000E+00 -0.45593999997E+02  0.45594000000E+02  0.51100000000E-03 0. -1.
    9900012    2    1    2    0    0 -0.16191522138E+02 -0.46143028092E+01  0.81991800537E+01  0.72461448446E+02  0.69999841269E+02 0.  0.
        -12    1    1    2    0    0  0.16191522138E+02  0.46143028092E+01 -0.81991800537E+01  0.18726551554E+02  0.00000000000E+00 0.  1.
         11    1    3    3    0    0 -0.36400463164E+02  0.12928247662E+02 -0.34545185193E+01  0.38782302724E+02  0.51100000000E-03 0. -1.
        -11    1    3    3    0    0  0.28896185303E+00 -0.12392803234E+01 -0.35584365221E+01  0.37791249537E+01  0.51100000000E-03 0.  1.
        -12    1    3    3    0    0  0.19919979173E+02 -0.16303270147E+02  0.15212135095E+02  0.29900020767E+02  0.00000000000E+00 0.  1.
</event>
<event>
 7    1  0.3509180E-013  0.7246158E+02  0.7816164E-02  0.1226708E+00
        -11   -1    0    0    0    0  0.00000000000E+00  0.00000000000E+00  0.45593999997E+02  0.45594000000E+02  0.51100000000E-03 0.  1.
         11   -1    0    0    0    0 -0.00000000000E+00 -0.00000000000E+00 -0.45593999997E+02  0.45594000000E+02  0.51100000000E-03 0. -1.
    9900012    2    1    2    0    0 -0.10618878011E+02  0.14594447010E+02 -0.49920218783E+01  0.72461581865E+02  0.70000015073E+02 0.  0.
        -12    1    1    2    0    0  0.10618878011E+02 -0.14594447010E+02  0.49920218783E+01  0.18726418135E+02  0.00000000000E+00 0.  1.
         11    1    3    3    0    0 -0.15297830712E+02  0.30292443160E+01 -0.28189901391E+01  0.15847607115E+02  0.51100000000E-03 0. -1.
        -11    1    3    3    0    0 -0.12160236520E+02 -0.18459790355E+02  0.22039158269E+00  0.22106193360E+02  0.51100000000E-03 0.  1.
         12    1    3    3    0    0  0.16839189222E+02  0.30024993049E+02 -0.23934233218E+01  0.34507781389E+02  0.00000000000E+00 0. -1.
</event>
<event>
 7    1  0.3509180E-013  0.7246158E+02  0.7816164E-02  0.1226708E+00
        -11   -1    0    0    0    0  0.00000000000E+00  0.00000000000E+00  0.45593999997E+02  0.45594000000E+02  0.51100000000E-03 0. -1.
         11   -1    0    0    0    0 -0.00000000000E+00 -0.00000000000E+00 -0.45593999997E+02  0.45594000000E+02  0.51100000000E-03 0.  1.
    9900012    2    1    2    0    0 -0.18115067288E+02  0.47357265719E+01  0.30973430158E+00  0.72461582715E+02  0.70000016180E+02 0.  0.
        -12    1    1    2    0    0  0.18115067288E+02 -0.47357265719E+01 -0.30973430158E+00  0.18726417285E+02  0.00000000000E+00 0.  1.
         11    1    3    3    0    0  0.78510385502E+00  0.55142550954E+01 -0.11435713018E+02  0.12720020826E+02  0.51100000000E-03 0. -1.
        -11    1    3    3    0    0 -0.22486345147E+02  0.24357780941E+02  0.76665355897E+01  0.34025181537E+02  0.51100000000E-03 0.  1.
         12    1    3    3    0    0  0.35861740046E+01 -0.25136309465E+02  0.40789117299E+01  0.25716380352E+02  0.00000000000E+00 0. -1.
</event>
<event>
 7    1  0.3509180E-013  0.7246156E+02  0.7816164E-02  0.1226708E+00
        -11   -1    0    0    0    0  0.00000000000E+00  0.00000000000E+00  0.45593999997E+02  0.45594000000E+02  0.51100000000E-03 0. -1.
         11   -1    0    0    0    0 -0.00000000000E+00 -0.00000000000E+00 -0.45593999997E+02  0.45594000000E+02  0.51100000000E-03 0.  1.
    9900012    2    1    2    0    0 -0.11590133096E+02  0.27216530693E+00  0.14706269998E+02  0.72461557829E+02  0.69999983761E+02 0.  0.
        -12    1    1    2    0    0  0.11590133096E+02 -0.27216530693E+00 -0.14706269998E+02  0.18726442171E+02  0.00000000000E+00 0.  1.
         11    1    3    3    0    0 -0.88044335350E+01 -0.16879721567E+02  0.14228100698E+02  0.23767244262E+02  0.51100000000E-03 0. -1.
        -11    1    3    3    0    0 -0.14385779182E+02 -0.61169175971E+01  0.12532630712E+02  0.20035821829E+02  0.51100000000E-03 0.  1.
        -12    1    3    3    0    0  0.11600079621E+02  0.23268804471E+02 -0.12054461412E+02  0.28658491738E+02  0.00000000000E+00 0.  1.
</event>
<event>
 7    1  0.3509180E-013  0.7246158E+02  0.7816164E-02  0.1226708E+00
        -11   -1    0    0    0    0  0.00000000000E+00  0.00000000000E+00  0.45593999997E+02  0.45594000000E+02  0.51100000000E-03 0.  1.
         11   -1    0    0    0    0 -0.00000000000E+00 -0.00000000000E+00 -0.45593999997E+02  0.45594000000E+02  0.51100000000E-03 0. -1.
    9900012    2    1    2    0    0 -0.83948913882E+01 -0.84032300921E+01 -0.14477237200E+02  0.72461578175E+02  0.70000010266E+02 0.  0.
        -12    1    1    2    0    0  0.83948913882E+01  0.84032300921E+01  0.14477237200E+02  0.18726421825E+02  0.00000000000E+00 0.  1.
         11    1    3    3    0    0  0.10952953942E+02 -0.71379396756E+01  0.37611598242E+01  0.13603812199E+02  0.51100000000E-03 0. -1.
        -11    1    3    3    0    0  0.76341140235E+01 -0.21101825542E+02 -0.82855626411E+01  0.23921063661E+02  0.51100000000E-03 0.  1.
         12    1    3    3    0    0 -0.26981959354E+02  0.19836535126E+02 -0.99528343836E+01  0.34936702315E+02  0.00000000000E+00 0. -1.
</event>
<event>
 7    1  0.3509180E-013  0.7246156E+02  0.7816164E-02  0.1226708E+00
        -11   -1    0    0    0    0  0.00000000000E+00  0.00000000000E+00  0.45593999997E+02  0.45594000000E+02  0.51100000000E-03 0.  1.
         11   -1    0    0    0    0 -0.00000000000E+00 -0.00000000000E+00 -0.45593999997E+02  0.45594000000E+02  0.51100000000E-03 0. -1.
    9900012    2    1    2    0    0 -0.13970031052E+02 -0.62642828613E+01 -0.10783154301E+02  0.72461563499E+02  0.69999991148E+02 0.  0.
        -12    1    1    2    0    0  0.13970031052E+02  0.62642828613E+01  0.10783154301E+02  0.18726436501E+02  0.00000000000E+00 0.  1.
         11    1    3    3    0    0 -0.19487260757E+01  0.38446207153E+01 -0.52085586749E+01  0.67607488856E+01  0.51100000000E-03 0. -1.
        -11    1    3    3    0    0  0.11476923447E+02  0.17573586840E+01 -0.28511865965E+02  0.30785298154E+02  0.51100000000E-03 0.  1.
        -12    1    3    3    0    0 -0.23498228422E+02 -0.11866262261E+02  0.22937270339E+02  0.34915516459E+02  0.00000000000E+00 0.  1.
</event>
<event>
 7    1  0.3509180E-013  0.7246124E+02  0.7816164E-02  0.1226709E+00
        -11   -1    0    0    0    0  0.00000000000E+00  0.00000000000E+00  0.45593999997E+02  0.45594000000E+02  0.51100000000E-03 0.  1.
         11   -1    0    0    0    0 -0.00000000000E+00 -0.00000000000E+00 -0.45593999997E+02  0.45594000000E+02  0.51100000000E-03 0. -1.
    9900012    2    1    2    0    0 -0.86576466581E+01  0.99312429630E+01 -0.13308161710E+02  0.72461238386E+02  0.69999567626E+02 0.  0.
        -12    1    1    2    0    0  0.86576466581E+01 -0.99312429630E+01  0.13308161710E+02  0.18726761614E+02  0.00000000000E+00 0.  1.
         11    1    3    3    0    0 -0.16599328711E+02  0.93198231420E+01 -0.21748788266E+02  0.28903401329E+02  0.51100000000E-03 0. -1.
        -11    1    3    3    0    0 -0.16558854129E+02 -0.34974392272E+01  0.79792778217E+01  0.18710868660E+02  0.51100000000E-03 0.  1.
         12    1    3    3    0    0  0.24500536182E+02  0.41088590482E+01  0.46134873377E+00  0.24846968397E+02  0.00000000000E+00 0. -1.
</event>
<event>
 7    1  0.3509180E-013  0.7246156E+02  0.7816164E-02  0.1226708E+00
        -11   -1    0    0    0    0  0.00000000000E+00  0.00000000000E+00  0.45593999997E+02  0.45594000000E+02  0.51100000000E-03 0.  1.
         11   -1    0    0    0    0 -0.00000000000E+00 -0.00000000000E+00 -0.45593999997E+02  0.45594000000E+02  0.51100000000E-03 0. -1.
    9900012    2    1    2    0    0 -0.91741346907E+01  0.95107538726E+01 -0.13268775987E+02  0.72461558727E+02  0.69999984932E+02 0.  0.
        -12    1    1    2    0    0  0.91741346907E+01 -0.95107538726E+01  0.13268775987E+02  0.18726441273E+02  0.00000000000E+00 0.  1.
         11    1    3    3    0    0  0.66456528845E+00  0.29896373883E+01  0.77075939189E+01  0.82937677214E+01  0.51100000000E-03 0. -1.
        -11    1    3    3    0    0 -0.64040023515E+01 -0.25888678453E+01  0.20464391176E+02  0.21598721937E+02  0.51100000000E-03 0.  1.
         12    1    3    3    0    0 -0.34346976276E+01  0.91099843295E+01 -0.41440761082E+02  0.42569069069E+02  0.00000000000E+00 0. -1.
</event>
<event>
 7    1  0.3509180E-013  0.7246154E+02  0.7816164E-02  0.1226708E+00
        -11   -1    0    0    0    0  0.00000000000E+00  0.00000000000E+00  0.45593999997E+02  0.45594000000E+02  0.51100000000E-03 0. -1.
         11   -1    0    0    0    0 -0.00000000000E+00 -0.00000000000E+00 -0.45593999997E+02  0.45594000000E+02  0.51100000000E-03 0.  1.
    9900012    2    1    2    0    0 -0.13760450046E+02 -0.81323856298E+01  0.97567701486E+01  0.72461541573E+02  0.69999962585E+02 0.  0.
        -12    1    1    2    0    0  0.13760450046E+02  0.81323856298E+01 -0.97567701486E+01  0.18726458427E+02  0.00000000000E+00 0.  1.
         11    1    3    3    0    0 -0.30066859768E+02 -0.14111547718E+02 -0.21473713816E+01  0.33283074369E+02  0.51100000000E-03 0. -1.
        -11    1    3    3    0    0 -0.71884756035E+01  0.77313825924E+01 -0.33919203917E+01  0.11088443646E+02  0.51100000000E-03 0.  1.
        -12    1    3    3    0    0  0.23494885326E+02 -0.17522205043E+01  0.15296061922E+02  0.28090023558E+02  0.00000000000E+00 0.  1.
</event>
<event>
 7    1  0.3509180E-013  0.7246154E+02  0.7816164E-02  0.1226708E+00
        -11   -1    0    0    0    0  0.00000000000E+00  0.00000000000E+00  0.45593999997E+02  0.45594000000E+02  0.51100000000E-03 0. -1.
         11   -1    0    0    0    0 -0.00000000000E+00 -0.00000000000E+00 -0.45593999997E+02  0.45594000000E+02  0.51100000000E-03 0.  1.
    9900012    2    1    2    0    0 -0.97293937365E+01 -0.12360556603E+02  0.10160497282E+02  0.72461543661E+02  0.69999965305E+02 0.  0.
        -12    1    1    2    0    0  0.97293937365E+01  0.12360556603E+02 -0.10160497282E+02  0.18726456339E+02  0.00000000000E+00 0.  1.
         11    1    3    3    0    0 -0.70459216802E+01 -0.26113351609E+01 -0.48866295477E+01  0.89634386395E+01  0.51100000000E-03 0. -1.
        -11    1    3    3    0    0  0.20494812984E+02  0.15141482698E+01 -0.13847909007E+02  0.24780931950E+02  0.51100000000E-03 0.  1.
         12    1    3    3    0    0 -0.23178285040E+02 -0.11263369711E+02  0.28895035836E+02  0.38717173071E+02  0.00000000000E+00 0. -1.
</event>
<event>
 7    1  0.3509180E-013  0.7246156E+02  0.7816164E-02  0.1226708E+00
        -11   -1    0    0    0    0  0.00000000000E+00  0.00000000000E+00  0.45593999997E+02  0.45594000000E+02  0.51100000000E-03 0.  1.
         11   -1    0    0    0    0 -0.00000000000E+00 -0.00000000000E+00 -0.45593999997E+02  0.45594000000E+02  0.51100000000E-03 0. -1.
    9900012    2    1    2    0    0  0.26951096831E+01 -0.18508883871E+02 -0.91488681278E+00  0.72461563707E+02  0.69999991419E+02 0.  0.
        -12    1    1    2    0    0 -0.26951096831E+01  0.18508883871E+02  0.91488681278E+00  0.18726436293E+02  0.00000000000E+00 0.  1.
         11    1    3    3    0    0  0.32391074997E+00 -0.14419949175E+02 -0.83237256887E+00  0.14447584460E+02  0.51100000000E-03 0. -1.
        -11    1    3    3    0    0  0.35891407313E+00  0.12304136434E+02  0.25066920411E+02  0.27926172166E+02  0.51100000000E-03 0.  1.
         12    1    3    3    0    0  0.20122848600E+01 -0.16393071131E+02 -0.25149434655E+02  0.30087807081E+02  0.00000000000E+00 0. -1.
</event>
<event>
 7    1  0.3509180E-013  0.7246172E+02  0.7816164E-02  0.1226708E+00
        -11   -1    0    0    0    0  0.00000000000E+00  0.00000000000E+00  0.45593999997E+02  0.45594000000E+02  0.51100000000E-03 0. -1.
         11   -1    0    0    0    0 -0.00000000000E+00 -0.00000000000E+00 -0.45593999997E+02  0.45594000000E+02  0.51100000000E-03 0.  1.
    9900012    2    1    2    0    0 -0.41154387947E+01  0.16781202446E+01 -0.18191224486E+02  0.72461719742E+02  0.70000194683E+02 0.  0.
        -12    1    1    2    0    0  0.41154387947E+01 -0.16781202446E+01  0.18191224486E+02  0.18726280258E+02  0.00000000000E+00 0.  1.
         11    1    3    3    0    0 -0.66988218572E+01 -0.90978526778E+01 -0.27406298741E+01  0.11625669443E+02  0.51100000000E-03 0. -1.
        -11    1    3    3    0    0 -0.10577493659E+02 -0.51531333054E+01 -0.32171362648E+02  0.34255433582E+02  0.51100000000E-03 0.  1.
         12    1    3    3    0    0  0.13160876722E+02  0.15929106228E+02  0.16720768037E+02  0.26580616717E+02  0.00000000000E+00 0. -1.
</event>
<event>
 7    1  0.3509180E-013  0.7246155E+02  0.7816164E-02  0.1226708E+00
        -11   -1    0    0    0    0  0.00000000000E+00  0.00000000000E+00  0.45593999997E+02  0.45594000000E+02  0.51100000000E-03 0. -1.
         11   -1    0    0    0    0 -0.00000000000E+00 -0.00000000000E+00 -0.45593999997E+02  0.45594000000E+02  0.51100000000E-03 0.  1.
    9900012    2    1    2    0    0  0.66015736147E+01 -0.17099290812E+02 -0.38358201138E+01  0.72461547149E+02  0.69999969848E+02 0.  0.
        -12    1    1    2    0    0 -0.66015736147E+01  0.17099290812E+02  0.38358201138E+01  0.18726452851E+02  0.00000000000E+00 0.  1.
         11    1    3    3    0    0 -0.13068979177E+02  0.87505188973E+00  0.24625286366E+02  0.27892089585E+02  0.51100000000E-03 0. -1.
        -11    1    3    3    0    0 -0.66493681060E+00  0.41199101377E+01 -0.24312186153E+01  0.48297644581E+01  0.51100000000E-03 0.  1.
        -12    1    3    3    0    0  0.20335489603E+02 -0.22094252839E+02 -0.26029887864E+02  0.39739693106E+02  0.00000000000E+00 0.  1.
</event>
<event>
 7    1  0.3509180E-013  0.7246157E+02  0.7816164E-02  0.1226708E+00
        -11   -1    0    0    0    0  0.00000000000E+00  0.00000000000E+00  0.45593999997E+02  0.45594000000E+02  0.51100000000E-03 0.  1.
         11   -1    0    0    0    0 -0.00000000000E+00 -0.00000000000E+00 -0.45593999997E+02  0.45594000000E+02  0.51100000000E-03 0. -1.
    9900012    2    1    2    0    0  0.59984511657E+01 -0.16009485299E+02 -0.76416107020E+01  0.72461568144E+02  0.69999997199E+02 0.  0.
        -12    1    1    2    0    0 -0.59984511657E+01  0.16009485299E+02  0.76416107020E+01  0.18726431856E+02  0.00000000000E+00 0.  1.
         11    1    3    3    0    0  0.31642030049E+01  0.24073778865E+02 -0.12344334850E+02  0.27238605189E+02  0.51100000000E-03 0. -1.
        -11    1    3    3    0    0 -0.48839704119E+01 -0.18786078602E+01 -0.21343525888E+01  0.56513534406E+01  0.51100000000E-03 0.  1.
        -12    1    3    3    0    0  0.77182185727E+01 -0.38204656304E+02  0.68370767373E+01  0.39571609514E+02  0.00000000000E+00 0.  1.
</event>
<event>
 7    1  0.3509180E-013  0.7246143E+02  0.7816164E-02  0.1226708E+00
        -11   -1    0    0    0    0  0.00000000000E+00  0.00000000000E+00  0.45593999997E+02  0.45594000000E+02  0.51100000000E-03 0. -1.
         11   -1    0    0    0    0 -0.00000000000E+00 -0.00000000000E+00 -0.45593999997E+02  0.45594000000E+02  0.51100000000E-03 0.  1.
    9900012    2    1    2    0    0  0.14632426929E+02  0.14232355085E+01  0.11599613617E+02  0.72461426549E+02  0.69999812745E+02 0.  0.
        -12    1    1    2    0    0 -0.14632426929E+02 -0.14232355085E+01 -0.11599613617E+02  0.18726573451E+02  0.00000000000E+00 0.  1.
         11    1    3    3    0    0  0.50640194631E+01 -0.13879422695E+02 -0.48018578814E+01  0.15535137813E+02  0.51100000000E-03 0. -1.
        -11    1    3    3    0    0 -0.59998898605E+01 -0.89330354477E+01 -0.12245127484E+02  0.16301562748E+02  0.51100000000E-03 0.  1.
         12    1    3    3    0    0  0.15568297327E+02  0.24235693652E+02  0.28646598982E+02  0.40624725989E+02  0.00000000000E+00 0. -1.
</event>
<event>
 7    1  0.3509180E-013  0.7246136E+02  0.7816164E-02  0.1226709E+00
        -11   -1    0    0    0    0  0.00000000000E+00  0.00000000000E+00  0.45593999997E+02  0.45594000000E+02  0.51100000000E-03 0.  1.
         11   -1    0    0    0    0 -0.00000000000E+00 -0.00000000000E+00 -0.45593999997E+02  0.45594000000E+02  0.51100000000E-03 0. -1.
    9900012    2    1    2    0    0  0.14947260570E+02  0.16770579999E+01 -0.11155891662E+02  0.72461360129E+02  0.69999726220E+02 0.  0.
        -12    1    1    2    0    0 -0.14947260570E+02 -0.16770579999E+01  0.11155891662E+02  0.18726639871E+02  0.00000000000E+00 0.  1.
         11    1    3    3    0    0 -0.10995724254E+02 -0.10093801672E+02 -0.57647086411E+01  0.16000707798E+02  0.51100000000E-03 0. -1.
        -11    1    3    3    0    0  0.84874624842E+00  0.23037295358E+02  0.97860776096E+01  0.25044054441E+02  0.51100000000E-03 0.  1.
         12    1    3    3    0    0  0.25094238575E+02 -0.11266435686E+02 -0.15177260631E+02  0.31416597890E+02  0.00000000000E+00 0. -1.
</event>
<event>
 7    1  0.3509180E-013  0.7246161E+02  0.7816164E-02  0.1226708E+00
        -11   -1    0    0    0    0  0.00000000000E+00  0.00000000000E+00  0.45593999997E+02  0.45594000000E+02  0.51100000000E-03 0. -1.
         11   -1    0    0    0    0 -0.00000000000E+00 -0.00000000000E+00 -0.45593999997E+02  0.45594000000E+02  0.51100000000E-03 0.  1.
    9900012    2    1    2    0    0 -0.15427205274E+02 -0.83102264033E+01  0.66044731654E+01  0.72461612435E+02  0.70000054896E+02 0.  0.
        -12    1    1    2    0    0  0.15427205274E+02  0.83102264033E+01 -0.66044731654E+01  0.18726387565E+02  0.00000000000E+00 0.  1.
         11    1    3    3    0    0 -0.68932037786E+01  0.11060592836E+02  0.35544027464E+01  0.13508765723E+02  0.51100000000E-03 0. -1.
        -11    1    3    3    0    0 -0.19173504020E+02  0.84808373348E+01 -0.13418846900E+02  0.24892033076E+02  0.51100000000E-03 0.  1.
         12    1    3    3    0    0  0.10639502524E+02 -0.27851656574E+02  0.16468917319E+02  0.34060813636E+02  0.00000000000E+00 0. -1.
</event>
<event>
 7    1  0.3509180E-013  0.7246162E+02  0.7816164E-02  0.1226708E+00
        -11   -1    0    0    0    0  0.00000000000E+00  0.00000000000E+00  0.45593999997E+02  0.45594000000E+02  0.51100000000E-03 0. -1.
         11   -1    0    0    0    0 -0.00000000000E+00 -0.00000000000E+00 -0.45593999997E+02  0.45594000000E+02  0.51100000000E-03 0.  1.
    9900012    2    1    2    0    0 -0.16953555683E+02  0.78572300271E+01  0.12321338777E+01  0.72461621069E+02  0.70000066143E+02 0.  0.
        -12    1    1    2    0    0  0.16953555683E+02 -0.78572300271E+01 -0.12321338777E+01  0.18726378931E+02  0.00000000000E+00 0.  1.
         11    1    3    3    0    0  0.58131710239E+01  0.34475788966E+01  0.22072084102E+02  0.23083666400E+02  0.51100000000E-03 0. -1.
        -11    1    3    3    0    0  0.28970675132E+01 -0.12920715814E+02 -0.27833775069E+01  0.13530893833E+02  0.51100000000E-03 0.  1.
        -12    1    3    3    0    0 -0.25663794220E+02  0.17330366945E+02 -0.18056572718E+02  0.35847060835E+02  0.00000000000E+00 0.  1.
</event>
<event>
 7    1  0.3509180E-013  0.7246157E+02  0.7816164E-02  0.1226708E+00
        -11   -1    0    0    0    0  0.00000000000E+00  0.00000000000E+00  0.45593999997E+02  0.45594000000E+02  0.51100000000E-03 0. -1.
         11   -1    0    0    0    0 -0.00000000000E+00 -0.00000000000E+00 -0.45593999997E+02  0.45594000000E+02  0.51100000000E-03 0.  1.
    9900012    2    1    2    0    0  0.64723199582E+01  0.16313680911E+02  0.65308679917E+01  0.72461565550E+02  0.69999993819E+02 0.  0.
        -12    1    1    2    0    0 -0.64723199582E+01 -0.16313680911E+02 -0.65308679917E+01  0.18726434450E+02  0.00000000000E+00 0.  1.
         11    1    3    3    0    0  0.10191752412E+02  0.18799852461E+02  0.24645148777E+02  0.32629582104E+02  0.51100000000E-03 0. -1.
        -11    1    3    3    0    0  0.62389702465E+01  0.10623265931E+02  0.33633075185E+01  0.12770683870E+02  0.51100000000E-03 0.  1.
        -12    1    3    3    0    0 -0.99584027005E+01 -0.13109437481E+02 -0.21477588304E+02  0.27061299576E+02  0.00000000000E+00 0.  1.
</event>
<event>
 7    1  0.3509180E-013  0.7246156E+02  0.7816164E-02  0.1226708E+00
        -11   -1    0    0    0    0  0.00000000000E+00  0.00000000000E+00  0.45593999997E+02  0.45594000000E+02  0.51100000000E-03 0. -1.
         11   -1    0    0    0    0 -0.00000000000E+00 -0.00000000000E+00 -0.45593999997E+02  0.45594000000E+02  0.51100000000E-03 0.  1.
    9900012    2    1    2    0    0  0.42808867282E+01  0.12019734550E+02  0.13706912648E+02  0.72461562427E+02  0.69999989751E+02 0.  0.
        -12    1    1    2    0    0 -0.42808867282E+01 -0.12019734550E+02 -0.13706912648E+02  0.18726437573E+02  0.00000000000E+00 0.  1.
         11    1    3    3    0    0 -0.15989386720E+02 -0.49893212708E+01 -0.43479105180E+01  0.17304858872E+02  0.51100000000E-03 0. -1.
        -11    1    3    3    0    0 -0.38325991543E+01 -0.11782463855E+02  0.11762955286E+02  0.17084565785E+02  0.51100000000E-03 0.  1.
        -12    1    3    3    0    0  0.24102872603E+02  0.28791519676E+02  0.62918678802E+01  0.38072137770E+02  0.00000000000E+00 0.  1.
</event>
<event>
 7    1  0.3509180E-013  0.7246157E+02  0.7816164E-02  0.1226708E+00
        -11   -1    0    0    0    0  0.00000000000E+00  0.00000000000E+00  0.45593999997E+02  0.45594000000E+02  0.51100000000E-03 0. -1.
         11   -1    0    0    0    0 -0.00000000000E+00 -0.00000000000E+00 -0.45593999997E+02  0.45594000000E+02  0.51100000000E-03 0.  1.
    9900012    2    1    2    0    0  0.27092752635E+00  0.18474713971E+02  0.30480785547E+01  0.72461568388E+02  0.69999997517E+02 0.  0.
        -12    1    1    2    0    0 -0.27092752635E+00 -0.18474713971E+02 -0.30480785547E+01  0.18726431612E+02  0.00000000000E+00 0.  1.
         11    1    3    3    0    0 -0.57410079839E+01  0.74861347737E+01  0.16161380859E+02  0.18713407441E+02  0.51100000000E-03 0. -1.
        -11    1    3    3    0    0  0.22002583975E+02  0.79975522988E+01  0.10021908035E+02  0.25465922039E+02  0.51100000000E-03 0.  1.
        -12    1    3    3    0    0 -0.15990648465E+02  0.29910268983E+01 -0.23135210340E+02  0.28282238909E+02  0.00000000000E+00 0.  1.
</event>
<event>
 7    1  0.3509180E-013  0.7246154E+02  0.7816164E-02  0.1226708E+00
        -11   -1    0    0    0    0  0.00000000000E+00  0.00000000000E+00  0.45593999997E+02  0.45594000000E+02  0.51100000000E-03 0. -1.
         11   -1    0    0    0    0 -0.00000000000E+00 -0.00000000000E+00 -0.45593999997E+02  0.45594000000E+02  0.51100000000E-03 0.  1.
    9900012    2    1    2    0    0 -0.21890264232E+01 -0.80307419938E+01  0.16774851716E+02  0.72461540010E+02  0.69999960549E+02 0.  0.
        -12    1    1    2    0    0  0.21890264232E+01  0.80307419938E+01 -0.16774851716E+02  0.18726459990E+02  0.00000000000E+00 0.  1.
         11    1    3    3    0    0 -0.35019422422E+01 -0.25290186790E+01 -0.42127629759E+00  0.43401623157E+01  0.51100000000E-03 0. -1.
        -11    1    3    3    0    0 -0.35154101892E+01 -0.34539420414E+02  0.14732758018E+01  0.34749103775E+02  0.51100000000E-03 0.  1.
         12    1    3    3    0    0  0.48283260083E+01  0.29037697099E+02  0.15722852212E+02  0.33372273919E+02  0.00000000000E+00 0. -1.
</event>
<event>
 7    1  0.3509180E-013  0.7246158E+02  0.7816164E-02  0.1226708E+00
        -11   -1    0    0    0    0  0.00000000000E+00  0.00000000000E+00  0.45593999997E+02  0.45594000000E+02  0.51100000000E-03 0.  1.
         11   -1    0    0    0    0 -0.00000000000E+00 -0.00000000000E+00 -0.45593999997E+02  0.45594000000E+02  0.51100000000E-03 0. -1.
    9900012    2    1    2    0    0 -0.11674993254E+02 -0.11072587933E+02 -0.95797185808E+01  0.72461583389E+02  0.70000017058E+02 0.  0.
        -12    1    1    2    0    0  0.11674993254E+02  0.11072587933E+02  0.95797185808E+01  0.18726416611E+02  0.00000000000E+00 0.  1.
         11    1    3    3    0    0 -0.16850358796E+02 -0.89579856966E+01 -0.26748579294E+02  0.32858280445E+02  0.51100000000E-03 0. -1.
        -11    1    3    3    0    0 -0.14495823945E+02 -0.54967555113E+01  0.97238910018E+01  0.18300199165E+02  0.51100000000E-03 0.  1.
        -12    1    3    3    0    0  0.19671189487E+02  0.33821532749E+01  0.74449697113E+01  0.21303103779E+02  0.00000000000E+00 0.  1.
</event>
<event>
 7    1  0.3509180E-013  0.7246185E+02  0.7816164E-02  0.1226707E+00
        -11   -1    0    0    0    0  0.00000000000E+00  0.00000000000E+00  0.45593999997E+02  0.45594000000E+02  0.51100000000E-03 0. -1.
         11   -1    0    0    0    0 -0.00000000000E+00 -0.00000000000E+00 -0.45593999997E+02  0.45594000000E+02  0.51100000000E-03 0.  1.
    9900012    2    1    2    0    0 -0.11161959453E+02 -0.77258928995E+01  0.12899225361E+02  0.72461847837E+02  0.70000361550E+02 0.  0.
        -12    1    1    2    0    0  0.11161959453E+02  0.77258928995E+01 -0.12899225361E+02  0.18726152163E+02  0.00000000000E+00 0.  1.
         11    1    3    3    0    0 -0.15880489258E+02 -0.17269412493E+02  0.10603809637E+02  0.25746132253E+02  0.51100000000E-03 0. -1.
        -11    1    3    3    0    0  0.37947435083E+01 -0.10431131246E+02  0.18096934357E+02  0.21229875429E+02  0.51100000000E-03 0.  1.
         12    1    3    3    0    0  0.92378629664E+00  0.19974650839E+02 -0.15801518633E+02  0.25485840154E+02  0.00000000000E+00 0. -1.
</event>
<event>
 7    1  0.3509180E-013  0.7246157E+02  0.7816164E-02  0.1226708E+00
        -11   -1    0    0    0    0  0.00000000000E+00  0.00000000000E+00  0.45593999997E+02  0.45594000000E+02  0.51100000000E-03 0. -1.
         11   -1    0    0    0    0 -0.00000000000E+00 -0.00000000000E+00 -0.45593999997E+02  0.45594000000E+02  0.51100000000E-03 0.  1.
    9900012    2    1    2    0    0  0.75690557691E+01  0.16303860914E+02  0.52509730741E+01  0.72461569369E+02  0.69999998795E+02 0.  0.
        -12    1    1    2    0    0 -0.75690557691E+01 -0.16303860914E+02 -0.52509730741E+01  0.18726430631E+02  0.00000000000E+00 0.  1.
         11    1    3    3    0    0  0.14088450431E+02 -0.14965041311E+02  0.76623420903E+01  0.21935094792E+02  0.51100000000E-03 0. -1.
        -11    1    3    3    0    0  0.13238975981E+02  0.24566742289E+02  0.50658460372E+01  0.28362970720E+02  0.51100000000E-03 0.  1.
         12    1    3    3    0    0 -0.19758370643E+02  0.67021599354E+01 -0.74772150535E+01  0.22163503857E+02  0.00000000000E+00 0. -1.
</event>
<event>
 7    1  0.3509180E-013  0.7246156E+02  0.7816164E-02  0.1226708E+00
        -11   -1    0    0    0    0  0.00000000000E+00  0.00000000000E+00  0.45593999997E+02  0.45594000000E+02  0.51100000000E-03 0.  1.
         11   -1    0    0    0    0 -0.00000000000E+00 -0.00000000000E+00 -0.45593999997E+02  0.45594000000E+02  0.51100000000E-03 0. -1.
    9900012    2    1    2    0    0 -0.14022393137E+02  0.11377487386E+02 -0.49603421638E+01  0.72461555520E+02  0.69999980753E+02 0.  0.
        -12    1    1    2    0    0  0.14022393137E+02 -0.11377487386E+02  0.49603421638E+01  0.18726444480E+02  0.00000000000E+00 0.  1.
         11    1    3    3    0    0 -0.16122466596E+02 -0.59005015695E+01 -0.11629096867E+02  0.20736097562E+02  0.51100000000E-03 0. -1.
        -11    1    3    3    0    0 -0.18166232684E+02  0.46197939559E+00  0.15567177254E+02  0.23928277055E+02  0.51100000000E-03 0.  1.
         12    1    3    3    0    0  0.20266306144E+02  0.16816009560E+02 -0.88984225502E+01  0.27797180902E+02  0.00000000000E+00 0. -1.
</event>
<event>
 7    1  0.3509180E-013  0.7246158E+02  0.7816164E-02  0.1226708E+00
        -11   -1    0    0    0    0  0.00000000000E+00  0.00000000000E+00  0.45593999997E+02  0.45594000000E+02  0.51100000000E-03 0. -1.
         11   -1    0    0    0    0 -0.00000000000E+00 -0.00000000000E+00 -0.45593999997E+02  0.45594000000E+02  0.51100000000E-03 0.  1.
    9900012    2    1    2    0    0  0.17432863424E+02  0.41750859805E+01  0.54168787830E+01  0.72461584276E+02  0.70000018214E+02 0.  0.
        -12    1    1    2    0    0 -0.17432863424E+02 -0.41750859805E+01 -0.54168787830E+01  0.18726415724E+02  0.00000000000E+00 0.  1.
         11    1    3    3    0    0  0.22414308159E+02  0.25144819380E+01  0.26233861577E+01  0.22706958952E+02  0.51100000000E-03 0. -1.
        -11    1    3    3    0    0  0.92265422598E+01 -0.66408103840E+01 -0.19184094466E+02  0.22299303248E+02  0.51100000000E-03 0.  1.
         12    1    3    3    0    0 -0.14207986995E+02  0.83014144264E+01  0.21977587091E+02  0.27455322076E+02  0.00000000000E+00 0. -1.
</event>
<event>
 7    1  0.3509180E-013  0.7246150E+02  0.7816164E-02  0.1226708E+00
        -11   -1    0    0    0    0  0.00000000000E+00  0.00000000000E+00  0.45593999997E+02  0.45594000000E+02  0.51100000000E-03 0. -1.
         11   -1    0    0    0    0 -0.00000000000E+00 -0.00000000000E+00 -0.45593999997E+02  0.45594000000E+02  0.51100000000E-03 0.  1.
    9900012    2    1    2    0    0 -0.78769095736E+01 -0.90011606729E+01 -0.14408855387E+02  0.72461502425E+02  0.69999911587E+02 0.  0.
        -12    1    1    2    0    0  0.78769095736E+01  0.90011606729E+01  0.14408855387E+02  0.18726497575E+02  0.00000000000E+00 0.  1.
         11    1    3    3    0    0 -0.71825715587E+01 -0.15840959862E+02  0.57538008700E+01  0.18320250224E+02  0.51100000000E-03 0. -1.
        -11    1    3    3    0    0 -0.15060215466E+02 -0.13120839710E+02 -0.21708921869E+02  0.29499895145E+02  0.51100000000E-03 0.  1.
        -12    1    3    3    0    0  0.14365877451E+02  0.19960638900E+02  0.15462656119E+01  0.24641357056E+02  0.00000000000E+00 0.  1.
</event>
<event>
 7    1  0.3509180E-013  0.7246155E+02  0.7816164E-02  0.1226708E+00
        -11   -1    0    0    0    0  0.00000000000E+00  0.00000000000E+00  0.45593999997E+02  0.45594000000E+02  0.51100000000E-03 0.  1.
         11   -1    0    0    0    0 -0.00000000000E+00 -0.00000000000E+00 -0.45593999997E+02  0.45594000000E+02  0.51100000000E-03 0. -1.
    9900012    2    1    2    0    0 -0.69743524856E+01 -0.51271439339E+01  0.16605738742E+02  0.72461554618E+02  0.69999979578E+02 0.  0.
        -12    1    1    2    0    0  0.69743524856E+01  0.51271439339E+01 -0.16605738742E+02  0.18726445382E+02  0.00000000000E+00 0.  1.
         11    1    3    3    0    0 -0.65777474109E+01 -0.11033604997E+02 -0.73766545748E+01  0.14812907656E+02  0.51100000000E-03 0. -1.
        -11    1    3    3    0    0  0.18650093750E+02 -0.75705063520E-01 -0.77192141795E+01  0.20184597988E+02  0.51100000000E-03 0.  1.
         12    1    3    3    0    0 -0.19046698824E+02  0.59821661270E+01  0.31701607496E+02  0.37464048974E+02  0.00000000000E+00 0. -1.
</event>
<event>
 7    1  0.3509180E-013  0.7246154E+02  0.7816164E-02  0.1226708E+00
        -11   -1    0    0    0    0  0.00000000000E+00  0.00000000000E+00  0.45593999997E+02  0.45594000000E+02  0.51100000000E-03 0.  1.
         11   -1    0    0    0    0 -0.00000000000E+00 -0.00000000000E+00 -0.45593999997E+02  0.45594000000E+02  0.51100000000E-03 0. -1.
    9900012    2    1    2    0    0 -0.16096676363E+02 -0.27033821182E+00 -0.95657780420E+01  0.72461543255E+02  0.69999964776E+02 0.  0.
        -12    1    1    2    0    0  0.16096676363E+02  0.27033821182E+00  0.95657780420E+01  0.18726456745E+02  0.00000000000E+00 0.  1.
         11    1    3    3    0    0 -0.66756464640E+01 -0.77257157391E+01 -0.11910180006E+02  0.15687680754E+02  0.51100000000E-03 0. -1.
        -11    1    3    3    0    0 -0.29968101135E+02  0.11629851266E+02 -0.83849710962E+01  0.33221202065E+02  0.51100000000E-03 0.  1.
         12    1    3    3    0    0  0.20547071236E+02 -0.41744737386E+01  0.10729373060E+02  0.23552660436E+02  0.00000000000E+00 0. -1.
</event>
<event>
 7    1  0.3509180E-013  0.7246160E+02  0.7816164E-02  0.1226708E+00
        -11   -1    0    0    0    0  0.00000000000E+00  0.00000000000E+00  0.45593999997E+02  0.45594000000E+02  0.51100000000E-03 0. -1.
         11   -1    0    0    0    0 -0.00000000000E+00 -0.00000000000E+00 -0.45593999997E+02  0.45594000000E+02  0.51100000000E-03 0.  1.
    9900012    2    1    2    0    0  0.17354170597E+02  0.54287229866E+01 -0.44765893067E+01  0.72461598258E+02  0.70000036428E+02 0.  0.
        -12    1    1    2    0    0 -0.17354170597E+02 -0.54287229866E+01  0.44765893067E+01  0.18726401742E+02  0.00000000000E+00 0.  1.
         11    1    3    3    0    0 -0.59280485733E+01 -0.80458950163E+01  0.14197458308E+02  0.17362200586E+02  0.51100000000E-03 0. -1.
        -11    1    3    3    0    0  0.71430449594E+01 -0.98066700674E+00 -0.29858448782E+02  0.30716636583E+02  0.51100000000E-03 0.  1.
         12    1    3    3    0    0  0.16139174211E+02  0.14455285010E+02  0.11184401167E+02  0.24382761090E+02  0.00000000000E+00 0. -1.
</event>
<event>
 7    1  0.3509180E-013  0.7246161E+02  0.7816164E-02  0.1226708E+00
        -11   -1    0    0    0    0  0.00000000000E+00  0.00000000000E+00  0.45593999997E+02  0.45594000000E+02  0.51100000000E-03 0. -1.
         11   -1    0    0    0    0 -0.00000000000E+00 -0.00000000000E+00 -0.45593999997E+02  0.45594000000E+02  0.51100000000E-03 0.  1.
    9900012    2    1    2    0    0 -0.10975852104E+02  0.14835159060E+02  0.31821976021E+01  0.72461610724E+02  0.70000052667E+02 0.  0.
        -12    1    1    2    0    0  0.10975852104E+02 -0.14835159060E+02 -0.31821976021E+01  0.18726389276E+02  0.00000000000E+00 0.  1.
         11    1    3    3    0    0  0.22994134515E+01  0.97870858559E+01 -0.87191493165E+00  0.10091312486E+02  0.51100000000E-03 0. -1.
        -11    1    3    3    0    0 -0.18505674084E+02  0.14163152955E+01 -0.25834911805E+02  0.31810510693E+02  0.51100000000E-03 0.  1.
         12    1    3    3    0    0  0.52304085287E+01  0.36317579087E+01  0.29889024339E+02  0.30559787545E+02  0.00000000000E+00 0. -1.
</event>
<event>
 7    1  0.3509180E-013  0.7246157E+02  0.7816164E-02  0.1226708E+00
        -11   -1    0    0    0    0  0.00000000000E+00  0.00000000000E+00  0.45593999997E+02  0.45594000000E+02  0.51100000000E-03 0. -1.
         11   -1    0    0    0    0 -0.00000000000E+00 -0.00000000000E+00 -0.45593999997E+02  0.45594000000E+02  0.51100000000E-03 0.  1.
    9900012    2    1    2    0    0 -0.49654064386E+01  0.16747491196E+02 -0.67487455553E+01  0.72461567103E+02  0.69999995843E+02 0.  0.
        -12    1    1    2    0    0  0.49654064386E+01 -0.16747491196E+02  0.67487455553E+01  0.18726432897E+02  0.00000000000E+00 0.  1.
         11    1    3    3    0    0  0.16535055384E+02  0.19770821418E+01  0.18895427384E+02  0.25186386931E+02  0.51100000000E-03 0. -1.
        -11    1    3    3    0    0  0.58463708630E+01  0.25354700348E+00 -0.12180689074E+02  0.13513457179E+02  0.51100000000E-03 0.  1.
        -12    1    3    3    0    0 -0.27346832685E+02  0.14516862051E+02 -0.13463483865E+02  0.33761722994E+02  0.00000000000E+00 0.  1.
</event>
<event>
 7    1  0.3509180E-013  0.7246160E+02  0.7816164E-02  0.1226708E+00
        -11   -1    0    0    0    0  0.00000000000E+00  0.00000000000E+00  0.45593999997E+02  0.45594000000E+02  0.51100000000E-03 0. -1.
         11   -1    0    0    0    0 -0.00000000000E+00 -0.00000000000E+00 -0.45593999997E+02  0.45594000000E+02  0.51100000000E-03 0.  1.
    9900012    2    1    2    0    0  0.69930328027E+01 -0.90807645514E+01  0.14809299849E+02  0.72461597392E+02  0.70000035300E+02 0.  0.
        -12    1    1    2    0    0 -0.69930328027E+01  0.90807645514E+01 -0.14809299849E+02  0.18726402608E+02  0.00000000000E+00 0.  1.
         11    1    3    3    0    0  0.10791264921E+02 -0.19661437210E+02  0.25225157675E+02  0.33753993716E+02  0.51100000000E-03 0. -1.
        -11    1    3    3    0    0  0.11184304944E+02 -0.73786303156E+01 -0.80981242906E+00  0.13423436924E+02  0.51100000000E-03 0.  1.
         12    1    3    3    0    0 -0.14982537063E+02  0.17959302975E+02 -0.96060453977E+01  0.25284166752E+02  0.00000000000E+00 0. -1.
</event>
<event>
 7    1  0.3509180E-013  0.7246158E+02  0.7816164E-02  0.1226708E+00
        -11   -1    0    0    0    0  0.00000000000E+00  0.00000000000E+00  0.45593999997E+02  0.45594000000E+02  0.51100000000E-03 0.  1.
         11   -1    0    0    0    0 -0.00000000000E+00 -0.00000000000E+00 -0.45593999997E+02  0.45594000000E+02  0.51100000000E-03 0. -1.
    9900012    2    1    2    0    0 -0.18120861960E+02  0.26725160237E+01 -0.38949801160E+01  0.72461578821E+02  0.70000011108E+02 0.  0.
        -12    1    1    2    0    0  0.18120861960E+02 -0.26725160237E+01  0.38949801160E+01  0.18726421179E+02  0.00000000000E+00 0.  1.
         11    1    3    3    0    0 -0.27573604734E+02  0.13752331081E+02 -0.21449324227E+02  0.37543358910E+02  0.51100000000E-03 0. -1.
        -11    1    3    3    0    0  0.47568618057E+01  0.41600061242E+01 -0.44601467832E+01  0.77347459416E+01  0.51100000000E-03 0.  1.
        -12    1    3    3    0    0  0.46958809682E+01 -0.15239821182E+02  0.22014490894E+02  0.27183473970E+02  0.00000000000E+00 0.  1.
</event>
<event>
 7    1  0.3509180E-013  0.7246152E+02  0.7816164E-02  0.1226708E+00
        -11   -1    0    0    0    0  0.00000000000E+00  0.00000000000E+00  0.45593999997E+02  0.45594000000E+02  0.51100000000E-03 0.  1.
         11   -1    0    0    0    0 -0.00000000000E+00 -0.00000000000E+00 -0.45593999997E+02  0.45594000000E+02  0.51100000000E-03 0. -1.
    9900012    2    1    2    0    0  0.28796684996E+01  0.18340796412E+02 -0.24502856681E+01  0.72461515986E+02  0.69999929253E+02 0.  0.
        -12    1    1    2    0    0 -0.28796684996E+01 -0.18340796412E+02  0.24502856681E+01  0.18726484014E+02  0.00000000000E+00 0.  1.
         11    1    3    3    0    0 -0.23606226643E+02 -0.32841029794E-02 -0.19475370177E+01  0.23686427502E+02  0.51100000000E-03 0. -1.
        -11    1    3    3    0    0 -0.83651488000E+01  0.21272219858E+01 -0.51576251805E+01  0.10054943341E+02  0.51100000000E-03 0.  1.
        -12    1    3    3    0    0  0.34851043942E+02  0.16216858529E+02  0.46548765301E+01  0.38720145143E+02  0.00000000000E+00 0.  1.
</event>
<event>
 7    1  0.3509180E-013  0.7246158E+02  0.7816164E-02  0.1226708E+00
        -11   -1    0    0    0    0  0.00000000000E+00  0.00000000000E+00  0.45593999997E+02  0.45594000000E+02  0.51100000000E-03 0.  1.
         11   -1    0    0    0    0 -0.00000000000E+00 -0.00000000000E+00 -0.45593999997E+02  0.45594000000E+02  0.51100000000E-03 0. -1.
    9900012    2    1    2    0    0  0.14174735240E+02  0.11124571664E+02 -0.50989752781E+01  0.72461581156E+02  0.70000014149E+02 0.  0.
        -12    1    1    2    0    0 -0.14174735240E+02 -0.11124571664E+02  0.50989752781E+01  0.18726418844E+02  0.00000000000E+00 0.  1.
         11    1    3    3    0    0  0.10117833639E+02 -0.10793429104E+02 -0.29401048567E+02  0.32913376102E+02  0.51100000000E-03 0. -1.
        -11    1    3    3    0    0  0.50413023844E+01  0.42887717857E+01 -0.28124248163E+01  0.71915246484E+01  0.51100000000E-03 0.  1.
        -12    1    3    3    0    0 -0.98440078270E+00  0.17629228982E+02  0.27114498105E+02  0.32356680406E+02  0.00000000000E+00 0.  1.
</event>
<event>
 7    1  0.3509180E-013  0.7246161E+02  0.7816164E-02  0.1226708E+00
        -11   -1    0    0    0    0  0.00000000000E+00  0.00000000000E+00  0.45593999997E+02  0.45594000000E+02  0.51100000000E-03 0.  1.
         11   -1    0    0    0    0 -0.00000000000E+00 -0.00000000000E+00 -0.45593999997E+02  0.45594000000E+02  0.51100000000E-03 0. -1.
    9900012    2    1    2    0    0 -0.15311557393E+01 -0.18189208105E+02 -0.41816085289E+01  0.72461612754E+02  0.70000055312E+02 0.  0.
        -12    1    1    2    0    0  0.15311557393E+01  0.18189208105E+02  0.41816085289E+01  0.18726387246E+02  0.00000000000E+00 0.  1.
         11    1    3    3    0    0 -0.53239829946E+01 -0.34115054405E+02  0.29256407031E+01  0.34651711440E+02  0.51100000000E-03 0. -1.
        -11    1    3    3    0    0 -0.47531928631E+01  0.16581808114E+02  0.90799930453E+01  0.19493472669E+02  0.51100000000E-03 0.  1.
         12    1    3    3    0    0  0.85460201185E+01 -0.65596181460E+00 -0.16187242277E+02  0.18316428645E+02  0.00000000000E+00 0. -1.
</event>
<event>
 7    1  0.3509180E-013  0.7246145E+02  0.7816164E-02  0.1226708E+00
        -11   -1    0    0    0    0  0.00000000000E+00  0.00000000000E+00  0.45593999997E+02  0.45594000000E+02  0.51100000000E-03 0. -1.
         11   -1    0    0    0    0 -0.00000000000E+00 -0.00000000000E+00 -0.45593999997E+02  0.45594000000E+02  0.51100000000E-03 0.  1.
    9900012    2    1    2    0    0 -0.83306875508E+01  0.14482434313E+02  0.84582732477E+01  0.72461450798E+02  0.69999844333E+02 0.  0.
        -12    1    1    2    0    0  0.83306875508E+01 -0.14482434313E+02 -0.84582732477E+01  0.18726549202E+02  0.00000000000E+00 0.  1.
         11    1    3    3    0    0  0.15418586523E+02  0.43393734721E+01  0.22873296046E+02  0.27924015556E+02  0.51100000000E-03 0. -1.
        -11    1    3    3    0    0  0.73607703723E+01  0.71820224068E+01 -0.69355269810E+01  0.12404189659E+02  0.51100000000E-03 0.  1.
        -12    1    3    3    0    0 -0.31110044446E+02  0.29610384338E+01 -0.74794958175E+01  0.32133245583E+02  0.00000000000E+00 0.  1.
</event>
<event>
 7    1  0.3509180E-013  0.7246162E+02  0.7816164E-02  0.1226708E+00
        -11   -1    0    0    0    0  0.00000000000E+00  0.00000000000E+00  0.45593999997E+02  0.45594000000E+02  0.51100000000E-03 0. -1.
         11   -1    0    0    0    0 -0.00000000000E+00 -0.00000000000E+00 -0.45593999997E+02  0.45594000000E+02  0.51100000000E-03 0.  1.
    9900012    2    1    2    0    0  0.10559579493E+02  0.91967500203E+01  0.12433515169E+02  0.72461622095E+02  0.70000067479E+02 0.  0.
        -12    1    1    2    0    0 -0.10559579493E+02 -0.91967500203E+01 -0.12433515169E+02  0.18726377905E+02  0.00000000000E+00 0.  1.
         11    1    3    3    0    0  0.13301276549E+02  0.22264567939E+02  0.49244503392E+01  0.26398582439E+02  0.51100000000E-03 0. -1.
        -11    1    3    3    0    0  0.10802449983E+02  0.83762206800E+01  0.14324487532E+02  0.19800124793E+02  0.51100000000E-03 0.  1.
        -12    1    3    3    0    0 -0.13544147039E+02 -0.21444038599E+02 -0.68154227029E+01  0.26262914862E+02  0.00000000000E+00 0.  1.
</event>
<event>
 7    1  0.3509180E-013  0.7246162E+02  0.7816164E-02  0.1226708E+00
        -11   -1    0    0    0    0  0.00000000000E+00  0.00000000000E+00  0.45593999997E+02  0.45594000000E+02  0.51100000000E-03 0. -1.
         11   -1    0    0    0    0 -0.00000000000E+00 -0.00000000000E+00 -0.45593999997E+02  0.45594000000E+02  0.51100000000E-03 0.  1.
    9900012    2    1    2    0    0 -0.41287622290E+01  0.68954292919E+01 -0.16914005595E+02  0.72461622669E+02  0.70000068228E+02 0.  0.
        -12    1    1    2    0    0  0.41287622290E+01 -0.68954292919E+01  0.16914005595E+02  0.18726377331E+02  0.00000000000E+00 0.  1.
         11    1    3    3    0    0  0.11618395847E+02  0.59293955954E+00 -0.70333830123E+01  0.13594380318E+02  0.51100000000E-03 0. -1.
        -11    1    3    3    0    0 -0.12459793532E+02 -0.99475381456E+00 -0.32528181754E+02  0.34847074461E+02  0.51100000000E-03 0.  1.
         12    1    3    3    0    0 -0.32873645442E+01  0.72972435470E+01  0.22647559171E+02  0.24020167890E+02  0.00000000000E+00 0. -1.
</event>
<event>
 7    1  0.3509180E-013  0.7246157E+02  0.7816164E-02  0.1226708E+00
        -11   -1    0    0    0    0  0.00000000000E+00  0.00000000000E+00  0.45593999997E+02  0.45594000000E+02  0.51100000000E-03 0. -1.
         11   -1    0    0    0    0 -0.00000000000E+00 -0.00000000000E+00 -0.45593999997E+02  0.45594000000E+02  0.51100000000E-03 0.  1.
    9900012    2    1    2    0    0  0.79866524987E+01  0.13698895699E+02 -0.99615652005E+01  0.72461571009E+02  0.70000000931E+02 0.  0.
        -12    1    1    2    0    0 -0.79866524987E+01 -0.13698895699E+02  0.99615652005E+01  0.18726428991E+02  0.00000000000E+00 0.  1.
         11    1    3    3    0    0 -0.90259893013E+01  0.52155710233E+01  0.15399817028E+02  0.18596371386E+02  0.51100000000E-03 0. -1.
        -11    1    3    3    0    0 -0.13402342746E+02  0.53034595320E+00  0.95355205621E-01  0.13413170795E+02  0.51100000000E-03 0.  1.
        -12    1    3    3    0    0  0.30414984546E+02  0.79529787228E+01 -0.25456737434E+02  0.40452028828E+02  0.00000000000E+00 0.  1.
</event>
<event>
 7    1  0.3509180E-013  0.7246155E+02  0.7816164E-02  0.1226708E+00
        -11   -1    0    0    0    0  0.00000000000E+00  0.00000000000E+00  0.45593999997E+02  0.45594000000E+02  0.51100000000E-03 0.  1.
         11   -1    0    0    0    0 -0.00000000000E+00 -0.00000000000E+00 -0.45593999997E+02  0.45594000000E+02  0.51100000000E-03 0. -1.
    9900012    2    1    2    0    0 -0.13695851458E+02 -0.12377266916E+02  0.31474865211E+01  0.72461554665E+02  0.69999979640E+02 0.  0.
        -12    1    1    2    0    0  0.13695851458E+02  0.12377266916E+02 -0.31474865211E+01  0.18726445335E+02  0.00000000000E+00 0.  1.
         11    1    3    3    0    0 -0.10876298374E+02 -0.18180186609E+02  0.14481975982E+02  0.25662047464E+02  0.51100000000E-03 0. -1.
        -11    1    3    3    0    0 -0.12684519537E+02  0.17516573875E+02  0.71656667791E+01  0.22783199443E+02  0.51100000000E-03 0.  1.
         12    1    3    3    0    0  0.98649664521E+01 -0.11713654182E+02 -0.18500156241E+02  0.24016307758E+02  0.00000000000E+00 0. -1.
</event>
<event>
 7    1  0.3509180E-013  0.7246150E+02  0.7816164E-02  0.1226708E+00
        -11   -1    0    0    0    0  0.00000000000E+00  0.00000000000E+00  0.45593999997E+02  0.45594000000E+02  0.51100000000E-03 0. -1.
         11   -1    0    0    0    0 -0.00000000000E+00 -0.00000000000E+00 -0.45593999997E+02  0.45594000000E+02  0.51100000000E-03 0.  1.
    9900012    2    1    2    0    0 -0.77215413617E+01 -0.13819202964E+02  0.10004461479E+02  0.72461499498E+02  0.69999907774E+02 0.  0.
        -12    1    1    2    0    0  0.77215413617E+01  0.13819202964E+02 -0.10004461479E+02  0.18726500502E+02  0.00000000000E+00 0.  1.
         11    1    3    3    0    0 -0.16959360494E+02  0.11669050523E+02  0.90365808566E+01  0.22482136071E+02  0.51100000000E-03 0. -1.
        -11    1    3    3    0    0  0.28743993906E+01  0.11771599079E+02 -0.75343530261E+00  0.12140855890E+02  0.51100000000E-03 0.  1.
        -12    1    3    3    0    0  0.63634197419E+01 -0.37259852566E+02  0.17213159253E+01  0.37838507536E+02  0.00000000000E+00 0.  1.
</event>
<event>
 7    1  0.3509180E-013  0.7246156E+02  0.7816164E-02  0.1226708E+00
        -11   -1    0    0    0    0  0.00000000000E+00  0.00000000000E+00  0.45593999997E+02  0.45594000000E+02  0.51100000000E-03 0.  1.
         11   -1    0    0    0    0 -0.00000000000E+00 -0.00000000000E+00 -0.45593999997E+02  0.45594000000E+02  0.51100000000E-03 0. -1.
    9900012    2    1    2    0    0 -0.29923777971E+01  0.16014915198E+02 -0.92329753073E+01  0.72461557020E+02  0.69999982707E+02 0.  0.
        -12    1    1    2    0    0  0.29923777971E+01 -0.16014915198E+02  0.92329753073E+01  0.18726442980E+02  0.00000000000E+00 0.  1.
         11    1    3    3    0    0 -0.75781797760E+01  0.19732319170E+02 -0.80711517948E+01  0.22626018654E+02  0.51100000000E-03 0. -1.
        -11    1    3    3    0    0  0.50547250964E+01  0.22152712484E+02 -0.60268255756E+01  0.23507776224E+02  0.51100000000E-03 0.  1.
         12    1    3    3    0    0 -0.46892311747E+00 -0.25870116456E+02  0.48650020631E+01  0.26327762143E+02  0.00000000000E+00 0. -1.
</event>
<event>
 7    1  0.3509180E-013  0.7246158E+02  0.7816164E-02  0.1226708E+00
        -11   -1    0    0    0    0  0.00000000000E+00  0.00000000000E+00  0.45593999997E+02  0.45594000000E+02  0.51100000000E-03 0.  1.
         11   -1    0    0    0    0 -0.00000000000E+00 -0.00000000000E+00 -0.45593999997E+02  0.45594000000E+02  0.51100000000E-03 0. -1.
    9900012    2    1    2    0    0 -0.74959632176E+01 -0.93678320667E+01 -0.14378209648E+02  0.72461584036E+02  0.70000017901E+02 0.  0.
        -12    1    1    2    0    0  0.74959632176E+01  0.93678320667E+01  0.14378209648E+02  0.18726415964E+02  0.00000000000E+00 0.  1.
         11    1    3    3    0    0  0.11368536835E+00  0.60111505095E+01 -0.70237049454E+01  0.92455008644E+01  0.51100000000E-03 0. -1.
        -11    1    3    3    0    0 -0.26981029846E+02  0.11020829888E+02  0.18463693494E+01  0.29203488542E+02  0.51100000000E-03 0.  1.
         12    1    3    3    0    0  0.19371381261E+02 -0.26399812464E+02 -0.92008740517E+01  0.34012594629E+02  0.00000000000E+00 0. -1.
</event>
<event>
 7    1  0.3509180E-013  0.7246162E+02  0.7816164E-02  0.1226708E+00
        -11   -1    0    0    0    0  0.00000000000E+00  0.00000000000E+00  0.45593999997E+02  0.45594000000E+02  0.51100000000E-03 0. -1.
         11   -1    0    0    0    0 -0.00000000000E+00 -0.00000000000E+00 -0.45593999997E+02  0.45594000000E+02  0.51100000000E-03 0.  1.
    9900012    2    1    2    0    0 -0.16431935203E+02 -0.46332465643E+01  0.76942659210E+01  0.72461622980E+02  0.70000068633E+02 0.  0.
        -12    1    1    2    0    0  0.16431935203E+02  0.46332465643E+01 -0.76942659210E+01  0.18726377020E+02  0.00000000000E+00 0.  1.
         11    1    3    3    0    0 -0.10286093100E+02 -0.31709635231E+01  0.27989304211E+02  0.29987661987E+02  0.51100000000E-03 0. -1.
        -11    1    3    3    0    0  0.36861577954E+01  0.11184443377E+02  0.47877972295E+01  0.12712298593E+02  0.51100000000E-03 0.  1.
        -12    1    3    3    0    0 -0.98319998978E+01 -0.12646726419E+02 -0.25082835520E+02  0.29761662400E+02  0.00000000000E+00 0.  1.
</event>
<event>
 7    1  0.3509180E-013  0.7246156E+02  0.7816164E-02  0.1226708E+00
        -11   -1    0    0    0    0  0.00000000000E+00  0.00000000000E+00  0.45593999997E+02  0.45594000000E+02  0.51100000000E-03 0.  1.
         11   -1    0    0    0    0 -0.00000000000E+00 -0.00000000000E+00 -0.45593999997E+02  0.45594000000E+02  0.51100000000E-03 0. -1.
    9900012    2    1    2    0    0  0.12266611598E+02 -0.11282881220E+02 -0.85385288083E+01  0.72461557654E+02  0.69999983534E+02 0.  0.
        -12    1    1    2    0    0 -0.12266611598E+02  0.11282881220E+02  0.85385288083E+01  0.18726442346E+02  0.00000000000E+00 0.  1.
         11    1    3    3    0    0 -0.31882433037E+00 -0.23442325869E+02  0.12544961458E+02  0.26589854255E+02  0.51100000000E-03 0. -1.
        -11    1    3    3    0    0 -0.59735715379E+01  0.47894312235E+01  0.76875417818E+01  0.10849908169E+02  0.51100000000E-03 0.  1.
         12    1    3    3    0    0  0.18559007466E+02  0.73700134253E+01 -0.28771032048E+02  0.35021795230E+02  0.00000000000E+00 0. -1.
</event>
<event>
 7    1  0.3509180E-013  0.7246154E+02  0.7816164E-02  0.1226708E+00
        -11   -1    0    0    0    0  0.00000000000E+00  0.00000000000E+00  0.45593999997E+02  0.45594000000E+02  0.51100000000E-03 0.  1.
         11   -1    0    0    0    0 -0.00000000000E+00 -0.00000000000E+00 -0.45593999997E+02  0.45594000000E+02  0.51100000000E-03 0. -1.
    9900012    2    1    2    0    0 -0.78349474939E+01 -0.65223028736E+01 -0.15708387284E+02  0.72461540963E+02  0.69999961791E+02 0.  0.
        -12    1    1    2    0    0  0.78349474939E+01  0.65223028736E+01  0.15708387284E+02  0.18726459037E+02  0.00000000000E+00 0.  1.
         11    1    3    3    0    0  0.19305595694E+02  0.10239650323E+02 -0.15345337255E+02  0.26702730938E+02  0.51100000000E-03 0. -1.
        -11    1    3    3    0    0  0.69246873854E+01 -0.41475663263E+01 -0.44275453429E+01  0.92063434566E+01  0.51100000000E-03 0.  1.
        -12    1    3    3    0    0 -0.34065230573E+02 -0.12614386870E+02  0.40644953140E+01  0.36552466569E+02  0.00000000000E+00 0.  1.
</event>
<event>
 7    1  0.6893879E-013  0.7246156E+02  0.7816164E-02  0.1226708E+00
        -11   -1    0    0    0    0  0.00000000000E+00  0.00000000000E+00  0.45593999997E+02  0.45594000000E+02  0.51100000000E-03 0. -1.
         11   -1    0    0    0    0 -0.00000000000E+00 -0.00000000000E+00 -0.45593999997E+02  0.45594000000E+02  0.51100000000E-03 0.  1.
    9900012    2    1    2    0    0  0.71513496556E+01 -0.45471578618E+01  0.16699137250E+02  0.72461557962E+02  0.69999983935E+02 0.  0.
        -12    1    1    2    0    0 -0.71513496556E+01  0.45471578618E+01 -0.16699137250E+02  0.18726442038E+02  0.00000000000E+00 0.  1.
         11    1    3    3    0    0  0.33451440087E+01 -0.12136066557E+02  0.42971830567E+01  0.13301875146E+02  0.51100000000E-03 0. -1.
        -11    1    3    3    0    0 -0.22034373279E+01  0.68622058915E+00 -0.22734238798E+02  0.22851075439E+02  0.51100000000E-03 0.  1.
         12    1    3    3    0    0  0.60096429748E+01  0.69026881059E+01  0.35136192991E+02  0.36308607377E+02  0.00000000000E+00 0. -1.
</event>
<event>
 7    1  0.3509180E-013  0.7246158E+02  0.7816164E-02  0.1226708E+00
        -11   -1    0    0    0    0  0.00000000000E+00  0.00000000000E+00  0.45593999997E+02  0.45594000000E+02  0.51100000000E-03 0.  1.
         11   -1    0    0    0    0 -0.00000000000E+00 -0.00000000000E+00 -0.45593999997E+02  0.45594000000E+02  0.51100000000E-03 0. -1.
    9900012    2    1    2    0    0 -0.39936620107E+01 -0.16818820419E+02 -0.72011720065E+01  0.72461576562E+02  0.70000008164E+02 0.  0.
        -12    1    1    2    0    0  0.39936620107E+01  0.16818820419E+02  0.72011720065E+01  0.18726423438E+02  0.00000000000E+00 0.  1.
         11    1    3    3    0    0  0.44914882994E+01 -0.61843948195E+01  0.51507728513E+01  0.92168686469E+01  0.51100000000E-03 0. -1.
        -11    1    3    3    0    0 -0.31629679633E+02 -0.53534865989E+01  0.67408391430E+01  0.32780106240E+02  0.51100000000E-03 0.  1.
         12    1    3    3    0    0  0.23144529323E+02 -0.52809390001E+01 -0.19092784001E+02  0.30464601675E+02  0.00000000000E+00 0. -1.
</event>
<event>
 7    1  0.3509180E-013  0.7246162E+02  0.7816164E-02  0.1226708E+00
        -11   -1    0    0    0    0  0.00000000000E+00  0.00000000000E+00  0.45593999997E+02  0.45594000000E+02  0.51100000000E-03 0.  1.
         11   -1    0    0    0    0 -0.00000000000E+00 -0.00000000000E+00 -0.45593999997E+02  0.45594000000E+02  0.51100000000E-03 0. -1.
    9900012    2    1    2    0    0 -0.96839395258E+01 -0.14939977697E+02  0.58048048026E+01  0.72461618152E+02  0.70000062343E+02 0.  0.
        -12    1    1    2    0    0  0.96839395258E+01  0.14939977697E+02 -0.58048048026E+01  0.18726381848E+02  0.00000000000E+00 0.  1.
         11    1    3    3    0    0 -0.30592907797E+01  0.12481027914E+02  0.19819892011E+02  0.23621249701E+02  0.51100000000E-03 0. -1.
        -11    1    3    3    0    0 -0.17044238147E+02 -0.71725093968E+00 -0.29600272359E+00  0.17061890892E+02  0.51100000000E-03 0.  1.
         12    1    3    3    0    0  0.10419589401E+02 -0.26703754671E+02 -0.13719084485E+02  0.31778477559E+02  0.00000000000E+00 0. -1.
</event>
<event>
 7    1  0.3509180E-013  0.7246112E+02  0.7816164E-02  0.1226709E+00
        -11   -1    0    0    0    0  0.00000000000E+00  0.00000000000E+00  0.45593999997E+02  0.45594000000E+02  0.51100000000E-03 0. -1.
         11   -1    0    0    0    0 -0.00000000000E+00 -0.00000000000E+00 -0.45593999997E+02  0.45594000000E+02  0.51100000000E-03 0.  1.
    9900012    2    1    2    0    0 -0.13062072085E+02  0.11164871527E+02  0.74447337527E+01  0.72461117077E+02  0.69999409598E+02 0.  0.
        -12    1    1    2    0    0  0.13062072085E+02 -0.11164871527E+02 -0.74447337527E+01  0.18726882923E+02  0.00000000000E+00 0.  1.
         11    1    3    3    0    0 -0.17295250824E+01 -0.11611623661E+02  0.22325406481E+02  0.25223894146E+02  0.51100000000E-03 0. -1.
        -11    1    3    3    0    0  0.97454947429E+01 -0.29761096795E+01  0.12300629206E+01  0.10263768882E+02  0.51100000000E-03 0.  1.
        -12    1    3    3    0    0 -0.21078041745E+02  0.25752604867E+02 -0.16110735649E+02  0.36973454050E+02  0.00000000000E+00 0.  1.
</event>
<event>
 7    1  0.3509180E-013  0.7246158E+02  0.7816164E-02  0.1226708E+00
        -11   -1    0    0    0    0  0.00000000000E+00  0.00000000000E+00  0.45593999997E+02  0.45594000000E+02  0.51100000000E-03 0.  1.
         11   -1    0    0    0    0 -0.00000000000E+00 -0.00000000000E+00 -0.45593999997E+02  0.45594000000E+02  0.51100000000E-03 0. -1.
    9900012    2    1    2    0    0 -0.10971346432E+02 -0.11680084831E+02 -0.96893797626E+01  0.72461577374E+02  0.70000009222E+02 0.  0.
        -12    1    1    2    0    0  0.10971346432E+02  0.11680084831E+02  0.96893797626E+01  0.18726422626E+02  0.00000000000E+00 0.  1.
         11    1    3    3    0    0 -0.27527570220E+02  0.14798734945E+01 -0.10263175912E+02  0.29415810848E+02  0.51100000000E-03 0. -1.
        -11    1    3    3    0    0  0.12372916573E+02  0.11811727642E+02  0.37961159020E+01  0.17521885476E+02  0.51100000000E-03 0.  1.
         12    1    3    3    0    0  0.41833072139E+01 -0.24971685967E+02 -0.32223197525E+01  0.25523881050E+02  0.00000000000E+00 0. -1.
</event>
<event>
 7    1  0.3509180E-013  0.7246157E+02  0.7816164E-02  0.1226708E+00
        -11   -1    0    0    0    0  0.00000000000E+00  0.00000000000E+00  0.45593999997E+02  0.45594000000E+02  0.51100000000E-03 0. -1.
         11   -1    0    0    0    0 -0.00000000000E+00 -0.00000000000E+00 -0.45593999997E+02  0.45594000000E+02  0.51100000000E-03 0.  1.
    9900012    2    1    2    0    0  0.65941112009E+01  0.49885993111E+01  0.16802109976E+02  0.72461566136E+02  0.69999994583E+02 0.  0.
        -12    1    1    2    0    0 -0.65941112009E+01 -0.49885993111E+01 -0.16802109976E+02  0.18726433864E+02  0.00000000000E+00 0.  1.
         11    1    3    3    0    0  0.30977377245E+02  0.30510263104E+01  0.98979345415E+01  0.32663064323E+02  0.51100000000E-03 0. -1.
        -11    1    3    3    0    0 -0.13957045797E+02 -0.13748519965E+02  0.74382467302E+01  0.20955868947E+02  0.51100000000E-03 0.  1.
         12    1    3    3    0    0 -0.10426220247E+02  0.15686092966E+02 -0.53407129529E+00  0.18842632866E+02  0.00000000000E+00 0. -1.
</event>
<event>
 7    1  0.3509180E-013  0.7246157E+02  0.7816164E-02  0.1226708E+00
        -11   -1    0    0    0    0  0.00000000000E+00  0.00000000000E+00  0.45593999997E+02  0.45594000000E+02  0.51100000000E-03 0.  1.
         11   -1    0    0    0    0 -0.00000000000E+00 -0.00000000000E+00 -0.45593999997E+02  0.45594000000E+02  0.51100000000E-03 0. -1.
    9900012    2    1    2    0    0 -0.44200976846E+01 -0.80700606665E+01 -0.16309993388E+02  0.72461574099E+02  0.70000004957E+02 0.  0.
        -12    1    1    2    0    0  0.44200976846E+01  0.80700606665E+01  0.16309993388E+02  0.18726425901E+02  0.00000000000E+00 0.  1.
         11    1    3    3    0    0  0.44073312708E+01 -0.20725932366E+02  0.17449757761E+02  0.27449642758E+02  0.51100000000E-03 0. -1.
        -11    1    3    3    0    0  0.15093838069E+01  0.11903522662E+01  0.38796927143E+01  0.43298029762E+01  0.51100000000E-03 0.  1.
        -12    1    3    3    0    0 -0.10336812762E+02  0.11465519434E+02 -0.37639443863E+02  0.40682128365E+02  0.00000000000E+00 0.  1.
</event>
<event>
 7    1  0.3509180E-013  0.7246155E+02  0.7816164E-02  0.1226708E+00
        -11   -1    0    0    0    0  0.00000000000E+00  0.00000000000E+00  0.45593999997E+02  0.45594000000E+02  0.51100000000E-03 0.  1.
         11   -1    0    0    0    0 -0.00000000000E+00 -0.00000000000E+00 -0.45593999997E+02  0.45594000000E+02  0.51100000000E-03 0. -1.
    9900012    2    1    2    0    0  0.17810341437E+02 -0.56760972061E+01  0.11196844565E+01  0.72461547189E+02  0.69999969901E+02 0.  0.
        -12    1    1    2    0    0 -0.17810341437E+02  0.56760972061E+01 -0.11196844565E+01  0.18726452811E+02  0.00000000000E+00 0.  1.
         11    1    3    3    0    0  0.99300024733E+01 -0.16527867807E+02  0.27245171925E+02  0.33377758416E+02  0.51100000000E-03 0. -1.
        -11    1    3    3    0    0 -0.66063043965E+01  0.13772210444E-01  0.78939055365E+00  0.66533138480E+01  0.51100000000E-03 0.  1.
         12    1    3    3    0    0  0.14486643360E+02  0.10837998391E+02 -0.26914878022E+02  0.32430474926E+02  0.00000000000E+00 0. -1.
</event>
<event>
 7    1  0.3509180E-013  0.7246167E+02  0.7816164E-02  0.1226708E+00
        -11   -1    0    0    0    0  0.00000000000E+00  0.00000000000E+00  0.45593999997E+02  0.45594000000E+02  0.51100000000E-03 0.  1.
         11   -1    0    0    0    0 -0.00000000000E+00 -0.00000000000E+00 -0.45593999997E+02  0.45594000000E+02  0.51100000000E-03 0. -1.
    9900012    2    1    2    0    0  0.95542204422E+01  0.66922017841E+01 -0.14649464262E+02  0.72461668375E+02  0.70000127768E+02 0.  0.
        -12    1    1    2    0    0 -0.95542204422E+01 -0.66922017841E+01  0.14649464262E+02  0.18726331625E+02  0.00000000000E+00 0.  1.
         11    1    3    3    0    0  0.23162031401E+02  0.73457040219E+01 -0.23664691126E+02  0.33918382517E+02  0.51100000000E-03 0. -1.
        -11    1    3    3    0    0  0.60295238121E+01 -0.11568308215E+02 -0.25226158201E+01  0.13287005050E+02  0.51100000000E-03 0.  1.
        -12    1    3    3    0    0 -0.19637334771E+02  0.10914805977E+02  0.11537842684E+02  0.25256280808E+02  0.00000000000E+00 0.  1.
</event>
<event>
 7    1  0.3509180E-013  0.7246155E+02  0.7816164E-02  0.1226708E+00
        -11   -1    0    0    0    0  0.00000000000E+00  0.00000000000E+00  0.45593999997E+02  0.45594000000E+02  0.51100000000E-03 0. -1.
         11   -1    0    0    0    0 -0.00000000000E+00 -0.00000000000E+00 -0.45593999997E+02  0.45594000000E+02  0.51100000000E-03 0.  1.
    9900012    2    1    2    0    0  0.51032431703E+01 -0.17954074534E+02  0.15125681201E+01  0.72461554914E+02  0.69999979964E+02 0.  0.
        -12    1    1    2    0    0 -0.51032431703E+01  0.17954074534E+02 -0.15125681201E+01  0.18726445086E+02  0.00000000000E+00 0.  1.
         11    1    3    3    0    0 -0.13432953838E+02  0.66694312354E+01  0.11390598316E+02  0.18832718659E+02  0.51100000000E-03 0. -1.
        -11    1    3    3    0    0 -0.12564944137E+02 -0.15911505926E+02 -0.19240303146E+01  0.20365552654E+02  0.51100000000E-03 0.  1.
         12    1    3    3    0    0  0.31101141145E+02 -0.87119998434E+01 -0.79539998808E+01  0.33263283601E+02  0.00000000000E+00 0. -1.
</event>
<event>
 7    1  0.4391739E-013  0.7246159E+02  0.7816164E-02  0.1226708E+00
        -11   -1    0    0    0    0  0.00000000000E+00  0.00000000000E+00  0.45593999997E+02  0.45594000000E+02  0.51100000000E-03 0. -1.
         11   -1    0    0    0    0 -0.00000000000E+00 -0.00000000000E+00 -0.45593999997E+02  0.45594000000E+02  0.51100000000E-03 0.  1.
    9900012    2    1    2    0    0 -0.60205763379E+01  0.75320762433E+01  0.16052998710E+02  0.72461594057E+02  0.70000030955E+02 0.  0.
        -12    1    1    2    0    0  0.60205763379E+01 -0.75320762433E+01 -0.16052998710E+02  0.18726405943E+02  0.00000000000E+00 0.  1.
         11    1    3    3    0    0 -0.21322352108E+01 -0.14849497777E+02  0.30613661642E+02  0.34091792130E+02  0.51100000000E-03 0. -1.
        -11    1    3    3    0    0 -0.84351470358E+01 -0.35575695481E+01 -0.41644724854E+01  0.10057377290E+02  0.51100000000E-03 0.  1.
        -12    1    3    3    0    0  0.45468059087E+01  0.25939143569E+02 -0.10396190447E+02  0.28312424638E+02  0.00000000000E+00 0.  1.
</event>
<event>
 7    1  0.3509180E-013  0.7246122E+02  0.7816164E-02  0.1226709E+00
        -11   -1    0    0    0    0  0.00000000000E+00  0.00000000000E+00  0.45593999997E+02  0.45594000000E+02  0.51100000000E-03 0.  1.
         11   -1    0    0    0    0 -0.00000000000E+00 -0.00000000000E+00 -0.45593999997E+02  0.45594000000E+02  0.51100000000E-03 0. -1.
    9900012    2    1    2    0    0 -0.68455604024E+01  0.80467984372E+01 -0.15462194416E+02  0.72461224557E+02  0.69999549612E+02 0.  0.
        -12    1    1    2    0    0  0.68455604024E+01 -0.80467984372E+01  0.15462194416E+02  0.18726775443E+02  0.00000000000E+00 0.  1.
         11    1    3    3    0    0  0.17486582471E+02  0.14541192377E+01  0.79603228187E+01  0.19268154268E+02  0.51100000000E-03 0. -1.
        -11    1    3    3    0    0 -0.24003422374E+02  0.21812917809E+02 -0.17533730087E+02  0.36870033361E+02  0.51100000000E-03 0.  1.
         12    1    3    3    0    0 -0.32872049948E+00 -0.15220238609E+02 -0.58887871478E+01  0.16323036928E+02  0.00000000000E+00 0. -1.
</event>
<event>
 7    1  0.3509180E-013  0.7246162E+02  0.7816164E-02  0.1226708E+00
        -11   -1    0    0    0    0  0.00000000000E+00  0.00000000000E+00  0.45593999997E+02  0.45594000000E+02  0.51100000000E-03 0. -1.
         11   -1    0    0    0    0 -0.00000000000E+00 -0.00000000000E+00 -0.45593999997E+02  0.45594000000E+02  0.51100000000E-03 0.  1.
    9900012    2    1    2    0    0  0.10694213301E+02 -0.13984673845E+02  0.63827835606E+01  0.72461622169E+02  0.70000067577E+02 0.  0.
        -12    1    1    2    0    0 -0.10694213301E+02  0.13984673845E+02 -0.63827835606E+01  0.18726377831E+02  0.00000000000E+00 0.  1.
         11    1    3    3    0    0  0.12326326271E+02 -0.27518490554E+01  0.16794436196E+02  0.21013426183E+02  0.51100000000E-03 0. -1.
        -11    1    3    3    0    0 -0.10125047609E+02 -0.26369264898E+02 -0.16903153414E+02  0.32917644448E+02  0.51100000000E-03 0.  1.
         12    1    3    3    0    0  0.84929346390E+01  0.15136440109E+02  0.64915007794E+01  0.18530551539E+02  0.00000000000E+00 0. -1.
</event>
<event>
 7    1  0.3509180E-013  0.7246154E+02  0.7816164E-02  0.1226708E+00
        -11   -1    0    0    0    0  0.00000000000E+00  0.00000000000E+00  0.45593999997E+02  0.45594000000E+02  0.51100000000E-03 0.  1.
         11   -1    0    0    0    0 -0.00000000000E+00 -0.00000000000E+00 -0.45593999997E+02  0.45594000000E+02  0.51100000000E-03 0. -1.
    9900012    2    1    2    0    0  0.17504110534E+02 -0.57304429576E+01 -0.33835753185E+01  0.72461536265E+02  0.69999955671E+02 0.  0.
        -12    1    1    2    0    0 -0.17504110534E+02  0.57304429576E+01  0.33835753185E+01  0.18726463735E+02  0.00000000000E+00 0.  1.
         11    1    3    3    0    0  0.13815900689E+02 -0.76448040523E+01 -0.25958670072E+02  0.30383789971E+02  0.51100000000E-03 0. -1.
        -11    1    3    3    0    0  0.22760790999E+01  0.87632066781E+01 -0.71527724756E+01  0.11538478310E+02  0.51100000000E-03 0.  1.
         12    1    3    3    0    0  0.14121307449E+01 -0.68488455834E+01  0.29727867229E+02  0.30539267985E+02  0.00000000000E+00 0. -1.
</event>
<event>
 7    1  0.3509180E-013  0.7246160E+02  0.7816164E-02  0.1226708E+00
        -11   -1    0    0    0    0  0.00000000000E+00  0.00000000000E+00  0.45593999997E+02  0.45594000000E+02  0.51100000000E-03 0.  1.
         11   -1    0    0    0    0 -0.00000000000E+00 -0.00000000000E+00 -0.45593999997E+02  0.45594000000E+02  0.51100000000E-03 0. -1.
    9900012    2    1    2    0    0  0.72702454255E+01  0.28839442773E+01 -0.17014825400E+02  0.72461604550E+02  0.70000044625E+02 0.  0.
        -12    1    1    2    0    0 -0.72702454255E+01 -0.28839442773E+01  0.17014825400E+02  0.18726395450E+02  0.00000000000E+00 0.  1.
         11    1    3    3    0    0  0.12116800262E+02  0.94163282966E+01 -0.38859347610E+01  0.15829863436E+02  0.51100000000E-03 0. -1.
        -11    1    3    3    0    0 -0.60257160439E+01 -0.14758942508E+02  0.18214408054E+02  0.24205377478E+02  0.51100000000E-03 0.  1.
         12    1    3    3    0    0  0.11791612075E+01  0.82265584889E+01 -0.31343298693E+02  0.32426363637E+02  0.00000000000E+00 0. -1.
</event>
<event>
 7    1  0.3509180E-013  0.7246160E+02  0.7816164E-02  0.1226708E+00
        -11   -1    0    0    0    0  0.00000000000E+00  0.00000000000E+00  0.45593999997E+02  0.45594000000E+02  0.51100000000E-03 0.  1.
         11   -1    0    0    0    0 -0.00000000000E+00 -0.00000000000E+00 -0.45593999997E+02  0.45594000000E+02  0.51100000000E-03 0. -1.
    9900012    2    1    2    0    0  0.16348980039E+02  0.90166884777E+01 -0.14451314614E+01  0.72461595531E+02  0.70000032875E+02 0.  0.
        -12    1    1    2    0    0 -0.16348980039E+02 -0.90166884777E+01  0.14451314614E+01  0.18726404469E+02  0.00000000000E+00 0.  1.
         11    1    3    3    0    0  0.66040037871E+01  0.10745612199E+00  0.24083787288E+02  0.24973049939E+02  0.51100000000E-03 0. -1.
        -11    1    3    3    0    0 -0.32733613179E+01 -0.11874055874E+02 -0.32340421392E+00  0.12321229150E+02  0.51100000000E-03 0.  1.
         12    1    3    3    0    0  0.13018337570E+02  0.20783288230E+02 -0.25205514536E+02  0.35167316442E+02  0.00000000000E+00 0. -1.
</event>
<event>
 7    1  0.3509180E-013  0.7246152E+02  0.7816164E-02  0.1226708E+00
        -11   -1    0    0    0    0  0.00000000000E+00  0.00000000000E+00  0.45593999997E+02  0.45594000000E+02  0.51100000000E-03 0. -1.
         11   -1    0    0    0    0 -0.00000000000E+00 -0.00000000000E+00 -0.45593999997E+02  0.45594000000E+02  0.51100000000E-03 0.  1.
    9900012    2    1    2    0    0  0.15412347458E+02 -0.56724602945E+01  0.89979885271E+01  0.72461519885E+02  0.69999934333E+02 0.  0.
        -12    1    1    2    0    0 -0.15412347458E+02  0.56724602945E+01 -0.89979885271E+01  0.18726480115E+02  0.00000000000E+00 0.  1.
         11    1    3    3    0    0  0.70639992288E+01 -0.29522286467E+01  0.21975216017E+02  0.23270708162E+02  0.51100000000E-03 0. -1.
        -11    1    3    3    0    0  0.26717529002E+02 -0.32472942802E+01 -0.14815300382E+02  0.30722376239E+02  0.51100000000E-03 0.  1.
        -12    1    3    3    0    0 -0.18369180773E+02  0.52706263243E+00  0.18380728916E+01  0.18468435485E+02  0.00000000000E+00 0.  1.
</event>
<event>
 7    1  0.3509180E-013  0.7246165E+02  0.7816164E-02  0.1226708E+00
        -11   -1    0    0    0    0  0.00000000000E+00  0.00000000000E+00  0.45593999997E+02  0.45594000000E+02  0.51100000000E-03 0.  1.
         11   -1    0    0    0    0 -0.00000000000E+00 -0.00000000000E+00 -0.45593999997E+02  0.45594000000E+02  0.51100000000E-03 0. -1.
    9900012    2    1    2    0    0 -0.11962370274E+02 -0.62100829545E+00 -0.14394173184E+02  0.72461650235E+02  0.70000104137E+02 0.  0.
        -12    1    1    2    0    0  0.11962370274E+02  0.62100829545E+00  0.14394173184E+02  0.18726349765E+02  0.00000000000E+00 0.  1.
         11    1    3    3    0    0  0.12651066283E+02  0.75821666948E+01 -0.90164021312E+01  0.17286822656E+02  0.51100000000E-03 0. -1.
        -11    1    3    3    0    0 -0.10556707506E+02  0.19856027206E+02 -0.75370304148E+01  0.23717350559E+02  0.51100000000E-03 0.  1.
        -12    1    3    3    0    0 -0.14056729050E+02 -0.28059202197E+02  0.21592593619E+01  0.31457477020E+02  0.00000000000E+00 0.  1.
</event>
<event>
 7    1  0.3509180E-013  0.7246172E+02  0.7816164E-02  0.1226708E+00
        -11   -1    0    0    0    0  0.00000000000E+00  0.00000000000E+00  0.45593999997E+02  0.45594000000E+02  0.51100000000E-03 0. -1.
         11   -1    0    0    0    0 -0.00000000000E+00 -0.00000000000E+00 -0.45593999997E+02  0.45594000000E+02  0.51100000000E-03 0.  1.
    9900012    2    1    2    0    0 -0.17212907875E+02 -0.63150254369E+01  0.38091806999E+01  0.72461718965E+02  0.70000193671E+02 0.  0.
        -12    1    1    2    0    0  0.17212907875E+02  0.63150254369E+01 -0.38091806999E+01  0.18726281035E+02  0.00000000000E+00 0.  1.
         11    1    3    3    0    0 -0.63127095235E+01 -0.10098744592E+02  0.45878903298E+01  0.12762589150E+02  0.51100000000E-03 0. -1.
        -11    1    3    3    0    0 -0.19821935477E+02  0.14017505101E+02  0.22272787933E+02  0.32946572779E+02  0.51100000000E-03 0.  1.
        -12    1    3    3    0    0  0.89217371252E+01 -0.10233785946E+02 -0.23051497563E+02  0.26752557037E+02  0.00000000000E+00 0.  1.
</event>
<event>
 7    1  0.3509180E-013  0.7246156E+02  0.7816164E-02  0.1226708E+00
        -11   -1    0    0    0    0  0.00000000000E+00  0.00000000000E+00  0.45593999997E+02  0.45594000000E+02  0.51100000000E-03 0. -1.
         11   -1    0    0    0    0 -0.00000000000E+00 -0.00000000000E+00 -0.45593999997E+02  0.45594000000E+02  0.51100000000E-03 0.  1.
    9900012    2    1    2    0    0 -0.14773691721E+02 -0.13402462446E+01 -0.11428966326E+02  0.72461561514E+02  0.69999988562E+02 0.  0.
        -12    1    1    2    0    0  0.14773691721E+02  0.13402462446E+01  0.11428966326E+02  0.18726438486E+02  0.00000000000E+00 0.  1.
         11    1    3    3    0    0 -0.22852290587E+02  0.18619174048E+01 -0.61786616142E+01  0.23745942414E+02  0.51100000000E-03 0. -1.
        -11    1    3    3    0    0 -0.17122599796E+02  0.90347401576E+01  0.28129296458E+01  0.19563295401E+02  0.51100000000E-03 0.  1.
         12    1    3    3    0    0  0.25201198662E+02 -0.12236903807E+02 -0.80632343579E+01  0.29152323700E+02  0.00000000000E+00 0. -1.
</event>
<event>
 7    1  0.3509180E-013  0.7246153E+02  0.7816164E-02  0.1226708E+00
        -11   -1    0    0    0    0  0.00000000000E+00  0.00000000000E+00  0.45593999997E+02  0.45594000000E+02  0.51100000000E-03 0.  1.
         11   -1    0    0    0    0 -0.00000000000E+00 -0.00000000000E+00 -0.45593999997E+02  0.45594000000E+02  0.51100000000E-03 0. -1.
    9900012    2    1    2    0    0 -0.10192949634E+02  0.14641171089E+02 -0.56939159974E+01  0.72461526961E+02  0.69999943550E+02 0.  0.
        -12    1    1    2    0    0  0.10192949634E+02 -0.14641171089E+02  0.56939159974E+01  0.18726473039E+02  0.00000000000E+00 0.  1.
         11    1    3    3    0    0 -0.37330943604E+01  0.54121818547E+01 -0.39648733572E+01  0.76777553316E+01  0.51100000000E-03 0. -1.
        -11    1    3    3    0    0  0.26114029535E+02  0.64407672160E+01 -0.13425946001E+02  0.30061304814E+02  0.51100000000E-03 0.  1.
         12    1    3    3    0    0 -0.32573884808E+02  0.27882220188E+01  0.11696903360E+02  0.34722466815E+02  0.00000000000E+00 0. -1.
</event>
<event>
 7    1  0.3509180E-013  0.7246159E+02  0.7816164E-02  0.1226708E+00
        -11   -1    0    0    0    0  0.00000000000E+00  0.00000000000E+00  0.45593999997E+02  0.45594000000E+02  0.51100000000E-03 0. -1.
         11   -1    0    0    0    0 -0.00000000000E+00 -0.00000000000E+00 -0.45593999997E+02  0.45594000000E+02  0.51100000000E-03 0.  1.
    9900012    2    1    2    0    0 -0.51218861467E+01 -0.58568514015E+01  0.17033555761E+02  0.72461589562E+02  0.70000025099E+02 0.  0.
        -12    1    1    2    0    0  0.51218861467E+01  0.58568514015E+01 -0.17033555761E+02  0.18726410438E+02  0.00000000000E+00 0.  1.
         11    1    3    3    0    0  0.98329191159E+01  0.18276471688E+02  0.21329075262E+01  0.20863005787E+02  0.51100000000E-03 0. -1.
        -11    1    3    3    0    0 -0.22832817378E+02 -0.49203577233E+01 -0.37875410878E+01  0.23662056911E+02  0.51100000000E-03 0.  1.
         12    1    3    3    0    0  0.78780121152E+01 -0.19212965366E+02  0.18688189323E+02  0.27936526863E+02  0.00000000000E+00 0. -1.
</event>
<event>
 7    1  0.3509180E-013  0.7246197E+02  0.7816164E-02  0.1226707E+00
        -11   -1    0    0    0    0  0.00000000000E+00  0.00000000000E+00  0.45593999997E+02  0.45594000000E+02  0.51100000000E-03 0.  1.
         11   -1    0    0    0    0 -0.00000000000E+00 -0.00000000000E+00 -0.45593999997E+02  0.45594000000E+02  0.51100000000E-03 0. -1.
    9900012    2    1    2    0    0  0.87013589990E+01 -0.15125887546E+02 -0.67939710915E+01  0.72461970905E+02  0.70000521868E+02 0.  0.
        -12    1    1    2    0    0 -0.87013589990E+01  0.15125887546E+02  0.67939710915E+01  0.18726029095E+02  0.00000000000E+00 0.  1.
         11    1    3    3    0    0  0.45061044511E+01  0.21398516499E+01 -0.15431222146E+02  0.16217476980E+02  0.51100000000E-03 0. -1.
        -11    1    3    3    0    0 -0.60163061460E+01 -0.31571773654E+01 -0.20887988369E+02  0.21965239970E+02  0.51100000000E-03 0.  1.
        -12    1    3    3    0    0  0.10211560694E+02 -0.14108561830E+02  0.29525239424E+02  0.34279253956E+02  0.00000000000E+00 0.  1.
</event>
<event>
 7    1  0.3509180E-013  0.7246158E+02  0.7816164E-02  0.1226708E+00
        -11   -1    0    0    0    0  0.00000000000E+00  0.00000000000E+00  0.45593999997E+02  0.45594000000E+02  0.51100000000E-03 0. -1.
         11   -1    0    0    0    0 -0.00000000000E+00 -0.00000000000E+00 -0.45593999997E+02  0.45594000000E+02  0.51100000000E-03 0.  1.
    9900012    2    1    2    0    0  0.95351926947E+01 -0.36964490644E+01  0.15687417519E+02  0.72461582729E+02  0.70000016198E+02 0.  0.
        -12    1    1    2    0    0 -0.95351926947E+01  0.36964490644E+01 -0.15687417519E+02  0.18726417271E+02  0.00000000000E+00 0.  1.
         11    1    3    3    0    0  0.47368323779E+01  0.16890341940E+02 -0.43197861653E+01  0.18066039539E+02  0.51100000000E-03 0. -1.
        -11    1    3    3    0    0 -0.61310669619E+01  0.13452955685E+02  0.47943346647E+01  0.15542124819E+02  0.51100000000E-03 0.  1.
         12    1    3    3    0    0  0.10929427279E+02 -0.34039746690E+02  0.15212869019E+02  0.38853418371E+02  0.00000000000E+00 0. -1.
</event>
<event>
 7    1  0.3509180E-013  0.7246157E+02  0.7816164E-02  0.1226708E+00
        -11   -1    0    0    0    0  0.00000000000E+00  0.00000000000E+00  0.45593999997E+02  0.45594000000E+02  0.51100000000E-03 0.  1.
         11   -1    0    0    0    0 -0.00000000000E+00 -0.00000000000E+00 -0.45593999997E+02  0.45594000000E+02  0.51100000000E-03 0. -1.
    9900012    2    1    2    0    0  0.41527121228E+01 -0.18152407959E+02 -0.19809471180E+01  0.72461572573E+02  0.70000002969E+02 0.  0.
        -12    1    1    2    0    0 -0.41527121228E+01  0.18152407959E+02  0.19809471180E+01  0.18726427427E+02  0.00000000000E+00 0.  1.
         11    1    3    3    0    0  0.64242293446E+01 -0.50119496689E+01 -0.90027210700E+01  0.12142460586E+02  0.51100000000E-03 0. -1.
        -11    1    3    3    0    0 -0.59007853481E+01 -0.22282595143E+02 -0.20652185430E+02  0.30949088473E+02  0.51100000000E-03 0.  1.
        -12    1    3    3    0    0  0.36292681263E+01  0.91421368530E+01  0.27673959382E+02  0.29370023514E+02  0.00000000000E+00 0.  1.
</event>
<event>
 7    1  0.3509180E-013  0.7246130E+02  0.7816164E-02  0.1226709E+00
        -11   -1    0    0    0    0  0.00000000000E+00  0.00000000000E+00  0.45593999997E+02  0.45594000000E+02  0.51100000000E-03 0. -1.
         11   -1    0    0    0    0 -0.00000000000E+00 -0.00000000000E+00 -0.45593999997E+02  0.45594000000E+02  0.51100000000E-03 0.  1.
    9900012    2    1    2    0    0 -0.17703653669E+01 -0.20101501560E+01  0.18534143286E+02  0.72461298087E+02  0.69999645399E+02 0.  0.
        -12    1    1    2    0    0  0.17703653669E+01  0.20101501560E+01 -0.18534143286E+02  0.18726701913E+02  0.00000000000E+00 0.  1.
         11    1    3    3    0    0 -0.97475135257E+00  0.10318325653E+01 -0.13860445525E+02  0.13932938278E+02  0.51100000000E-03 0. -1.
        -11    1    3    3    0    0 -0.19976191855E+02  0.14969091108E+01 -0.66022918621E+00  0.20043075631E+02  0.51100000000E-03 0.  1.
         12    1    3    3    0    0  0.19180577841E+02 -0.45388918322E+01  0.33054817998E+02  0.38485284178E+02  0.00000000000E+00 0. -1.
</event>
<event>
 7    1  0.3509180E-013  0.7246157E+02  0.7816164E-02  0.1226708E+00
        -11   -1    0    0    0    0  0.00000000000E+00  0.00000000000E+00  0.45593999997E+02  0.45594000000E+02  0.51100000000E-03 0.  1.
         11   -1    0    0    0    0 -0.00000000000E+00 -0.00000000000E+00 -0.45593999997E+02  0.45594000000E+02  0.51100000000E-03 0. -1.
    9900012    2    1    2    0    0 -0.12387727856E+02  0.98387157003E+01 -0.10021127215E+02  0.72461571651E+02  0.70000001767E+02 0.  0.
        -12    1    1    2    0    0  0.12387727856E+02 -0.98387157003E+01  0.10021127215E+02  0.18726428349E+02  0.00000000000E+00 0.  1.
         11    1    3    3    0    0 -0.13011516698E+02  0.18581199941E+02 -0.50907624968E+01  0.23248148767E+02  0.51100000000E-03 0.  1.
        -11    1    3    3    0    0 -0.11317430339E+02  0.47800068918E+01  0.16899964523E+02  0.20893575484E+02  0.51100000000E-03 0. -1.
         12    1    3    3    0    0  0.11941219181E+02 -0.13522491133E+02 -0.21830329241E+02  0.28319847400E+02  0.00000000000E+00 0. -1.
</event>
<event>
 7    1  0.3509180E-013  0.7246158E+02  0.7816164E-02  0.1226708E+00
        -11   -1    0    0    0    0  0.00000000000E+00  0.00000000000E+00  0.45593999997E+02  0.45594000000E+02  0.51100000000E-03 0.  1.
         11   -1    0    0    0    0 -0.00000000000E+00 -0.00000000000E+00 -0.45593999997E+02  0.45594000000E+02  0.51100000000E-03 0. -1.
    9900012    2    1    2    0    0 -0.15122327509E+02 -0.10889500597E+02  0.18473404050E+01  0.72461583388E+02  0.70000017057E+02 0.  0.
        -12    1    1    2    0    0  0.15122327509E+02  0.10889500597E+02 -0.18473404050E+01  0.18726416612E+02  0.00000000000E+00 0.  1.
         11    1    3    3    0    0 -0.20311635781E+02  0.56176955593E+01  0.13282842108E+02  0.24910940291E+02  0.51100000000E-03 0. -1.
        -11    1    3    3    0    0 -0.65711359213E+01  0.31637436247E+00  0.13640858375E+02  0.15144402844E+02  0.51100000000E-03 0.  1.
         12    1    3    3    0    0  0.11760444193E+02 -0.16823570519E+02 -0.25076360077E+02  0.32406240253E+02  0.00000000000E+00 0. -1.
</event>
<event>
 7    1  0.3509180E-013  0.7246158E+02  0.7816164E-02  0.1226708E+00
        -11   -1    0    0    0    0  0.00000000000E+00  0.00000000000E+00  0.45593999997E+02  0.45594000000E+02  0.51100000000E-03 0. -1.
         11   -1    0    0    0    0 -0.00000000000E+00 -0.00000000000E+00 -0.45593999997E+02  0.45594000000E+02  0.51100000000E-03 0.  1.
    9900012    2    1    2    0    0 -0.11426872189E+02 -0.11383757684E+02  0.95139667104E+01  0.72461577235E+02  0.70000009041E+02 0.  0.
        -12    1    1    2    0    0  0.11426872189E+02  0.11383757684E+02 -0.95139667104E+01  0.18726422765E+02  0.00000000000E+00 0.  1.
         11    1    3    3    0    0 -0.23487155698E+02  0.42486624792E+01  0.24286412606E+02  0.34051834799E+02  0.51100000000E-03 0. -1.
        -11    1    3    3    0    0 -0.44222588545E+01 -0.90014156092E+01  0.55127629325E+01  0.11444317881E+02  0.51100000000E-03 0.  1.
        -12    1    3    3    0    0  0.16482542364E+02 -0.66310045540E+01 -0.20285208828E+02  0.26965424554E+02  0.00000000000E+00 0.  1.
</event>
<event>
 7    1  0.3509180E-013  0.7246154E+02  0.7816164E-02  0.1226708E+00
        -11   -1    0    0    0    0  0.00000000000E+00  0.00000000000E+00  0.45593999997E+02  0.45594000000E+02  0.51100000000E-03 0. -1.
         11   -1    0    0    0    0 -0.00000000000E+00 -0.00000000000E+00 -0.45593999997E+02  0.45594000000E+02  0.51100000000E-03 0.  1.
    9900012    2    1    2    0    0 -0.14514005373E+02 -0.10134984098E+02  0.61078526926E+01  0.72461544939E+02  0.69999966970E+02 0.  0.
        -12    1    1    2    0    0  0.14514005373E+02  0.10134984098E+02 -0.61078526926E+01  0.18726455061E+02  0.00000000000E+00 0.  1.
         11    1    3    3    0    0  0.27930499679E+01  0.60606298782E+01 -0.44547466437E+01  0.80235360387E+01  0.51100000000E-03 0. -1.
        -11    1    3    3    0    0 -0.15915049230E+02  0.15802003236E+02 -0.11832064367E+02  0.25357244442E+02  0.51100000000E-03 0.  1.
         12    1    3    3    0    0 -0.13920061108E+01 -0.31997617212E+02  0.22394663703E+02  0.39080764458E+02  0.00000000000E+00 0. -1.
</event>
<event>
 7    1  0.3509180E-013  0.7246136E+02  0.7816164E-02  0.1226709E+00
        -11   -1    0    0    0    0  0.00000000000E+00  0.00000000000E+00  0.45593999997E+02  0.45594000000E+02  0.51100000000E-03 0.  1.
         11   -1    0    0    0    0 -0.00000000000E+00 -0.00000000000E+00 -0.45593999997E+02  0.45594000000E+02  0.51100000000E-03 0. -1.
    9900012    2    1    2    0    0 -0.10488437203E+02 -0.10489755607E+01 -0.15478355298E+02  0.72461357284E+02  0.69999722514E+02 0.  0.
        -12    1    1    2    0    0  0.10488437203E+02  0.10489755607E+01  0.15478355298E+02  0.18726642716E+02  0.00000000000E+00 0.  1.
         11    1    3    3    0    0  0.74801355965E+01 -0.26316791198E+01 -0.49815465642E+01  0.93645058580E+01  0.51100000000E-03 0. -1.
        -11    1    3    3    0    0  0.77701794790E+01 -0.10328712054E+02 -0.27247927010E+02  0.30158042185E+02  0.51100000000E-03 0.  1.
         12    1    3    3    0    0 -0.25738752278E+02  0.11911415613E+02  0.16751118276E+02  0.32938809241E+02  0.00000000000E+00 0. -1.
</event>
<event>
 7    1  0.3509180E-013  0.7246144E+02  0.7816164E-02  0.1226708E+00
        -11   -1    0    0    0    0  0.00000000000E+00  0.00000000000E+00  0.45593999997E+02  0.45594000000E+02  0.51100000000E-03 0.  1.
         11   -1    0    0    0    0 -0.00000000000E+00 -0.00000000000E+00 -0.45593999997E+02  0.45594000000E+02  0.51100000000E-03 0. -1.
    9900012    2    1    2    0    0 -0.75932670999E+01 -0.43623876851E+01 -0.16552822812E+02  0.72461439327E+02  0.69999829391E+02 0.  0.
        -12    1    1    2    0    0  0.75932670999E+01  0.43623876851E+01  0.16552822812E+02  0.18726560673E+02  0.00000000000E+00 0.  1.
         11    1    3    3    0    0  0.65003299943E+01  0.60078590117E+01  0.17526452508E+00  0.88532128549E+01  0.51100000000E-03 0. -1.
        -11    1    3    3    0    0  0.85014693666E+00  0.23399738197E+02 -0.12200358683E+02  0.26403015922E+02  0.51100000000E-03 0.  1.
        -12    1    3    3    0    0 -0.14943744031E+02 -0.33769984894E+02 -0.45277286543E+01  0.37205210551E+02  0.00000000000E+00 0.  1.
</event>
<event>
 7    1  0.3509180E-013  0.7246156E+02  0.7816164E-02  0.1226708E+00
        -11   -1    0    0    0    0  0.00000000000E+00  0.00000000000E+00  0.45593999997E+02  0.45594000000E+02  0.51100000000E-03 0. -1.
         11   -1    0    0    0    0 -0.00000000000E+00 -0.00000000000E+00 -0.45593999997E+02  0.45594000000E+02  0.51100000000E-03 0.  1.
    9900012    2    1    2    0    0 -0.15621444759E+02  0.83379941305E+01  0.60932635504E+01  0.72461560318E+02  0.69999987004E+02 0.  0.
        -12    1    1    2    0    0  0.15621444759E+02 -0.83379941305E+01 -0.60932635504E+01  0.18726439682E+02  0.00000000000E+00 0.  1.
         11    1    3    3    0    0  0.32353531974E+01 -0.17314555488E+02 -0.41553265576E+01  0.18097736906E+02  0.51100000000E-03 0. -1.
        -11    1    3    3    0    0  0.43593704485E+01  0.59183366954E+01 -0.13740848310E+02  0.15583380008E+02  0.51100000000E-03 0.  1.
         12    1    3    3    0    0 -0.23216168404E+02  0.19734212923E+02  0.23989438418E+02  0.38780443404E+02  0.00000000000E+00 0. -1.
</event>
<event>
 7    1  0.3509180E-013  0.7246154E+02  0.7816164E-02  0.1226708E+00
        -11   -1    0    0    0    0  0.00000000000E+00  0.00000000000E+00  0.45593999997E+02  0.45594000000E+02  0.51100000000E-03 0.  1.
         11   -1    0    0    0    0 -0.00000000000E+00 -0.00000000000E+00 -0.45593999997E+02  0.45594000000E+02  0.51100000000E-03 0. -1.
    9900012    2    1    2    0    0  0.15339682483E+01 -0.16207857229E+02  0.92537852474E+01  0.72461541821E+02  0.69999962908E+02 0.  0.
        -12    1    1    2    0    0 -0.15339682483E+01  0.16207857229E+02 -0.92537852474E+01  0.18726458179E+02  0.00000000000E+00 0.  1.
         11    1    3    3    0    0  0.87126385495E+01 -0.65322212106E+01  0.29461464428E+01  0.11280946927E+02  0.51100000000E-03 0. -1.
        -11    1    3    3    0    0  0.17623357158E+02 -0.64449557703E+01 -0.18215945600E+02  0.26152262747E+02  0.51100000000E-03 0.  1.
        -12    1    3    3    0    0 -0.24802027459E+02 -0.32306802481E+01  0.24523584405E+02  0.35028332147E+02  0.00000000000E+00 0.  1.
</event>
<event>
 7    1  0.3509180E-013  0.7246158E+02  0.7816164E-02  0.1226708E+00
        -11   -1    0    0    0    0  0.00000000000E+00  0.00000000000E+00  0.45593999997E+02  0.45594000000E+02  0.51100000000E-03 0.  1.
         11   -1    0    0    0    0 -0.00000000000E+00 -0.00000000000E+00 -0.45593999997E+02  0.45594000000E+02  0.51100000000E-03 0. -1.
    9900012    2    1    2    0    0  0.72205294123E+01 -0.35986036953E+01 -0.16899493804E+02  0.72461577908E+02  0.70000009918E+02 0.  0.
        -12    1    1    2    0    0 -0.72205294123E+01  0.35986036953E+01  0.16899493804E+02  0.18726422092E+02  0.00000000000E+00 0.  1.
         11    1    3    3    0    0 -0.21473367490E+02  0.22840941953E+01 -0.10400443307E+02  0.23968558966E+02  0.51100000000E-03 0. -1.
        -11    1    3    3    0    0  0.40583156614E+01 -0.14344262029E+02 -0.14945939024E+02  0.21109449845E+02  0.51100000000E-03 0.  1.
        -12    1    3    3    0    0  0.24635581241E+02  0.84615641383E+01  0.84468885277E+01  0.27383569098E+02  0.00000000000E+00 0.  1.
</event>
<event>
 7    1  0.3509180E-013  0.7246162E+02  0.7816164E-02  0.1226708E+00
        -11   -1    0    0    0    0  0.00000000000E+00  0.00000000000E+00  0.45593999997E+02  0.45594000000E+02  0.51100000000E-03 0.  1.
         11   -1    0    0    0    0 -0.00000000000E+00 -0.00000000000E+00 -0.45593999997E+02  0.45594000000E+02  0.51100000000E-03 0. -1.
    9900012    2    1    2    0    0 -0.52642739189E+01 -0.51158229526E+01 -0.17227683638E+02  0.72461620000E+02  0.70000064751E+02 0.  0.
        -12    1    1    2    0    0  0.52642739189E+01  0.51158229526E+01  0.17227683638E+02  0.18726380000E+02  0.00000000000E+00 0.  1.
         11    1    3    3    0    0  0.21161050361E+02 -0.94673675397E+01  0.29498359087E+01  0.23369266841E+02  0.51100000000E-03 0. -1.
        -11    1    3    3    0    0  0.62950273598E+01 -0.65602291537E+01  0.78712184676E-01  0.90923138902E+01  0.51100000000E-03 0.  1.
        -12    1    3    3    0    0 -0.32720351640E+02  0.10911773741E+02 -0.20256231731E+02  0.40000039269E+02  0.00000000000E+00 0.  1.
</event>
<event>
 7    1  0.3509180E-013  0.7246155E+02  0.7816164E-02  0.1226708E+00
        -11   -1    0    0    0    0  0.00000000000E+00  0.00000000000E+00  0.45593999997E+02  0.45594000000E+02  0.51100000000E-03 0. -1.
         11   -1    0    0    0    0 -0.00000000000E+00 -0.00000000000E+00 -0.45593999997E+02  0.45594000000E+02  0.51100000000E-03 0.  1.
    9900012    2    1    2    0    0 -0.20821709872E+01  0.18472670811E+02  0.22594068841E+01  0.72461550193E+02  0.69999973815E+02 0.  0.
        -12    1    1    2    0    0  0.20821709872E+01 -0.18472670811E+02 -0.22594068841E+01  0.18726449807E+02  0.00000000000E+00 0.  1.
         11    1    3    3    0    0 -0.87296618218E+01 -0.49888405343E+01  0.29205340654E+00  0.10058867772E+02  0.51100000000E-03 0. -1.
        -11    1    3    3    0    0 -0.21760547593E+02  0.51645321172E+01  0.14170321391E+02  0.26476250341E+02  0.51100000000E-03 0.  1.
         12    1    3    3    0    0  0.28408038427E+02  0.18296979228E+02 -0.12202967914E+02  0.35926432081E+02  0.00000000000E+00 0. -1.
</event>
<event>
 7    1  0.3509180E-013  0.7246159E+02  0.7816164E-02  0.1226708E+00
        -11   -1    0    0    0    0  0.00000000000E+00  0.00000000000E+00  0.45593999997E+02  0.45594000000E+02  0.51100000000E-03 0.  1.
         11   -1    0    0    0    0 -0.00000000000E+00 -0.00000000000E+00 -0.45593999997E+02  0.45594000000E+02  0.51100000000E-03 0. -1.
    9900012    2    1    2    0    0  0.19368755420E+01 -0.12819763179E+02 -0.13512234831E+02  0.72461593379E+02  0.70000030072E+02 0.  0.
        -12    1    1    2    0    0 -0.19368755420E+01  0.12819763179E+02  0.13512234831E+02  0.18726406621E+02  0.00000000000E+00 0.  1.
         11    1    3    3    0    0  0.70622918268E+01 -0.20786411653E+01 -0.19645211830E+02  0.20979300823E+02  0.51100000000E-03 0. -1.
        -11    1    3    3    0    0  0.38186628949E+01  0.87002963429E+01  0.22576397447E+02  0.24494306782E+02  0.51100000000E-03 0.  1.
         12    1    3    3    0    0 -0.89440791798E+01 -0.19441418356E+02 -0.16443420448E+02  0.26987985774E+02  0.00000000000E+00 0. -1.
</event>
<event>
 7    1  0.3509180E-013  0.7246156E+02  0.7816164E-02  0.1226708E+00
        -11   -1    0    0    0    0  0.00000000000E+00  0.00000000000E+00  0.45593999997E+02  0.45594000000E+02  0.51100000000E-03 0. -1.
         11   -1    0    0    0    0 -0.00000000000E+00 -0.00000000000E+00 -0.45593999997E+02  0.45594000000E+02  0.51100000000E-03 0.  1.
    9900012    2    1    2    0    0  0.11257219660E+02  0.41688976113E+01 -0.14372713967E+02  0.72461558572E+02  0.69999984730E+02 0.  0.
        -12    1    1    2    0    0 -0.11257219660E+02 -0.41688976113E+01  0.14372713967E+02  0.18726441428E+02  0.00000000000E+00 0.  1.
         11    1    3    3    0    0 -0.85805996206E+01  0.28761431499E+02 -0.20375066753E+02  0.36276576150E+02  0.51100000000E-03 0. -1.
        -11    1    3    3    0    0 -0.12435618449E+01  0.16182841578E+01  0.18991459521E+00  0.20497213206E+01  0.51100000000E-03 0.  1.
        -12    1    3    3    0    0  0.21081381126E+02 -0.26210818045E+02  0.58124381913E+01  0.34135261102E+02  0.00000000000E+00 0.  1.
</event>
<event>
 7    1  0.3509180E-013  0.7246158E+02  0.7816164E-02  0.1226708E+00
        -11   -1    0    0    0    0  0.00000000000E+00  0.00000000000E+00  0.45593999997E+02  0.45594000000E+02  0.51100000000E-03 0.  1.
         11   -1    0    0    0    0 -0.00000000000E+00 -0.00000000000E+00 -0.45593999997E+02  0.45594000000E+02  0.51100000000E-03 0. -1.
    9900012    2    1    2    0    0  0.55647400607E+01  0.72046830106E+01 -0.16364746597E+02  0.72461582286E+02  0.70000015621E+02 0.  0.
        -12    1    1    2    0    0 -0.55647400607E+01 -0.72046830106E+01  0.16364746597E+02  0.18726417714E+02  0.00000000000E+00 0.  1.
         11    1    3    3    0    0  0.28609989095E+02  0.43858782629E+01 -0.24720051267E+02  0.38063740476E+02  0.51100000000E-03 0. -1.
        -11    1    3    3    0    0 -0.32603692217E+01  0.11359385588E+02  0.29965130743E+01  0.12191994884E+02  0.51100000000E-03 0.  1.
        -12    1    3    3    0    0 -0.19784879813E+02 -0.85405808400E+01  0.53587915953E+01  0.22205846925E+02  0.00000000000E+00 0.  1.
</event>
<event>
 7    1  0.3509180E-013  0.7246156E+02  0.7816164E-02  0.1226708E+00
        -11   -1    0    0    0    0  0.00000000000E+00  0.00000000000E+00  0.45593999997E+02  0.45594000000E+02  0.51100000000E-03 0.  1.
         11   -1    0    0    0    0 -0.00000000000E+00 -0.00000000000E+00 -0.45593999997E+02  0.45594000000E+02  0.51100000000E-03 0. -1.
    9900012    2    1    2    0    0  0.73855565879E+01  0.16939884314E+02 -0.30287388944E+01  0.72461564515E+02  0.69999992472E+02 0.  0.
        -12    1    1    2    0    0 -0.73855565879E+01 -0.16939884314E+02  0.30287388944E+01  0.18726435485E+02  0.00000000000E+00 0.  1.
         11    1    3    3    0    0  0.19137149572E+02  0.20429644449E+02 -0.22156919040E+02  0.35700559206E+02  0.51100000000E-03 0. -1.
        -11    1    3    3    0    0  0.30777387217E+01 -0.13263165503E+02  0.88932810117E+01  0.16262671435E+02  0.51100000000E-03 0.  1.
        -12    1    3    3    0    0 -0.14829331706E+02  0.97734053678E+01  0.10234899134E+02  0.20498333874E+02  0.00000000000E+00 0.  1.
</event>
<event>
 7    1  0.3509180E-013  0.7246159E+02  0.7816164E-02  0.1226708E+00
        -11   -1    0    0    0    0  0.00000000000E+00  0.00000000000E+00  0.45593999997E+02  0.45594000000E+02  0.51100000000E-03 0.  1.
         11   -1    0    0    0    0 -0.00000000000E+00 -0.00000000000E+00 -0.45593999997E+02  0.45594000000E+02  0.51100000000E-03 0. -1.
    9900012    2    1    2    0    0  0.14372874221E+02  0.11861203485E+02  0.18468589335E+01  0.72461586851E+02  0.70000021569E+02 0.  0.
        -12    1    1    2    0    0 -0.14372874221E+02 -0.11861203485E+02 -0.18468589335E+01  0.18726413149E+02  0.00000000000E+00 0.  1.
         11    1    3    3    0    0 -0.60885938121E+01  0.20408916361E+02 -0.10517552094E+02  0.23753183870E+02  0.51100000000E-03 0. -1.
        -11    1    3    3    0    0  0.19375756249E+02  0.91572067145E+01  0.20077063792E+02  0.29366015320E+02  0.51100000000E-03 0.  1.
         12    1    3    3    0    0  0.10857117849E+01 -0.17704919591E+02 -0.77126527644E+01  0.19342387662E+02  0.00000000000E+00 0. -1.
</event>
<event>
 7    1  0.3509180E-013  0.7246187E+02  0.7816164E-02  0.1226707E+00
        -11   -1    0    0    0    0  0.00000000000E+00  0.00000000000E+00  0.45593999997E+02  0.45594000000E+02  0.51100000000E-03 0.  1.
         11   -1    0    0    0    0 -0.00000000000E+00 -0.00000000000E+00 -0.45593999997E+02  0.45594000000E+02  0.51100000000E-03 0. -1.
    9900012    2    1    2    0    0  0.35602721488E+01  0.18383964744E+02 -0.14891189133E+00  0.72461871937E+02  0.70000392944E+02 0.  0.
        -12    1    1    2    0    0 -0.35602721488E+01 -0.18383964744E+02  0.14891189133E+00  0.18726128063E+02  0.00000000000E+00 0.  1.
         11    1    3    3    0    0  0.16860923806E+02  0.30236654891E+01  0.90643096366E+01  0.19380273838E+02  0.51100000000E-03 0. -1.
        -11    1    3    3    0    0  0.99582610013E+01  0.25118108283E+02 -0.57068614532E+01  0.27616201654E+02  0.51100000000E-03 0.  1.
         12    1    3    3    0    0 -0.23258912659E+02 -0.97578090277E+01 -0.35063600747E+01  0.25465396444E+02  0.00000000000E+00 0. -1.
</event>
<event>
 7    1  0.3509180E-013  0.7246186E+02  0.7816164E-02  0.1226707E+00
        -11   -1    0    0    0    0  0.00000000000E+00  0.00000000000E+00  0.45593999997E+02  0.45594000000E+02  0.51100000000E-03 0. -1.
         11   -1    0    0    0    0 -0.00000000000E+00 -0.00000000000E+00 -0.45593999997E+02  0.45594000000E+02  0.51100000000E-03 0.  1.
    9900012    2    1    2    0    0 -0.18009409512E+02  0.21506519774E+00  0.51267030190E+01  0.72461864044E+02  0.70000382662E+02 0.  0.
        -12    1    1    2    0    0  0.18009409512E+02 -0.21506519774E+00 -0.51267030190E+01  0.18726135956E+02  0.00000000000E+00 0.  1.
         11    1    3    3    0    0  0.10776038291E+02 -0.73977215667E+01  0.12729782779E+02  0.18245455749E+02  0.51100000000E-03 0. -1.
        -11    1    3    3    0    0  0.11926297730E+02 -0.33460942343E+00  0.54529751533E+00  0.11943445510E+02  0.51100000000E-03 0.  1.
        -12    1    3    3    0    0 -0.40711745532E+02  0.79473961878E+01 -0.81483772754E+01  0.42272962785E+02  0.00000000000E+00 0.  1.
</event>
<event>
 7    1  0.3509180E-013  0.7246157E+02  0.7816164E-02  0.1226708E+00
        -11   -1    0    0    0    0  0.00000000000E+00  0.00000000000E+00  0.45593999997E+02  0.45594000000E+02  0.51100000000E-03 0. -1.
         11   -1    0    0    0    0 -0.00000000000E+00 -0.00000000000E+00 -0.45593999997E+02  0.45594000000E+02  0.51100000000E-03 0.  1.
    9900012    2    1    2    0    0 -0.11605780917E+02 -0.13604427017E+02  0.55591829557E+01  0.72461572143E+02  0.70000002408E+02 0.  0.
        -12    1    1    2    0    0  0.11605780917E+02  0.13604427017E+02 -0.55591829557E+01  0.18726427857E+02  0.00000000000E+00 0.  1.
         11    1    3    3    0    0 -0.11603672011E+02 -0.14147447631E+02  0.33472347480E+00  0.18300478646E+02  0.51100000000E-03 0. -1.
        -11    1    3    3    0    0 -0.51948401096E+01 -0.25677191643E+02  0.77310845643E+01  0.27314358920E+02  0.51100000000E-03 0.  1.
         12    1    3    3    0    0  0.51927312037E+01  0.26220212256E+02 -0.25066250834E+01  0.26846734577E+02  0.00000000000E+00 0. -1.
</event>
<event>
 7    1  0.3509180E-013  0.7246169E+02  0.7816164E-02  0.1226708E+00
        -11   -1    0    0    0    0  0.00000000000E+00  0.00000000000E+00  0.45593999997E+02  0.45594000000E+02  0.51100000000E-03 0.  1.
         11   -1    0    0    0    0 -0.00000000000E+00 -0.00000000000E+00 -0.45593999997E+02  0.45594000000E+02  0.51100000000E-03 0. -1.
    9900012    2    1    2    0    0 -0.14005150683E+02 -0.11071674307E+02 -0.56522916071E+01  0.72461691820E+02  0.70000158310E+02 0.  0.
        -12    1    1    2    0    0  0.14005150683E+02  0.11071674307E+02  0.56522916071E+01  0.18726308180E+02  0.00000000000E+00 0.  1.
         11    1    3    3    0    0 -0.64559975044E+01  0.11078829517E+02  0.89550055048E-01  0.12822963258E+02  0.51100000000E-03 0. -1.
        -11    1    3    3    0    0  0.30897363659E+00 -0.11156379368E+02  0.24276350941E+02  0.26718934870E+02  0.51100000000E-03 0.  1.
         12    1    3    3    0    0 -0.78581268155E+01 -0.10994124456E+02 -0.30018192603E+02  0.32919793693E+02  0.00000000000E+00 0. -1.
</event>
<event>
 7    1  0.3509180E-013  0.7246158E+02  0.7816164E-02  0.1226708E+00
        -11   -1    0    0    0    0  0.00000000000E+00  0.00000000000E+00  0.45593999997E+02  0.45594000000E+02  0.51100000000E-03 0.  1.
         11   -1    0    0    0    0 -0.00000000000E+00 -0.00000000000E+00 -0.45593999997E+02  0.45594000000E+02  0.51100000000E-03 0. -1.
    9900012    2    1    2    0    0 -0.80388554526E+01  0.16910921320E+02 -0.27638794486E+00  0.72461578901E+02  0.70000011211E+02 0.  0.
        -12    1    1    2    0    0  0.80388554526E+01 -0.16910921320E+02  0.27638794486E+00  0.18726421099E+02  0.00000000000E+00 0.  1.
         11    1    3    3    0    0 -0.18586340939E+02  0.17658993461E+02 -0.25676293226E+02  0.36284489160E+02  0.51100000000E-03 0. -1.
        -11    1    3    3    0    0  0.11793784166E+02 -0.28340854073E+01  0.15781958353E+01  0.12231765507E+02  0.51100000000E-03 0.  1.
        -12    1    3    3    0    0 -0.12462986794E+01  0.20860132669E+01  0.23821709446E+02  0.23945324234E+02  0.00000000000E+00 0.  1.
</event>
<event>
 7    1  0.3509180E-013  0.7246161E+02  0.7816164E-02  0.1226708E+00
        -11   -1    0    0    0    0  0.00000000000E+00  0.00000000000E+00  0.45593999997E+02  0.45594000000E+02  0.51100000000E-03 0.  1.
         11   -1    0    0    0    0 -0.00000000000E+00 -0.00000000000E+00 -0.45593999997E+02  0.45594000000E+02  0.51100000000E-03 0. -1.
    9900012    2    1    2    0    0  0.39357650158E+01  0.10132934002E+02 -0.15248316191E+02  0.72461608346E+02  0.70000049569E+02 0.  0.
        -12    1    1    2    0    0 -0.39357650158E+01 -0.10132934002E+02  0.15248316191E+02  0.18726391654E+02  0.00000000000E+00 0.  1.
         11    1    3    3    0    0 -0.12776421893E+02 -0.93909443394E+01 -0.11170186196E+02  0.19395872032E+02  0.51100000000E-03 0. -1.
        -11    1    3    3    0    0 -0.36518101420E+00 -0.72634998925E+01  0.14530472246E+02  0.16248889557E+02  0.51100000000E-03 0.  1.
        -12    1    3    3    0    0  0.17077367923E+02  0.26787378234E+02 -0.18608602241E+02  0.36816846757E+02  0.00000000000E+00 0.  1.
</event>
<event>
 7    1  0.3509180E-013  0.7246151E+02  0.7816164E-02  0.1226708E+00
        -11   -1    0    0    0    0  0.00000000000E+00  0.00000000000E+00  0.45593999997E+02  0.45594000000E+02  0.51100000000E-03 0. -1.
         11   -1    0    0    0    0 -0.00000000000E+00 -0.00000000000E+00 -0.45593999997E+02  0.45594000000E+02  0.51100000000E-03 0.  1.
    9900012    2    1    2    0    0  0.17480515542E+02  0.22990825454E+00  0.67126827932E+01  0.72461510962E+02  0.69999922708E+02 0.  0.
        -12    1    1    2    0    0 -0.17480515542E+02 -0.22990825454E+00 -0.67126827932E+01  0.18726489038E+02  0.00000000000E+00 0.  1.
         11    1    3    3    0    0  0.41172968994E+01  0.25847064790E+01 -0.28800493431E+01  0.56504447453E+01  0.51100000000E-03 0. -1.
        -11    1    3    3    0    0  0.11261633371E+02 -0.99769776488E+01 -0.26168971632E+02  0.30185750706E+02  0.51100000000E-03 0.  1.
         12    1    3    3    0    0  0.21015852714E+01  0.76221794244E+01  0.35761703768E+02  0.36625315510E+02  0.00000000000E+00 0. -1.
</event>
<event>
 7    1  0.3509180E-013  0.7246160E+02  0.7816164E-02  0.1226708E+00
        -11   -1    0    0    0    0  0.00000000000E+00  0.00000000000E+00  0.45593999997E+02  0.45594000000E+02  0.51100000000E-03 0.  1.
         11   -1    0    0    0    0 -0.00000000000E+00 -0.00000000000E+00 -0.45593999997E+02  0.45594000000E+02  0.51100000000E-03 0. -1.
    9900012    2    1    2    0    0  0.14699546152E+02  0.11531444655E+02 -0.12756625924E+01  0.72461596502E+02  0.70000034140E+02 0.  0.
        -12    1    1    2    0    0 -0.14699546152E+02 -0.11531444655E+02  0.12756625924E+01  0.18726403498E+02  0.00000000000E+00 0.  1.
         11    1    3    3    0    0  0.11514909680E+01 -0.15660199525E+02 -0.21985153147E+02  0.27016934315E+02  0.51100000000E-03 0. -1.
        -11    1    3    3    0    0  0.10432339442E+02  0.33119676297E+01  0.18192581890E+02  0.21231412386E+02  0.51100000000E-03 0.  1.
        -12    1    3    3    0    0  0.31157157425E+01  0.23879676550E+02  0.25169086643E+01  0.24213249802E+02  0.00000000000E+00 0.  1.
</event>
<event>
 7    1  0.3509180E-013  0.7246161E+02  0.7816164E-02  0.1226708E+00
        -11   -1    0    0    0    0  0.00000000000E+00  0.00000000000E+00  0.45593999997E+02  0.45594000000E+02  0.51100000000E-03 0.  1.
         11   -1    0    0    0    0 -0.00000000000E+00 -0.00000000000E+00 -0.45593999997E+02  0.45594000000E+02  0.51100000000E-03 0. -1.
    9900012    2    1    2    0    0  0.10917924353E+02  0.96210696365E+01 -0.11786076428E+02  0.72461610847E+02  0.70000052828E+02 0.  0.
        -12    1    1    2    0    0 -0.10917924353E+02 -0.96210696365E+01  0.11786076428E+02  0.18726389153E+02  0.00000000000E+00 0.  1.
         11    1    3    3    0    0 -0.25851048098E+01 -0.16166883047E+01  0.57597631175E+01  0.65170023311E+01  0.51100000000E-03 0. -1.
        -11    1    3    3    0    0 -0.24501645294E+02  0.53852213468E+01 -0.59652523137E+01  0.25785954830E+02  0.51100000000E-03 0.  1.
         12    1    3    3    0    0  0.38004674458E+02  0.58525365944E+01 -0.11580587231E+02  0.40158653686E+02  0.00000000000E+00 0. -1.
</event>
<event>
 7    1  0.3509180E-013  0.7246156E+02  0.7816164E-02  0.1226708E+00
        -11   -1    0    0    0    0  0.00000000000E+00  0.00000000000E+00  0.45593999997E+02  0.45594000000E+02  0.51100000000E-03 0.  1.
         11   -1    0    0    0    0 -0.00000000000E+00 -0.00000000000E+00 -0.45593999997E+02  0.45594000000E+02  0.51100000000E-03 0. -1.
    9900012    2    1    2    0    0 -0.16025215027E+01 -0.53597999791E+01 -0.17871316372E+02  0.72461562009E+02  0.69999989206E+02 0.  0.
        -12    1    1    2    0    0  0.16025215027E+01  0.53597999791E+01  0.17871316372E+02  0.18726437991E+02  0.00000000000E+00 0.  1.
         11    1    3    3    0    0 -0.43330015020E+00 -0.11954898304E+02 -0.98554820797E+01  0.15499608697E+02  0.51100000000E-03 0. -1.
        -11    1    3    3    0    0 -0.16664045121E+02 -0.19320554359E+02  0.73541855864E+00  0.25524793070E+02  0.51100000000E-03 0.  1.
         12    1    3    3    0    0  0.15494823768E+02  0.25915652683E+02 -0.87512528509E+01  0.31437160242E+02  0.00000000000E+00 0. -1.
</event>
<event>
 7    1  0.3509180E-013  0.7246157E+02  0.7816164E-02  0.1226708E+00
        -11   -1    0    0    0    0  0.00000000000E+00  0.00000000000E+00  0.45593999997E+02  0.45594000000E+02  0.51100000000E-03 0.  1.
         11   -1    0    0    0    0 -0.00000000000E+00 -0.00000000000E+00 -0.45593999997E+02  0.45594000000E+02  0.51100000000E-03 0. -1.
    9900012    2    1    2    0    0  0.82611921617E+01 -0.42956116957E+01 -0.16247445213E+02  0.72461573440E+02  0.70000004098E+02 0.  0.
        -12    1    1    2    0    0 -0.82611921617E+01  0.42956116957E+01  0.16247445213E+02  0.18726426560E+02  0.00000000000E+00 0.  1.
         11    1    3    3    0    0  0.20681900343E+01 -0.61896318390E+01  0.10580292457E+02  0.12431071598E+02  0.51100000000E-03 0. -1.
        -11    1    3    3    0    0 -0.12429201585E+02  0.19451785655E+02 -0.25508106834E+02  0.34402333230E+02  0.51100000000E-03 0.  1.
         12    1    3    3    0    0  0.18622203712E+02 -0.17557765511E+02 -0.13196308364E+01  0.25628168612E+02  0.00000000000E+00 0. -1.
</event>
<event>
 7    1  0.3509180E-013  0.7246157E+02  0.7816164E-02  0.1226708E+00
        -11   -1    0    0    0    0  0.00000000000E+00  0.00000000000E+00  0.45593999997E+02  0.45594000000E+02  0.51100000000E-03 0.  1.
         11   -1    0    0    0    0 -0.00000000000E+00 -0.00000000000E+00 -0.45593999997E+02  0.45594000000E+02  0.51100000000E-03 0. -1.
    9900012    2    1    2    0    0  0.84848683535E+01 -0.16647032958E+02 -0.12500200637E+01  0.72461568214E+02  0.69999997290E+02 0.  0.
        -12    1    1    2    0    0 -0.84848683535E+01  0.16647032958E+02  0.12500200637E+01  0.18726431786E+02  0.00000000000E+00 0.  1.
         11    1    3    3    0    0  0.62199397728E+01 -0.54745346698E+01  0.42559770879E+01  0.93151232875E+01  0.51100000000E-03 0. -1.
        -11    1    3    3    0    0 -0.17533227006E+02 -0.29236645102E+02  0.48104151126E+01  0.34428702558E+02  0.51100000000E-03 0.  1.
         12    1    3    3    0    0  0.19798155586E+02  0.18064146814E+02 -0.10316412264E+02  0.28717742368E+02  0.00000000000E+00 0. -1.
</event>
<event>
 7    1  0.3509180E-013  0.7246158E+02  0.7816164E-02  0.1226708E+00
        -11   -1    0    0    0    0  0.00000000000E+00  0.00000000000E+00  0.45593999997E+02  0.45594000000E+02  0.51100000000E-03 0.  1.
         11   -1    0    0    0    0 -0.00000000000E+00 -0.00000000000E+00 -0.45593999997E+02  0.45594000000E+02  0.51100000000E-03 0. -1.
    9900012    2    1    2    0    0 -0.16269588142E+01 -0.15457811749E+02 -0.10444516231E+02  0.72461578602E+02  0.70000010823E+02 0.  0.
        -12    1    1    2    0    0  0.16269588142E+01  0.15457811749E+02  0.10444516231E+02  0.18726421398E+02  0.00000000000E+00 0.  1.
         11    1    3    3    0    0 -0.99404721407E+01 -0.13172697539E+02 -0.99850351629E+01  0.19288179652E+02  0.51100000000E-03 0. -1.
        -11    1    3    3    0    0 -0.19700119609E+02 -0.11956428699E+02 -0.37776769670E+01  0.23352125030E+02  0.51100000000E-03 0.  1.
         12    1    3    3    0    0  0.28013632936E+02  0.96713144893E+01  0.33181958986E+01  0.29821273921E+02  0.00000000000E+00 0. -1.
</event>
<event>
 7    1  0.3509180E-013  0.7246165E+02  0.7816164E-02  0.1226708E+00
        -11   -1    0    0    0    0  0.00000000000E+00  0.00000000000E+00  0.45593999997E+02  0.45594000000E+02  0.51100000000E-03 0.  1.
         11   -1    0    0    0    0 -0.00000000000E+00 -0.00000000000E+00 -0.45593999997E+02  0.45594000000E+02  0.51100000000E-03 0. -1.
    9900012    2    1    2    0    0  0.10367924521E+02  0.10544149795E+02 -0.11489258234E+02  0.72461654693E+02  0.70000109945E+02 0.  0.
        -12    1    1    2    0    0 -0.10367924521E+02 -0.10544149795E+02  0.11489258234E+02  0.18726345307E+02  0.00000000000E+00 0.  1.
         11    1    3    3    0    0  0.49565294073E+01  0.47057889462E+01  0.18425395871E+02  0.19652146108E+02  0.51100000000E-03 0. -1.
        -11    1    3    3    0    0 -0.16911540466E+02 -0.32293149653E+01 -0.45138378582E+01  0.17798972120E+02  0.51100000000E-03 0.  1.
         12    1    3    3    0    0  0.22322935580E+02  0.90676758144E+01 -0.25400816247E+02  0.35010536465E+02  0.00000000000E+00 0. -1.
</event>
<event>
 7    1  0.3509180E-013  0.7246156E+02  0.7816164E-02  0.1226708E+00
        -11   -1    0    0    0    0  0.00000000000E+00  0.00000000000E+00  0.45593999997E+02  0.45594000000E+02  0.51100000000E-03 0. -1.
         11   -1    0    0    0    0 -0.00000000000E+00 -0.00000000000E+00 -0.45593999997E+02  0.45594000000E+02  0.51100000000E-03 0.  1.
    9900012    2    1    2    0    0  0.62605645559E+01  0.17451187246E+02  0.26345440553E+01  0.72461563413E+02  0.69999991036E+02 0.  0.
        -12    1    1    2    0    0 -0.62605645559E+01 -0.17451187246E+02 -0.26345440553E+01  0.18726436587E+02  0.00000000000E+00 0.  1.
         11    1    3    3    0    0  0.59354365586E+01 -0.23080458013E+01  0.44182136629E+00  0.63837049543E+01  0.51100000000E-03 0. -1.
        -11    1    3    3    0    0 -0.16199832386E+02  0.21284049806E+01  0.26928538868E+02  0.31497791715E+02  0.51100000000E-03 0.  1.
        -12    1    3    3    0    0  0.16524960384E+02  0.17630828067E+02 -0.24735816179E+02  0.34580066744E+02  0.00000000000E+00 0.  1.
</event>
<event>
 7    1  0.3509180E-013  0.7246155E+02  0.7816164E-02  0.1226708E+00
        -11   -1    0    0    0    0  0.00000000000E+00  0.00000000000E+00  0.45593999997E+02  0.45594000000E+02  0.51100000000E-03 0. -1.
         11   -1    0    0    0    0 -0.00000000000E+00 -0.00000000000E+00 -0.45593999997E+02  0.45594000000E+02  0.51100000000E-03 0.  1.
    9900012    2    1    2    0    0 -0.14959648540E+02 -0.67426814726E+01 -0.90235899138E+01  0.72461547778E+02  0.69999970668E+02 0.  0.
        -12    1    1    2    0    0  0.14959648540E+02  0.67426814726E+01  0.90235899138E+01  0.18726452222E+02  0.00000000000E+00 0.  1.
         11    1    3    3    0    0  0.18670870507E+01 -0.43285374440E+01  0.23878369924E+01  0.52843179524E+01  0.51100000000E-03 0. -1.
        -11    1    3    3    0    0  0.21582884526E+02 -0.12600979621E+02 -0.11328162579E+02  0.27439622074E+02  0.51100000000E-03 0.  1.
         12    1    3    3    0    0 -0.38409620117E+02  0.10186835592E+02 -0.83264326733E-01  0.39737607752E+02  0.00000000000E+00 0. -1.
</event>
<event>
 7    1  0.3509180E-013  0.7246141E+02  0.7816164E-02  0.1226708E+00
        -11   -1    0    0    0    0  0.00000000000E+00  0.00000000000E+00  0.45593999997E+02  0.45594000000E+02  0.51100000000E-03 0.  1.
         11   -1    0    0    0    0 -0.00000000000E+00 -0.00000000000E+00 -0.45593999997E+02  0.45594000000E+02  0.51100000000E-03 0. -1.
    9900012    2    1    2    0    0  0.44338111286E+01 -0.12604396443E+01 -0.18150417225E+02  0.72461413695E+02  0.69999795999E+02 0.  0.
        -12    1    1    2    0    0 -0.44338111286E+01  0.12604396443E+01  0.18150417225E+02  0.18726586305E+02  0.00000000000E+00 0.  1.
         11    1    3    3    0    0  0.14985254263E+02  0.19556965937E+01 -0.14803797888E+02  0.21155023674E+02  0.51100000000E-03 0. -1.
        -11    1    3    3    0    0  0.58359318567E+01  0.14946405108E+02  0.14018711450E+02  0.21306745346E+02  0.51100000000E-03 0.  1.
         12    1    3    3    0    0 -0.16387374991E+02 -0.18162541346E+02 -0.17365330786E+02  0.29999644674E+02  0.00000000000E+00 0. -1.
</event>
<event>
 7    1  0.3509180E-013  0.7246156E+02  0.7816164E-02  0.1226708E+00
        -11   -1    0    0    0    0  0.00000000000E+00  0.00000000000E+00  0.45593999997E+02  0.45594000000E+02  0.51100000000E-03 0. -1.
         11   -1    0    0    0    0 -0.00000000000E+00 -0.00000000000E+00 -0.45593999997E+02  0.45594000000E+02  0.51100000000E-03 0.  1.
    9900012    2    1    2    0    0  0.34496842683E+01  0.18403869476E+02 -0.27693926834E+00  0.72461563377E+02  0.69999990989E+02 0.  0.
        -12    1    1    2    0    0 -0.34496842683E+01 -0.18403869476E+02  0.27693926834E+00  0.18726436623E+02  0.00000000000E+00 0.  1.
         11    1    3    3    0    0  0.15385039592E+02  0.31033439372E+02  0.25828729817E+01  0.34733917654E+02  0.51100000000E-03 0. -1.
        -11    1    3    3    0    0 -0.59938090859E+01  0.11384529667E+02 -0.47475333677E+00  0.12874729283E+02  0.51100000000E-03 0.  1.
         12    1    3    3    0    0 -0.59415462376E+01 -0.24014099564E+02 -0.23850589133E+01  0.24852916440E+02  0.00000000000E+00 0. -1.
</event>
<event>
 7    1  0.3509180E-013  0.7246158E+02  0.7816164E-02  0.1226708E+00
        -11   -1    0    0    0    0  0.00000000000E+00  0.00000000000E+00  0.45593999997E+02  0.45594000000E+02  0.51100000000E-03 0. -1.
         11   -1    0    0    0    0 -0.00000000000E+00 -0.00000000000E+00 -0.45593999997E+02  0.45594000000E+02  0.51100000000E-03 0.  1.
    9900012    2    1    2    0    0  0.63269187022E+00 -0.17672665323E+02  0.61608007884E+01  0.72461578425E+02  0.70000010592E+02 0.  0.
        -12    1    1    2    0    0 -0.63269187022E+00  0.17672665323E+02 -0.61608007884E+01  0.18726421575E+02  0.00000000000E+00 0.  1.
         11    1    3    3    0    0 -0.23558650035E+00  0.15541016193E+02 -0.15290629844E+02  0.21803257706E+02  0.51100000000E-03 0. -1.
        -11    1    3    3    0    0  0.91099042676E+01 -0.10601293073E+01 -0.27551562585E+01  0.95762788275E+01  0.51100000000E-03 0.  1.
         12    1    3    3    0    0 -0.82416258970E+01 -0.32153552209E+02  0.24206586891E+02  0.41082041892E+02  0.00000000000E+00 0. -1.
</event>
