<event>
 7    1  0.7755875E-012  0.5930199E+02  0.7816164E-02  0.1266605E+00
        -11   -1    0    0    0    0  0.00000000000E+00  0.00000000000E+00  0.45593999997E+02  0.45594000000E+02  0.51100000000E-03 0. -1.
         11   -1    0    0    0    0 -0.00000000000E+00 -0.00000000000E+00 -0.45593999997E+02  0.45594000000E+02  0.51100000000E-03 0.  1.
    9900012    2    1    2    0    0  0.17816390209E+02  0.42286418050E+01 -0.26103876065E+02  0.59301991827E+02  0.50000087175E+02 0.  0.
         12    1    1    2    0    0 -0.17816390209E+02 -0.42286418050E+01  0.26103876065E+02  0.31886008173E+02  0.00000000000E+00 0. -1.
         11    1    3    3    0    0 -0.29144925297E+01 -0.38937927952E+01  0.64526601373E+01  0.80803905937E+01  0.51100000000E-03 0. -1.
        -11    1    3    3    0    0  0.16416005972E+02  0.15364772923E+02 -0.35728126772E+02  0.42214458921E+02  0.51100000000E-03 0.  1.
        -12    1    3    3    0    0  0.43148767665E+01 -0.72423383231E+01  0.31715905702E+01  0.90071423127E+01  0.00000000000E+00 0.  1.
</event>
<event>
 7    1  0.7755875E-012  0.5930192E+02  0.7816164E-02  0.1266605E+00
        -11   -1    0    0    0    0  0.00000000000E+00  0.00000000000E+00  0.45593999997E+02  0.45594000000E+02  0.51100000000E-03 0.  1.
         11   -1    0    0    0    0 -0.00000000000E+00 -0.00000000000E+00 -0.45593999997E+02  0.45594000000E+02  0.51100000000E-03 0. -1.
    9900012    2    1    2    0    0  0.28327999210E+02  0.11559032798E+02  0.89797278795E+01  0.59301916966E+02  0.49999950646E+02 0.  0.
         12    1    1    2    0    0 -0.28327999210E+02 -0.11559032798E+02 -0.89797278795E+01  0.31886083034E+02  0.00000000000E+00 0. -1.
         11    1    3    3    0    0  0.52181824314E+01 -0.17868653824E+02 -0.10085557016E+01  0.18642301420E+02  0.51100000000E-03 0. -1.
        -11    1    3    3    0    0  0.89908370676E+01  0.32851380033E+01  0.10331285436E+01  0.96278054470E+01  0.51100000000E-03 0.  1.
         12    1    3    3    0    0  0.14118979711E+02  0.26142548618E+02  0.89551550375E+01  0.31031810100E+02  0.00000000000E+00 0. -1.
</event>
<event>
 7    1  0.8887907E-012  0.5930193E+02  0.7816164E-02  0.1266605E+00
        -11   -1    0    0    0    0  0.00000000000E+00  0.00000000000E+00  0.45593999997E+02  0.45594000000E+02  0.51100000000E-03 0. -1.
         11   -1    0    0    0    0 -0.00000000000E+00 -0.00000000000E+00 -0.45593999997E+02  0.45594000000E+02  0.51100000000E-03 0.  1.
    9900012    2    1    2    0    0  0.11952183532E+02  0.29302363042E+02 -0.39036499171E+01  0.59301926963E+02  0.49999968879E+02 0.  0.
         12    1    1    2    0    0 -0.11952183532E+02 -0.29302363042E+02  0.39036499171E+01  0.31886073037E+02  0.00000000000E+00 0. -1.
         11    1    3    3    0    0 -0.13157683142E+02  0.31959156876E+01  0.60944061857E+01  0.14848578712E+02  0.51100000000E-03 0. -1.
        -11    1    3    3    0    0  0.19127950418E+02  0.90614268622E+01  0.40748201145E+01  0.21554398697E+02  0.51100000000E-03 0.  1.
         12    1    3    3    0    0  0.59819162562E+01  0.17045020492E+02 -0.14072876217E+02  0.22898949555E+02  0.00000000000E+00 0. -1.
</event>
<event>
 7    1  0.7755875E-012  0.5930194E+02  0.7816164E-02  0.1266605E+00
        -11   -1    0    0    0    0  0.00000000000E+00  0.00000000000E+00  0.45593999997E+02  0.45594000000E+02  0.51100000000E-03 0. -1.
         11   -1    0    0    0    0 -0.00000000000E+00 -0.00000000000E+00 -0.45593999997E+02  0.45594000000E+02  0.51100000000E-03 0.  1.
    9900012    2    1    2    0    0  0.22840191593E+02 -0.13998703131E+02 -0.17294003560E+02  0.59301943479E+02  0.49999998998E+02 0.  0.
         12    1    1    2    0    0 -0.22840191593E+02  0.13998703131E+02  0.17294003560E+02  0.31886056521E+02  0.00000000000E+00 0. -1.
         11    1    3    3    0    0  0.54899131028E+01  0.96860051912E+01  0.10058849559E+02  0.15004609197E+02  0.51100000000E-03 0. -1.
        -11    1    3    3    0    0  0.46228847275E+01 -0.14450409394E+02 -0.23722501081E+02  0.28159233879E+02  0.51100000000E-03 0.  1.
         12    1    3    3    0    0  0.12727393763E+02 -0.92342989284E+01 -0.36303520373E+01  0.16138100403E+02  0.00000000000E+00 0. -1.
</event>
<event>
 7    1  0.7755875E-012  0.5930195E+02  0.7816164E-02  0.1266605E+00
        -11   -1    0    0    0    0  0.00000000000E+00  0.00000000000E+00  0.45593999997E+02  0.45594000000E+02  0.51100000000E-03 0. -1.
         11   -1    0    0    0    0 -0.00000000000E+00 -0.00000000000E+00 -0.45593999997E+02  0.45594000000E+02  0.51100000000E-03 0.  1.
    9900012    2    1    2    0    0 -0.25973953463E+02 -0.15276929348E+02  0.10425413241E+02  0.59301951797E+02  0.50000014169E+02 0.  0.
         12    1    1    2    0    0  0.25973953463E+02  0.15276929348E+02 -0.10425413241E+02  0.31886048203E+02  0.00000000000E+00 0. -1.
         11    1    3    3    0    0  0.79498004981E+01  0.48121606630E+01  0.68293520359E+01  0.11532400778E+02  0.51100000000E-03 0. -1.
        -11    1    3    3    0    0 -0.19946498999E+02 -0.45252125421E+01 -0.10054261652E+02  0.22790975155E+02  0.51100000000E-03 0.  1.
         12    1    3    3    0    0 -0.13977254962E+02 -0.15563877468E+02  0.13650322857E+02  0.24978575865E+02  0.00000000000E+00 0. -1.
</event>
<event>
 7    1  0.7755875E-012  0.5930198E+02  0.7816164E-02  0.1266605E+00
        -11   -1    0    0    0    0  0.00000000000E+00  0.00000000000E+00  0.45593999997E+02  0.45594000000E+02  0.51100000000E-03 0.  1.
         11   -1    0    0    0    0 -0.00000000000E+00 -0.00000000000E+00 -0.45593999997E+02  0.45594000000E+02  0.51100000000E-03 0. -1.
    9900012    2    1    2    0    0  0.20532425475E+02  0.10352480735E+02  0.22089903968E+02  0.59301980955E+02  0.50000067347E+02 0.  0.
         12    1    1    2    0    0 -0.20532425475E+02 -0.10352480735E+02 -0.22089903968E+02  0.31886019045E+02  0.00000000000E+00 0. -1.
         11    1    3    3    0    0  0.14570298024E+02 -0.92923553944E+01 -0.38012345533E+01  0.17694373051E+02  0.51100000000E-03 0. -1.
        -11    1    3    3    0    0  0.77007683435E+01  0.19072219594E+02  0.57133860735E+01  0.21346994496E+02  0.51100000000E-03 0.  1.
         12    1    3    3    0    0 -0.17386408930E+01  0.57261653535E+00  0.20177752447E+02  0.20260613408E+02  0.00000000000E+00 0. -1.
</event>
<event>
 7    1  0.7755875E-012  0.5930194E+02  0.7816164E-02  0.1266605E+00
        -11   -1    0    0    0    0  0.00000000000E+00  0.00000000000E+00  0.45593999997E+02  0.45594000000E+02  0.51100000000E-03 0.  1.
         11   -1    0    0    0    0 -0.00000000000E+00 -0.00000000000E+00 -0.45593999997E+02  0.45594000000E+02  0.51100000000E-03 0. -1.
    9900012    2    1    2    0    0 -0.98838883705E+01 -0.29059779561E+02  0.86347330701E+01  0.59301942661E+02  0.49999997507E+02 0.  0.
         12    1    1    2    0    0  0.98838883705E+01  0.29059779561E+02 -0.86347330701E+01  0.31886057339E+02  0.00000000000E+00 0. -1.
         11    1    3    3    0    0  0.95473594183E+01 -0.12574302099E+02 -0.12823772089E+02  0.20339967453E+02  0.51100000000E-03 0. -1.
        -11    1    3    3    0    0 -0.59925982661E+01 -0.13635709105E+02  0.20296795311E+02  0.25175458227E+02  0.51100000000E-03 0.  1.
        -12    1    3    3    0    0 -0.13438649523E+02 -0.28497683562E+01  0.11617098479E+01  0.13786516980E+02  0.00000000000E+00 0.  1.
</event>
<event>
 7    1  0.8139892E-012  0.5930202E+02  0.7816164E-02  0.1266605E+00
        -11   -1    0    0    0    0  0.00000000000E+00  0.00000000000E+00  0.45593999997E+02  0.45594000000E+02  0.51100000000E-03 0. -1.
         11   -1    0    0    0    0 -0.00000000000E+00 -0.00000000000E+00 -0.45593999997E+02  0.45594000000E+02  0.51100000000E-03 0.  1.
    9900012    2    1    2    0    0 -0.10419094861E+02  0.25154115284E+02 -0.16596049372E+02  0.59302017058E+02  0.50000133189E+02 0.  0.
         12    1    1    2    0    0  0.10419094861E+02 -0.25154115284E+02  0.16596049372E+02  0.31885982942E+02  0.00000000000E+00 0. -1.
         11    1    3    3    0    0  0.61174109645E+01 -0.34983964245E+01 -0.24277764737E+01  0.74535624583E+01  0.51100000000E-03 0. -1.
        -11    1    3    3    0    0 -0.52931369823E+01  0.31779407874E+02  0.15700729460E+01  0.32255436647E+02  0.51100000000E-03 0.  1.
        -12    1    3    3    0    0 -0.11243368843E+02 -0.31268961663E+01 -0.15738345844E+02  0.19593017953E+02  0.00000000000E+00 0.  1.
</event>
<event>
 7    1  0.7755875E-012  0.5930193E+02  0.7816164E-02  0.1266605E+00
        -11   -1    0    0    0    0  0.00000000000E+00  0.00000000000E+00  0.45593999997E+02  0.45594000000E+02  0.51100000000E-03 0.  1.
         11   -1    0    0    0    0 -0.00000000000E+00 -0.00000000000E+00 -0.45593999997E+02  0.45594000000E+02  0.51100000000E-03 0. -1.
    9900012    2    1    2    0    0  0.13479870207E+02 -0.26736352867E+02  0.10962745468E+02  0.59301933237E+02  0.49999980320E+02 0.  0.
         12    1    1    2    0    0 -0.13479870207E+02  0.26736352867E+02 -0.10962745468E+02  0.31886066763E+02  0.00000000000E+00 0. -1.
         11    1    3    3    0    0 -0.77413638911E+00  0.24401329782E+00 -0.68625602989E+01  0.69103953401E+01  0.51100000000E-03 0. -1.
        -11    1    3    3    0    0  0.77154377731E+01 -0.36663079309E+02  0.15097924419E+02  0.40393770392E+02  0.51100000000E-03 0.  1.
        -12    1    3    3    0    0  0.65385688233E+01  0.96827131444E+01  0.27273813475E+01  0.11997767505E+02  0.00000000000E+00 0.  1.
</event>
<event>
 7    1  0.7755875E-012  0.5930193E+02  0.7816164E-02  0.1266605E+00
        -11   -1    0    0    0    0  0.00000000000E+00  0.00000000000E+00  0.45593999997E+02  0.45594000000E+02  0.51100000000E-03 0.  1.
         11   -1    0    0    0    0 -0.00000000000E+00 -0.00000000000E+00 -0.45593999997E+02  0.45594000000E+02  0.51100000000E-03 0. -1.
    9900012    2    1    2    0    0  0.20736906491E+01  0.30240126078E+02 -0.98972683694E+01  0.59301931893E+02  0.49999977869E+02 0.  0.
         12    1    1    2    0    0 -0.20736906491E+01 -0.30240126078E+02  0.98972683694E+01  0.31886068107E+02  0.00000000000E+00 0. -1.
         11    1    3    3    0    0  0.70467575041E+01  0.28522765886E+01 -0.71214731657E+01  0.10416700695E+02  0.51100000000E-03 0. -1.
        -11    1    3    3    0    0 -0.21879385405E+02  0.20735991404E+02 -0.50879638664E+01  0.30570839402E+02  0.51100000000E-03 0.  1.
        -12    1    3    3    0    0  0.16906318550E+02  0.66518580862E+01  0.23121686627E+01  0.18314391796E+02  0.00000000000E+00 0.  1.
</event>
<event>
 7    1  0.7755875E-012  0.5930195E+02  0.7816164E-02  0.1266605E+00
        -11   -1    0    0    0    0  0.00000000000E+00  0.00000000000E+00  0.45593999997E+02  0.45594000000E+02  0.51100000000E-03 0. -1.
         11   -1    0    0    0    0 -0.00000000000E+00 -0.00000000000E+00 -0.45593999997E+02  0.45594000000E+02  0.51100000000E-03 0.  1.
    9900012    2    1    2    0    0 -0.94497659394E+01  0.11458365517E+02 -0.28215739727E+02  0.59301949994E+02  0.50000010881E+02 0.  0.
         12    1    1    2    0    0  0.94497659394E+01 -0.11458365517E+02  0.28215739727E+02  0.31886050006E+02  0.00000000000E+00 0. -1.
         11    1    3    3    0    0  0.13000112467E+02 -0.18317949814E+01  0.15467379886E+01  0.13219334162E+02  0.51100000000E-03 0. -1.
        -11    1    3    3    0    0 -0.11483064419E+02  0.18859812255E+02 -0.23621931808E+02  0.32334949348E+02  0.51100000000E-03 0.  1.
        -12    1    3    3    0    0 -0.10966813987E+02 -0.55696517565E+01 -0.61405459078E+01  0.13747666484E+02  0.00000000000E+00 0.  1.
</event>
<event>
 7    1  0.7755875E-012  0.5930193E+02  0.7816164E-02  0.1266605E+00
        -11   -1    0    0    0    0  0.00000000000E+00  0.00000000000E+00  0.45593999997E+02  0.45594000000E+02  0.51100000000E-03 0. -1.
         11   -1    0    0    0    0 -0.00000000000E+00 -0.00000000000E+00 -0.45593999997E+02  0.45594000000E+02  0.51100000000E-03 0.  1.
    9900012    2    1    2    0    0  0.19261570395E+02  0.25391383951E+02 -0.99535927115E+00  0.59301933872E+02  0.49999981478E+02 0.  0.
         12    1    1    2    0    0 -0.19261570395E+02 -0.25391383951E+02  0.99535927115E+00  0.31886066128E+02  0.00000000000E+00 0. -1.
         11    1    3    3    0    0  0.13013966656E+02  0.19879029623E+01 -0.19716577938E+02  0.23707773665E+02  0.51100000000E-03 0. -1.
        -11    1    3    3    0    0  0.11695914847E+02  0.11225064095E+02  0.63843929268E+01  0.17422886137E+02  0.51100000000E-03 0.  1.
         12    1    3    3    0    0 -0.54483111075E+01  0.12178416894E+02  0.12336825740E+02  0.18171274070E+02  0.00000000000E+00 0. -1.
</event>
<event>
 7    1  0.7755875E-012  0.5930193E+02  0.7816164E-02  0.1266605E+00
        -11   -1    0    0    0    0  0.00000000000E+00  0.00000000000E+00  0.45593999997E+02  0.45594000000E+02  0.51100000000E-03 0. -1.
         11   -1    0    0    0    0 -0.00000000000E+00 -0.00000000000E+00 -0.45593999997E+02  0.45594000000E+02  0.51100000000E-03 0.  1.
    9900012    2    1    2    0    0  0.47547475945E+01  0.67387076145E+01 -0.30801029586E+02  0.59301933629E+02  0.49999981036E+02 0.  0.
         12    1    1    2    0    0 -0.47547475945E+01 -0.67387076145E+01  0.30801029586E+02  0.31886066371E+02  0.00000000000E+00 0. -1.
         11    1    3    3    0    0  0.43315433197E+01 -0.43531530503E+01  0.88651975032E+01  0.10784430260E+02  0.51100000000E-03 0. -1.
        -11    1    3    3    0    0  0.23851952215E-01  0.58834439906E+01 -0.42272325024E+02  0.42679795516E+02  0.51100000000E-03 0.  1.
        -12    1    3    3    0    0  0.39935232258E+00  0.52084166742E+01  0.26060979345E+01  0.58377078527E+01  0.00000000000E+00 0.  1.
</event>
<event>
 7    1  0.7755875E-012  0.5930194E+02  0.7816164E-02  0.1266605E+00
        -11   -1    0    0    0    0  0.00000000000E+00  0.00000000000E+00  0.45593999997E+02  0.45594000000E+02  0.51100000000E-03 0.  1.
         11   -1    0    0    0    0 -0.00000000000E+00 -0.00000000000E+00 -0.45593999997E+02  0.45594000000E+02  0.51100000000E-03 0. -1.
    9900012    2    1    2    0    0 -0.13251931702E+02 -0.20222804794E+02  0.20788111530E+02  0.59301935512E+02  0.49999984469E+02 0.  0.
         12    1    1    2    0    0  0.13251931702E+02  0.20222804794E+02 -0.20788111530E+02  0.31886064488E+02  0.00000000000E+00 0. -1.
         11    1    3    3    0    0 -0.29330091437E+02 -0.15962431782E+02  0.26829524477E+01  0.33500025764E+02  0.51100000000E-03 0. -1.
        -11    1    3    3    0    0  0.65047216199E+01 -0.50550057817E+01  0.11490528817E+02  0.14138484344E+02  0.51100000000E-03 0.  1.
         12    1    3    3    0    0  0.95734381154E+01  0.79463277003E+00  0.66146302659E+01  0.11663425404E+02  0.00000000000E+00 0. -1.
</event>
<event>
 7    1  0.7755875E-012  0.5930194E+02  0.7816164E-02  0.1266605E+00
        -11   -1    0    0    0    0  0.00000000000E+00  0.00000000000E+00  0.45593999997E+02  0.45594000000E+02  0.51100000000E-03 0.  1.
         11   -1    0    0    0    0 -0.00000000000E+00 -0.00000000000E+00 -0.45593999997E+02  0.45594000000E+02  0.51100000000E-03 0. -1.
    9900012    2    1    2    0    0 -0.27135016448E+02 -0.23701696228E+01  0.16576914212E+02  0.59301938681E+02  0.49999990249E+02 0.  0.
         12    1    1    2    0    0  0.27135016448E+02  0.23701696228E+01 -0.16576914212E+02  0.31886061319E+02  0.00000000000E+00 0. -1.
         11    1    3    3    0    0 -0.87064009922E+01  0.25028852071E+00 -0.15243121739E+02  0.17556105012E+02  0.51100000000E-03 0. -1.
        -11    1    3    3    0    0 -0.68469202166E+01 -0.96258116946E+01  0.77404793418E+01  0.14122733019E+02  0.51100000000E-03 0.  1.
         12    1    3    3    0    0 -0.11581695239E+02  0.70053535511E+01  0.24079556609E+02  0.27623100649E+02  0.00000000000E+00 0. -1.
</event>
<event>
 7    1  0.7755875E-012  0.5930194E+02  0.7816164E-02  0.1266605E+00
        -11   -1    0    0    0    0  0.00000000000E+00  0.00000000000E+00  0.45593999997E+02  0.45594000000E+02  0.51100000000E-03 0.  1.
         11   -1    0    0    0    0 -0.00000000000E+00 -0.00000000000E+00 -0.45593999997E+02  0.45594000000E+02  0.51100000000E-03 0. -1.
    9900012    2    1    2    0    0 -0.31011354770E+02 -0.74049182038E+01  0.42849566667E+00  0.59301944320E+02  0.50000000533E+02 0.  0.
         12    1    1    2    0    0  0.31011354770E+02  0.74049182038E+01 -0.42849566667E+00  0.31886055680E+02  0.00000000000E+00 0. -1.
         11    1    3    3    0    0  0.67676293309E+01  0.47396112141E+01 -0.72549158845E+01  0.10995386577E+02  0.51100000000E-03 0. -1.
        -11    1    3    3    0    0 -0.29150588974E+02 -0.76458094480E+01  0.17196891238E+02  0.34697958271E+02  0.51100000000E-03 0.  1.
         12    1    3    3    0    0 -0.86283951277E+01 -0.44987199699E+01 -0.95134796870E+01  0.13608599472E+02  0.00000000000E+00 0. -1.
</event>
<event>
 7    1  0.7755875E-012  0.5930193E+02  0.7816164E-02  0.1266605E+00
        -11   -1    0    0    0    0  0.00000000000E+00  0.00000000000E+00  0.45593999997E+02  0.45594000000E+02  0.51100000000E-03 0.  1.
         11   -1    0    0    0    0 -0.00000000000E+00 -0.00000000000E+00 -0.45593999997E+02  0.45594000000E+02  0.51100000000E-03 0. -1.
    9900012    2    1    2    0    0  0.12792555077E+02  0.19797895631E+02  0.21473591081E+02  0.59301933283E+02  0.49999980403E+02 0.  0.
         12    1    1    2    0    0 -0.12792555077E+02 -0.19797895631E+02 -0.21473591081E+02  0.31886066717E+02  0.00000000000E+00 0. -1.
         11    1    3    3    0    0  0.12697254801E+02 -0.27271321567E+01  0.37170573818E+01  0.13508295419E+02  0.51100000000E-03 0. -1.
        -11    1    3    3    0    0 -0.22802330192E+00  0.16162762979E+02 -0.88545342412E+01  0.18430672224E+02  0.51100000000E-03 0.  1.
        -12    1    3    3    0    0  0.32332357726E+00  0.63622648077E+01  0.26611067940E+02  0.27362965639E+02  0.00000000000E+00 0.  1.
</event>
<event>
 7    1  0.7755875E-012  0.5930195E+02  0.7816164E-02  0.1266605E+00
        -11   -1    0    0    0    0  0.00000000000E+00  0.00000000000E+00  0.45593999997E+02  0.45594000000E+02  0.51100000000E-03 0.  1.
         11   -1    0    0    0    0 -0.00000000000E+00 -0.00000000000E+00 -0.45593999997E+02  0.45594000000E+02  0.51100000000E-03 0. -1.
    9900012    2    1    2    0    0  0.16991942537E+02  0.24694567119E+02  0.10870706214E+02  0.59301952738E+02  0.50000015886E+02 0.  0.
         12    1    1    2    0    0 -0.16991942537E+02 -0.24694567119E+02 -0.10870706214E+02  0.31886047262E+02  0.00000000000E+00 0. -1.
         11    1    3    3    0    0  0.10011879877E+02 -0.12975715764E+02  0.34486377974E+01  0.16748135454E+02  0.51100000000E-03 0. -1.
        -11    1    3    3    0    0 -0.19976572386E+01  0.30008962828E+02  0.59741656929E+01  0.30662993012E+02  0.51100000000E-03 0.  1.
        -12    1    3    3    0    0  0.89777198993E+01  0.76613200552E+01  0.14479027240E+01  0.11890824272E+02  0.00000000000E+00 0.  1.
</event>
<event>
 7    1  0.7755875E-012  0.5930193E+02  0.7816164E-02  0.1266605E+00
        -11   -1    0    0    0    0  0.00000000000E+00  0.00000000000E+00  0.45593999997E+02  0.45594000000E+02  0.51100000000E-03 0. -1.
         11   -1    0    0    0    0 -0.00000000000E+00 -0.00000000000E+00 -0.45593999997E+02  0.45594000000E+02  0.51100000000E-03 0.  1.
    9900012    2    1    2    0    0  0.26356637706E+02 -0.13406859110E+02 -0.11929182053E+02  0.59301927698E+02  0.49999970219E+02 0.  0.
         12    1    1    2    0    0 -0.26356637706E+02  0.13406859110E+02  0.11929182053E+02  0.31886072302E+02  0.00000000000E+00 0. -1.
         11    1    3    3    0    0 -0.87615727635E+01  0.10152989427E+02 -0.73667013566E+00  0.13430972964E+02  0.51100000000E-03 0. -1.
        -11    1    3    3    0    0  0.11711813340E+02 -0.19979342862E+01 -0.69521494595E+01  0.13765561939E+02  0.51100000000E-03 0.  1.
         12    1    3    3    0    0  0.23406397130E+02 -0.21561914251E+02 -0.42403624578E+01  0.32105392795E+02  0.00000000000E+00 0. -1.
</event>
<event>
 7    1  0.7755875E-012  0.5930194E+02  0.7816164E-02  0.1266605E+00
        -11   -1    0    0    0    0  0.00000000000E+00  0.00000000000E+00  0.45593999997E+02  0.45594000000E+02  0.51100000000E-03 0. -1.
         11   -1    0    0    0    0 -0.00000000000E+00 -0.00000000000E+00 -0.45593999997E+02  0.45594000000E+02  0.51100000000E-03 0.  1.
    9900012    2    1    2    0    0  0.30690895794E+02  0.65364044254E+01 -0.56626120573E+01  0.59301939679E+02  0.49999992070E+02 0.  0.
         12    1    1    2    0    0 -0.30690895794E+02 -0.65364044254E+01  0.56626120573E+01  0.31886060321E+02  0.00000000000E+00 0. -1.
         11    1    3    3    0    0 -0.67285484893E+01  0.44587680693E+01  0.62020373603E+01  0.10179353867E+02  0.51100000000E-03 0. -1.
        -11    1    3    3    0    0  0.36004627747E+02  0.76080416927E+01 -0.95775869472E+00  0.36812128702E+02  0.51100000000E-03 0.  1.
         12    1    3    3    0    0  0.14148165359E+01 -0.55304053366E+01 -0.10906890723E+02  0.12310457110E+02  0.00000000000E+00 0. -1.
</event>
<event>
 7    1  0.7755875E-012  0.5930196E+02  0.7816164E-02  0.1266605E+00
        -11   -1    0    0    0    0  0.00000000000E+00  0.00000000000E+00  0.45593999997E+02  0.45594000000E+02  0.51100000000E-03 0. -1.
         11   -1    0    0    0    0 -0.00000000000E+00 -0.00000000000E+00 -0.45593999997E+02  0.45594000000E+02  0.51100000000E-03 0.  1.
    9900012    2    1    2    0    0  0.91112914238E+00  0.24981791047E+02 -0.19793932235E+02  0.59301956132E+02  0.50000022075E+02 0.  0.
         12    1    1    2    0    0 -0.91112914238E+00 -0.24981791047E+02  0.19793932235E+02  0.31886043868E+02  0.00000000000E+00 0. -1.
         11    1    3    3    0    0 -0.44676449256E+00  0.18483068892E+02  0.75704566612E+01  0.19978369515E+02  0.51100000000E-03 0. -1.
        -11    1    3    3    0    0  0.83275953123E+01  0.15044168773E+02 -0.17355890402E+02  0.24431594088E+02  0.51100000000E-03 0.  1.
         12    1    3    3    0    0 -0.69697016773E+01 -0.85454466182E+01 -0.10008498494E+02  0.14891992529E+02  0.00000000000E+00 0. -1.
</event>
<event>
 7    1  0.7755875E-012  0.5930195E+02  0.7816164E-02  0.1266605E+00
        -11   -1    0    0    0    0  0.00000000000E+00  0.00000000000E+00  0.45593999997E+02  0.45594000000E+02  0.51100000000E-03 0.  1.
         11   -1    0    0    0    0 -0.00000000000E+00 -0.00000000000E+00 -0.45593999997E+02  0.45594000000E+02  0.51100000000E-03 0. -1.
    9900012    2    1    2    0    0  0.19226086926E+02 -0.19893317611E+02  0.15853510743E+02  0.59301948081E+02  0.50000007393E+02 0.  0.
         12    1    1    2    0    0 -0.19226086926E+02  0.19893317611E+02 -0.15853510743E+02  0.31886051919E+02  0.00000000000E+00 0. -1.
         11    1    3    3    0    0 -0.35219911885E+01  0.10960923844E+02  0.96269674793E+01  0.15007490682E+02  0.51100000000E-03 0. -1.
        -11    1    3    3    0    0  0.18466045665E+02 -0.17496583072E+02  0.13166825569E+02  0.28644206352E+02  0.51100000000E-03 0.  1.
         12    1    3    3    0    0  0.42820324496E+01 -0.13357658383E+02 -0.69402823053E+01  0.15650251048E+02  0.00000000000E+00 0. -1.
</event>
<event>
 7    1  0.7755875E-012  0.5930196E+02  0.7816164E-02  0.1266605E+00
        -11   -1    0    0    0    0  0.00000000000E+00  0.00000000000E+00  0.45593999997E+02  0.45594000000E+02  0.51100000000E-03 0.  1.
         11   -1    0    0    0    0 -0.00000000000E+00 -0.00000000000E+00 -0.45593999997E+02  0.45594000000E+02  0.51100000000E-03 0. -1.
    9900012    2    1    2    0    0  0.15464233726E+02 -0.12399741225E+02  0.24976457757E+02  0.59301959962E+02  0.50000029061E+02 0.  0.
         12    1    1    2    0    0 -0.15464233726E+02  0.12399741225E+02 -0.24976457757E+02  0.31886040038E+02  0.00000000000E+00 0. -1.
         11    1    3    3    0    0  0.30507523193E+01  0.45243664863E+01  0.29808743835E+02  0.30304095286E+02  0.51100000000E-03 0. -1.
        -11    1    3    3    0    0  0.14282409929E+02 -0.11247708034E+02  0.37279847817E+01  0.18557910448E+02  0.51100000000E-03 0.  1.
         12    1    3    3    0    0 -0.18689285216E+01 -0.56763996770E+01 -0.85602708593E+01  0.10439954229E+02  0.00000000000E+00 0. -1.
</event>
<event>
 7    1  0.7755875E-012  0.5930194E+02  0.7816164E-02  0.1266605E+00
        -11   -1    0    0    0    0  0.00000000000E+00  0.00000000000E+00  0.45593999997E+02  0.45594000000E+02  0.51100000000E-03 0. -1.
         11   -1    0    0    0    0 -0.00000000000E+00 -0.00000000000E+00 -0.45593999997E+02  0.45594000000E+02  0.51100000000E-03 0.  1.
    9900012    2    1    2    0    0  0.14146350745E+01  0.31652332027E+02 -0.35846083364E+01  0.59301941415E+02  0.49999995235E+02 0.  0.
         12    1    1    2    0    0 -0.14146350745E+01 -0.31652332027E+02  0.35846083364E+01  0.31886058585E+02  0.00000000000E+00 0. -1.
         11    1    3    3    0    0  0.13952999064E+02  0.22322963380E+02 -0.31235386974E+01  0.26509571313E+02  0.51100000000E-03 0. -1.
        -11    1    3    3    0    0 -0.11069470111E+02 -0.81480517378E+01  0.46725691968E+01  0.14517465992E+02  0.51100000000E-03 0.  1.
        -12    1    3    3    0    0 -0.14688938780E+01  0.17477420385E+02 -0.51336388359E+01  0.18274904110E+02  0.00000000000E+00 0.  1.
</event>
<event>
 7    1  0.7755875E-012  0.5930186E+02  0.7816164E-02  0.1266605E+00
        -11   -1    0    0    0    0  0.00000000000E+00  0.00000000000E+00  0.45593999997E+02  0.45594000000E+02  0.51100000000E-03 0.  1.
         11   -1    0    0    0    0 -0.00000000000E+00 -0.00000000000E+00 -0.45593999997E+02  0.45594000000E+02  0.51100000000E-03 0. -1.
    9900012    2    1    2    0    0  0.14561686825E+02 -0.20672415366E+02  0.19425090570E+02  0.59301864707E+02  0.49999855338E+02 0.  0.
         12    1    1    2    0    0 -0.14561686825E+02  0.20672415366E+02 -0.19425090570E+02  0.31886135293E+02  0.00000000000E+00 0. -1.
         11    1    3    3    0    0  0.13774373915E+02 -0.25737596955E+02  0.13189612862E+02  0.32033157221E+02  0.51100000000E-03 0. -1.
        -11    1    3    3    0    0  0.57745232447E+01  0.14628727349E+02  0.43671407277E+01  0.16322276219E+02  0.51100000000E-03 0.  1.
         12    1    3    3    0    0 -0.49872103349E+01 -0.95635457601E+01  0.18683369800E+01  0.10946431268E+02  0.00000000000E+00 0. -1.
</event>
<event>
 7    1  0.7755875E-012  0.5930196E+02  0.7816164E-02  0.1266605E+00
        -11   -1    0    0    0    0  0.00000000000E+00  0.00000000000E+00  0.45593999997E+02  0.45594000000E+02  0.51100000000E-03 0. -1.
         11   -1    0    0    0    0 -0.00000000000E+00 -0.00000000000E+00 -0.45593999997E+02  0.45594000000E+02  0.51100000000E-03 0.  1.
    9900012    2    1    2    0    0  0.69461649918E+01  0.21319734725E+02 -0.22670228025E+02  0.59301960178E+02  0.50000029455E+02 0.  0.
         12    1    1    2    0    0 -0.69461649918E+01 -0.21319734725E+02  0.22670228025E+02  0.31886039822E+02  0.00000000000E+00 0. -1.
         11    1    3    3    0    0 -0.75242745592E+01  0.14866806713E+02  0.97128174683E+01  0.19286665677E+02  0.51100000000E-03 0. -1.
        -11    1    3    3    0    0  0.40105805627E+01  0.26376288582E+01 -0.27399667048E+02  0.27816965992E+02  0.51100000000E-03 0.  1.
        -12    1    3    3    0    0  0.10459858988E+02  0.38152991533E+01 -0.49833784456E+01  0.12198328509E+02  0.00000000000E+00 0.  1.
</event>
<event>
 7    1  0.7755875E-012  0.5930195E+02  0.7816164E-02  0.1266605E+00
        -11   -1    0    0    0    0  0.00000000000E+00  0.00000000000E+00  0.45593999997E+02  0.45594000000E+02  0.51100000000E-03 0.  1.
         11   -1    0    0    0    0 -0.00000000000E+00 -0.00000000000E+00 -0.45593999997E+02  0.45594000000E+02  0.51100000000E-03 0. -1.
    9900012    2    1    2    0    0  0.27691719276E+02  0.32791026042E+01  0.15464026720E+02  0.59301953636E+02  0.50000017522E+02 0.  0.
         12    1    1    2    0    0 -0.27691719276E+02 -0.32791026042E+01 -0.15464026720E+02  0.31886046364E+02  0.00000000000E+00 0. -1.
         11    1    3    3    0    0 -0.20303843345E+01  0.50300549563E+01  0.11807273212E+02  0.12993675938E+02  0.51100000000E-03 0. -1.
        -11    1    3    3    0    0  0.26456638044E+02  0.36871742929E+01 -0.12098199439E+02  0.29324313816E+02  0.51100000000E-03 0.  1.
        -12    1    3    3    0    0  0.32654655665E+01 -0.54381266450E+01  0.15754952947E+02  0.16983963881E+02  0.00000000000E+00 0.  1.
</event>
<event>
 7    1  0.7755875E-012  0.5930194E+02  0.7816164E-02  0.1266605E+00
        -11   -1    0    0    0    0  0.00000000000E+00  0.00000000000E+00  0.45593999997E+02  0.45594000000E+02  0.51100000000E-03 0.  1.
         11   -1    0    0    0    0 -0.00000000000E+00 -0.00000000000E+00 -0.45593999997E+02  0.45594000000E+02  0.51100000000E-03 0. -1.
    9900012    2    1    2    0    0 -0.11985185929E+02 -0.21083115652E+02  0.20702134636E+02  0.59301939945E+02  0.49999992555E+02 0.  0.
         12    1    1    2    0    0  0.11985185929E+02  0.21083115652E+02 -0.20702134636E+02  0.31886060055E+02  0.00000000000E+00 0. -1.
         11    1    3    3    0    0  0.62039641351E+01 -0.10987870271E+02 -0.25286688054E+01  0.12869212496E+02  0.51100000000E-03 0. -1.
        -11    1    3    3    0    0 -0.27081137116E+02 -0.13767935406E+02  0.15587466048E+02  0.34145470137E+02  0.51100000000E-03 0.  1.
        -12    1    3    3    0    0  0.88919870520E+01  0.36726900246E+01  0.76433373934E+01  0.12287257312E+02  0.00000000000E+00 0.  1.
</event>
<event>
 7    1  0.7755875E-012  0.5930194E+02  0.7816164E-02  0.1266605E+00
        -11   -1    0    0    0    0  0.00000000000E+00  0.00000000000E+00  0.45593999997E+02  0.45594000000E+02  0.51100000000E-03 0. -1.
         11   -1    0    0    0    0 -0.00000000000E+00 -0.00000000000E+00 -0.45593999997E+02  0.45594000000E+02  0.51100000000E-03 0.  1.
    9900012    2    1    2    0    0  0.24037482637E+01  0.31674178853E+02  0.27729073520E+01  0.59301943064E+02  0.49999998242E+02 0.  0.
         12    1    1    2    0    0 -0.24037482637E+01 -0.31674178853E+02 -0.27729073520E+01  0.31886056936E+02  0.00000000000E+00 0. -1.
         11    1    3    3    0    0 -0.10891969733E+02  0.22750078013E+02 -0.38876709132E+01  0.25520874586E+02  0.51100000000E-03 0.  1.
        -11    1    3    3    0    0  0.53191776897E+01  0.42889642475E+01  0.17947109784E+02  0.19203843768E+02  0.51100000000E-03 0. -1.
         12    1    3    3    0    0  0.79765403071E+01  0.46351365928E+01 -0.11286531519E+02  0.14577224709E+02  0.00000000000E+00 0. -1.
</event>
<event>
 7    1  0.7755875E-012  0.5930190E+02  0.7816164E-02  0.1266605E+00
        -11   -1    0    0    0    0  0.00000000000E+00  0.00000000000E+00  0.45593999997E+02  0.45594000000E+02  0.51100000000E-03 0. -1.
         11   -1    0    0    0    0 -0.00000000000E+00 -0.00000000000E+00 -0.45593999997E+02  0.45594000000E+02  0.51100000000E-03 0.  1.
    9900012    2    1    2    0    0 -0.13215439203E+02 -0.60923786938E+01 -0.28371788118E+02  0.59301901579E+02  0.49999922584E+02 0.  0.
         12    1    1    2    0    0  0.13215439203E+02  0.60923786938E+01  0.28371788118E+02  0.31886098421E+02  0.00000000000E+00 0. -1.
         11    1    3    3    0    0 -0.94536541018E+01 -0.86347929620E+01 -0.61165670695E+01  0.14189560189E+02  0.51100000000E-03 0. -1.
        -11    1    3    3    0    0  0.37757017223E+01 -0.36851109864E+00  0.10610320615E+02  0.11268124411E+02  0.51100000000E-03 0.  1.
        -12    1    3    3    0    0 -0.75374868239E+01  0.29109253668E+01 -0.32865541664E+02  0.33844216980E+02  0.00000000000E+00 0.  1.
</event>
<event>
 7    1  0.7755875E-012  0.5930195E+02  0.7816164E-02  0.1266605E+00
        -11   -1    0    0    0    0  0.00000000000E+00  0.00000000000E+00  0.45593999997E+02  0.45594000000E+02  0.51100000000E-03 0. -1.
         11   -1    0    0    0    0 -0.00000000000E+00 -0.00000000000E+00 -0.45593999997E+02  0.45594000000E+02  0.51100000000E-03 0.  1.
    9900012    2    1    2    0    0 -0.31552570912E+02 -0.20869042949E+01  0.40988277250E+01  0.59301948357E+02  0.50000007895E+02 0.  0.
         12    1    1    2    0    0  0.31552570912E+02  0.20869042949E+01 -0.40988277250E+01  0.31886051643E+02  0.00000000000E+00 0. -1.
         11    1    3    3    0    0  0.45605494750E+01 -0.47871674229E+01  0.11341444127E+02  0.13127983036E+02  0.51100000000E-03 0. -1.
        -11    1    3    3    0    0 -0.26404220504E+02  0.14271296930E+02 -0.16239696802E+01  0.30058111289E+02  0.51100000000E-03 0.  1.
        -12    1    3    3    0    0 -0.97088998824E+01 -0.11571033802E+02 -0.56186467216E+01  0.16115854031E+02  0.00000000000E+00 0.  1.
</event>
<event>
 7    1  0.7755875E-012  0.5930196E+02  0.7816164E-02  0.1266605E+00
        -11   -1    0    0    0    0  0.00000000000E+00  0.00000000000E+00  0.45593999997E+02  0.45594000000E+02  0.51100000000E-03 0.  1.
         11   -1    0    0    0    0 -0.00000000000E+00 -0.00000000000E+00 -0.45593999997E+02  0.45594000000E+02  0.51100000000E-03 0. -1.
    9900012    2    1    2    0    0  0.24590660579E+02  0.19881941381E+02  0.40898794766E+01  0.59301963951E+02  0.50000036335E+02 0.  0.
         12    1    1    2    0    0 -0.24590660579E+02 -0.19881941381E+02 -0.40898794766E+01  0.31886036049E+02  0.00000000000E+00 0. -1.
         11    1    3    3    0    0  0.66643395701E+01 -0.15016171954E+02 -0.59065325258E+00  0.16439212682E+02  0.51100000000E-03 0. -1.
        -11    1    3    3    0    0 -0.57252546785E+00  0.11040047611E+02  0.61255498894E+01  0.12638544156E+02  0.51100000000E-03 0.  1.
         12    1    3    3    0    0  0.18498846476E+02  0.23858065724E+02 -0.14450171602E+01  0.30224207114E+02  0.00000000000E+00 0. -1.
</event>
<event>
 7    1  0.7755875E-012  0.5930194E+02  0.7816164E-02  0.1266605E+00
        -11   -1    0    0    0    0  0.00000000000E+00  0.00000000000E+00  0.45593999997E+02  0.45594000000E+02  0.51100000000E-03 0. -1.
         11   -1    0    0    0    0 -0.00000000000E+00 -0.00000000000E+00 -0.45593999997E+02  0.45594000000E+02  0.51100000000E-03 0.  1.
    9900012    2    1    2    0    0 -0.11234391773E+02 -0.80619359886E+01 -0.28731764977E+02  0.59301942090E+02  0.49999996465E+02 0.  0.
         12    1    1    2    0    0  0.11234391773E+02  0.80619359886E+01  0.28731764977E+02  0.31886057910E+02  0.00000000000E+00 0. -1.
         11    1    3    3    0    0 -0.21206829556E+02 -0.10434906121E+02 -0.73562268687E+01  0.24753402990E+02  0.51100000000E-03 0. -1.
        -11    1    3    3    0    0 -0.24687798609E+01  0.42899721074E+01 -0.21395420604E+02  0.21960481729E+02  0.51100000000E-03 0.  1.
         12    1    3    3    0    0  0.12441217644E+02 -0.19170019747E+01  0.19882496334E-01  0.12588057370E+02  0.00000000000E+00 0. -1.
</event>
<event>
 7    1  0.7755875E-012  0.5930195E+02  0.7816164E-02  0.1266605E+00
        -11   -1    0    0    0    0  0.00000000000E+00  0.00000000000E+00  0.45593999997E+02  0.45594000000E+02  0.51100000000E-03 0.  1.
         11   -1    0    0    0    0 -0.00000000000E+00 -0.00000000000E+00 -0.45593999997E+02  0.45594000000E+02  0.51100000000E-03 0. -1.
    9900012    2    1    2    0    0 -0.89882178592E+01  0.81353360154E+01  0.29491501398E+02  0.59301946512E+02  0.50000004530E+02 0.  0.
         12    1    1    2    0    0  0.89882178592E+01 -0.81353360154E+01 -0.29491501398E+02  0.31886053488E+02  0.00000000000E+00 0. -1.
         11    1    3    3    0    0  0.10723353698E+02  0.15293161444E+01 -0.42002527183E+01  0.11617712579E+02  0.51100000000E-03 0. -1.
        -11    1    3    3    0    0 -0.15760211900E+02 -0.79876468762E+01  0.12463890180E+02  0.21622565537E+02  0.51100000000E-03 0.  1.
        -12    1    3    3    0    0 -0.39513596577E+01  0.14593666747E+02  0.21227863936E+02  0.26061668396E+02  0.00000000000E+00 0.  1.
</event>
<event>
 7    1  0.7755875E-012  0.5930200E+02  0.7816164E-02  0.1266605E+00
        -11   -1    0    0    0    0  0.00000000000E+00  0.00000000000E+00  0.45593999997E+02  0.45594000000E+02  0.51100000000E-03 0.  1.
         11   -1    0    0    0    0 -0.00000000000E+00 -0.00000000000E+00 -0.45593999997E+02  0.45594000000E+02  0.51100000000E-03 0. -1.
    9900012    2    1    2    0    0  0.31286521428E+02  0.27145033977E+01 -0.55228421653E+01  0.59302004056E+02  0.50000109478E+02 0.  0.
         12    1    1    2    0    0 -0.31286521428E+02 -0.27145033977E+01  0.55228421653E+01  0.31885995944E+02  0.00000000000E+00 0. -1.
         11    1    3    3    0    0  0.94345857422E+01  0.15764547936E+01 -0.13348327499E+02  0.16421768027E+02  0.51100000000E-03 0. -1.
        -11    1    3    3    0    0  0.15404742266E+02 -0.13401774088E+02  0.15095190409E+02  0.25392487210E+02  0.51100000000E-03 0.  1.
        -12    1    3    3    0    0  0.64471934191E+01  0.14539822692E+02 -0.72697050746E+01  0.17487748819E+02  0.00000000000E+00 0.  1.
</event>
<event>
 7    1  0.7755875E-012  0.5930192E+02  0.7816164E-02  0.1266605E+00
        -11   -1    0    0    0    0  0.00000000000E+00  0.00000000000E+00  0.45593999997E+02  0.45594000000E+02  0.51100000000E-03 0.  1.
         11   -1    0    0    0    0 -0.00000000000E+00 -0.00000000000E+00 -0.45593999997E+02  0.45594000000E+02  0.51100000000E-03 0. -1.
    9900012    2    1    2    0    0 -0.88085138939E+01  0.15809434674E+02 -0.26252497901E+02  0.59301924861E+02  0.49999965044E+02 0.  0.
         12    1    1    2    0    0  0.88085138939E+01 -0.15809434674E+02  0.26252497901E+02  0.31886075139E+02  0.00000000000E+00 0. -1.
         11    1    3    3    0    0 -0.13514323840E+02 -0.61577605496E+01 -0.11757852654E+02  0.18942071247E+02  0.51100000000E-03 0. -1.
        -11    1    3    3    0    0  0.12544321693E+02  0.17464212110E+02 -0.20336914716E+02  0.29596432416E+02  0.51100000000E-03 0.  1.
        -12    1    3    3    0    0 -0.78385117469E+01  0.45029831136E+01  0.58422694683E+01  0.10763421197E+02  0.00000000000E+00 0.  1.
</event>
<event>
 7    1  0.7755875E-012  0.5930195E+02  0.7816164E-02  0.1266605E+00
        -11   -1    0    0    0    0  0.00000000000E+00  0.00000000000E+00  0.45593999997E+02  0.45594000000E+02  0.51100000000E-03 0. -1.
         11   -1    0    0    0    0 -0.00000000000E+00 -0.00000000000E+00 -0.45593999997E+02  0.45594000000E+02  0.51100000000E-03 0.  1.
    9900012    2    1    2    0    0  0.92946283859E+00 -0.22856885946E+02 -0.22213037631E+02  0.59301950117E+02  0.50000011106E+02 0.  0.
         12    1    1    2    0    0 -0.92946283859E+00  0.22856885946E+02  0.22213037631E+02  0.31886049883E+02  0.00000000000E+00 0. -1.
         11    1    3    3    0    0  0.81543434335E+01 -0.93797212949E+01  0.28539197795E+01  0.12752150672E+02  0.51100000000E-03 0. -1.
        -11    1    3    3    0    0 -0.20108695401E+02 -0.59991952866E+01 -0.23601223562E+02  0.31581129313E+02  0.51100000000E-03 0.  1.
        -12    1    3    3    0    0  0.12883814806E+02 -0.74779693649E+01 -0.14657338484E+01  0.14968670131E+02  0.00000000000E+00 0.  1.
</event>
<event>
 7    1  0.7755875E-012  0.5930195E+02  0.7816164E-02  0.1266605E+00
        -11   -1    0    0    0    0  0.00000000000E+00  0.00000000000E+00  0.45593999997E+02  0.45594000000E+02  0.51100000000E-03 0.  1.
         11   -1    0    0    0    0 -0.00000000000E+00 -0.00000000000E+00 -0.45593999997E+02  0.45594000000E+02  0.51100000000E-03 0. -1.
    9900012    2    1    2    0    0 -0.31385271386E+02  0.35889516037E+01  0.43364209326E+01  0.59301946934E+02  0.50000005301E+02 0.  0.
         12    1    1    2    0    0  0.31385271386E+02 -0.35889516037E+01 -0.43364209326E+01  0.31886053066E+02  0.00000000000E+00 0. -1.
         11    1    3    3    0    0 -0.40979081220E-01  0.14137086901E+02 -0.69802616720E+01  0.15766513838E+02  0.51100000000E-03 0. -1.
        -11    1    3    3    0    0 -0.33488060324E+02 -0.10300374665E+02  0.32519675269E+01  0.35186974800E+02  0.51100000000E-03 0.  1.
        -12    1    3    3    0    0  0.21437680189E+01 -0.24776063234E+00  0.80647150776E+01  0.83484582968E+01  0.00000000000E+00 0.  1.
</event>
<event>
 7    1  0.7755875E-012  0.5930193E+02  0.7816164E-02  0.1266605E+00
        -11   -1    0    0    0    0  0.00000000000E+00  0.00000000000E+00  0.45593999997E+02  0.45594000000E+02  0.51100000000E-03 0.  1.
         11   -1    0    0    0    0 -0.00000000000E+00 -0.00000000000E+00 -0.45593999997E+02  0.45594000000E+02  0.51100000000E-03 0. -1.
    9900012    2    1    2    0    0  0.75031348444E+01  0.18328175827E+01  0.30936467527E+02  0.59301932889E+02  0.49999979685E+02 0.  0.
         12    1    1    2    0    0 -0.75031348444E+01 -0.18328175827E+01 -0.30936467527E+02  0.31886067111E+02  0.00000000000E+00 0. -1.
         11    1    3    3    0    0  0.48384376595E+01  0.14954097977E+02  0.68759954032E+01  0.17155606615E+02  0.51100000000E-03 0. -1.
        -11    1    3    3    0    0 -0.11012318294E+01 -0.13916126862E+02 -0.34404749836E+01  0.14377349086E+02  0.51100000000E-03 0.  1.
        -12    1    3    3    0    0  0.37659290142E+01  0.79484646744E+00  0.27500947107E+02  0.27768977188E+02  0.00000000000E+00 0.  1.
</event>
<event>
 7    1  0.7755875E-012  0.5930190E+02  0.7816164E-02  0.1266605E+00
        -11   -1    0    0    0    0  0.00000000000E+00  0.00000000000E+00  0.45593999997E+02  0.45594000000E+02  0.51100000000E-03 0.  1.
         11   -1    0    0    0    0 -0.00000000000E+00 -0.00000000000E+00 -0.45593999997E+02  0.45594000000E+02  0.51100000000E-03 0. -1.
    9900012    2    1    2    0    0 -0.28582243066E+02 -0.91215134947E+01 -0.10797083208E+02  0.59301895928E+02  0.49999912277E+02 0.  0.
         12    1    1    2    0    0  0.28582243066E+02  0.91215134947E+01  0.10797083208E+02  0.31886104072E+02  0.00000000000E+00 0. -1.
         11    1    3    3    0    0 -0.25015740593E+02 -0.21481766565E+02 -0.20192608374E+02  0.38665165270E+02  0.51100000000E-03 0. -1.
        -11    1    3    3    0    0 -0.23589330765E+01 -0.23624643061E+01  0.31785004172E+01  0.46096277529E+01  0.51100000000E-03 0.  1.
         12    1    3    3    0    0 -0.12075693958E+01  0.14722717376E+02  0.62170247490E+01  0.16027102904E+02  0.00000000000E+00 0. -1.
</event>
<event>
 7    1  0.7755875E-012  0.5930193E+02  0.7816164E-02  0.1266605E+00
        -11   -1    0    0    0    0  0.00000000000E+00  0.00000000000E+00  0.45593999997E+02  0.45594000000E+02  0.51100000000E-03 0.  1.
         11   -1    0    0    0    0 -0.00000000000E+00 -0.00000000000E+00 -0.45593999997E+02  0.45594000000E+02  0.51100000000E-03 0. -1.
    9900012    2    1    2    0    0  0.22646141348E+02  0.52270262049E+01  0.21830071623E+02  0.59301928622E+02  0.49999971903E+02 0.  0.
         12    1    1    2    0    0 -0.22646141348E+02 -0.52270262049E+01 -0.21830071623E+02  0.31886071378E+02  0.00000000000E+00 0. -1.
         11    1    3    3    0    0 -0.41847183835E+01 -0.42211008339E+00 -0.49995191299E+01  0.65333939620E+01  0.51100000000E-03 0. -1.
        -11    1    3    3    0    0  0.13054370315E+02  0.15684339593E+02  0.29133753673E+02  0.35569519200E+02  0.51100000000E-03 0.  1.
        -12    1    3    3    0    0  0.13776489417E+02 -0.10035203305E+02 -0.23041629201E+01  0.17199015460E+02  0.00000000000E+00 0.  1.
</event>
<event>
 7    1  0.7755875E-012  0.5930192E+02  0.7816164E-02  0.1266605E+00
        -11   -1    0    0    0    0  0.00000000000E+00  0.00000000000E+00  0.45593999997E+02  0.45594000000E+02  0.51100000000E-03 0. -1.
         11   -1    0    0    0    0 -0.00000000000E+00 -0.00000000000E+00 -0.45593999997E+02  0.45594000000E+02  0.51100000000E-03 0.  1.
    9900012    2    1    2    0    0 -0.20401379557E+02  0.20841120617E+02 -0.12890051951E+02  0.59301920973E+02  0.49999957954E+02 0.  0.
         12    1    1    2    0    0  0.20401379557E+02 -0.20841120617E+02  0.12890051951E+02  0.31886079027E+02  0.00000000000E+00 0. -1.
         11    1    3    3    0    0 -0.33219324214E+02  0.49344088106E+01 -0.10481588544E+02  0.35181466573E+02  0.51100000000E-03 0. -1.
        -11    1    3    3    0    0  0.52559997264E+01  0.10224499809E+02 -0.71513086990E+01  0.13539096936E+02  0.51100000000E-03 0.  1.
         12    1    3    3    0    0  0.75619449311E+01  0.56822119979E+01  0.47428452919E+01  0.10581357465E+02  0.00000000000E+00 0. -1.
</event>
<event>
 7    1  0.7755875E-012  0.5930194E+02  0.7816164E-02  0.1266605E+00
        -11   -1    0    0    0    0  0.00000000000E+00  0.00000000000E+00  0.45593999997E+02  0.45594000000E+02  0.51100000000E-03 0.  1.
         11   -1    0    0    0    0 -0.00000000000E+00 -0.00000000000E+00 -0.45593999997E+02  0.45594000000E+02  0.51100000000E-03 0. -1.
    9900012    2    1    2    0    0  0.98961459586E+01  0.38300942342E+01  0.30068551820E+02  0.59301935094E+02  0.49999983707E+02 0.  0.
         12    1    1    2    0    0 -0.98961459586E+01 -0.38300942342E+01 -0.30068551820E+02  0.31886064906E+02  0.00000000000E+00 0. -1.
         11    1    3    3    0    0  0.87707450113E+01 -0.44653879211E+01  0.15646108240E+02  0.18484219233E+02  0.51100000000E-03 0. -1.
        -11    1    3    3    0    0  0.23416831592E+01  0.88033511418E+01 -0.11607053382E+02  0.14754869021E+02  0.51100000000E-03 0.  1.
        -12    1    3    3    0    0 -0.12162822120E+01 -0.50786898650E+00  0.26029496961E+02  0.26062846840E+02  0.00000000000E+00 0.  1.
</event>
<event>
 7    1  0.7755875E-012  0.5930192E+02  0.7816164E-02  0.1266605E+00
        -11   -1    0    0    0    0  0.00000000000E+00  0.00000000000E+00  0.45593999997E+02  0.45594000000E+02  0.51100000000E-03 0.  1.
         11   -1    0    0    0    0 -0.00000000000E+00 -0.00000000000E+00 -0.45593999997E+02  0.45594000000E+02  0.51100000000E-03 0. -1.
    9900012    2    1    2    0    0  0.66892521943E+01 -0.29465858518E+02 -0.10185229408E+02  0.59301924494E+02  0.49999964375E+02 0.  0.
         12    1    1    2    0    0 -0.66892521943E+01  0.29465858518E+02  0.10185229408E+02  0.31886075506E+02  0.00000000000E+00 0. -1.
         11    1    3    3    0    0  0.77062934719E+01 -0.20984447744E+02 -0.11736662837E+02  0.25248430862E+02  0.51100000000E-03 0. -1.
        -11    1    3    3    0    0  0.10775179508E+02  0.41529146465E+01  0.95733881457E+01  0.15000031811E+02  0.51100000000E-03 0.  1.
        -12    1    3    3    0    0 -0.11792220785E+02 -0.12634325420E+02 -0.80219547166E+01  0.19053461821E+02  0.00000000000E+00 0.  1.
</event>
<event>
 7    1  0.7755875E-012  0.5930194E+02  0.7816164E-02  0.1266605E+00
        -11   -1    0    0    0    0  0.00000000000E+00  0.00000000000E+00  0.45593999997E+02  0.45594000000E+02  0.51100000000E-03 0. -1.
         11   -1    0    0    0    0 -0.00000000000E+00 -0.00000000000E+00 -0.45593999997E+02  0.45594000000E+02  0.51100000000E-03 0.  1.
    9900012    2    1    2    0    0 -0.10269093594E+02 -0.30078104254E+02  0.25639903930E+01  0.59301942145E+02  0.49999996567E+02 0.  0.
         12    1    1    2    0    0  0.10269093594E+02  0.30078104254E+02 -0.25639903930E+01  0.31886057855E+02  0.00000000000E+00 0. -1.
         11    1    3    3    0    0  0.94944630139E+01 -0.61032443050E+01  0.15060347179E+02  0.18820427104E+02  0.51100000000E-03 0. -1.
        -11    1    3    3    0    0 -0.13554970920E+02 -0.25734218340E+02 -0.33361697273E+01  0.29276565013E+02  0.51100000000E-03 0.  1.
         12    1    3    3    0    0 -0.62085856876E+01  0.17593583909E+01 -0.91601870586E+01  0.11204950028E+02  0.00000000000E+00 0. -1.
</event>
<event>
 7    1  0.7755875E-012  0.5930194E+02  0.7816164E-02  0.1266605E+00
        -11   -1    0    0    0    0  0.00000000000E+00  0.00000000000E+00  0.45593999997E+02  0.45594000000E+02  0.51100000000E-03 0.  1.
         11   -1    0    0    0    0 -0.00000000000E+00 -0.00000000000E+00 -0.45593999997E+02  0.45594000000E+02  0.51100000000E-03 0. -1.
    9900012    2    1    2    0    0 -0.15596893956E+02 -0.27686079366E+02 -0.26341125126E+01  0.59301942851E+02  0.49999997854E+02 0.  0.
         12    1    1    2    0    0  0.15596893956E+02  0.27686079366E+02  0.26341125126E+01  0.31886057149E+02  0.00000000000E+00 0. -1.
         11    1    3    3    0    0 -0.12198606995E+02 -0.21660429831E+02 -0.22046997501E+02  0.33227252853E+02  0.51100000000E-03 0. -1.
        -11    1    3    3    0    0  0.24782345184E+01  0.35564498038E+01  0.11605843404E+02  0.12388929854E+02  0.51100000000E-03 0.  1.
         12    1    3    3    0    0 -0.58765214794E+01 -0.95820993394E+01  0.78070415836E+01  0.13685760145E+02  0.00000000000E+00 0. -1.
</event>
<event>
 7    1  0.7755875E-012  0.5930196E+02  0.7816164E-02  0.1266605E+00
        -11   -1    0    0    0    0  0.00000000000E+00  0.00000000000E+00  0.45593999997E+02  0.45594000000E+02  0.51100000000E-03 0.  1.
         11   -1    0    0    0    0 -0.00000000000E+00 -0.00000000000E+00 -0.45593999997E+02  0.45594000000E+02  0.51100000000E-03 0. -1.
    9900012    2    1    2    0    0  0.18252040073E+02  0.99250797091E+01  0.24188325369E+02  0.59301964527E+02  0.50000037385E+02 0.  0.
         12    1    1    2    0    0 -0.18252040073E+02 -0.99250797091E+01 -0.24188325369E+02  0.31886035473E+02  0.00000000000E+00 0. -1.
         11    1    3    3    0    0 -0.48819847830E-02 -0.26276368940E+01 -0.38217918294E+01  0.46379513289E+01  0.51100000000E-03 0. -1.
        -11    1    3    3    0    0  0.20237174880E+02  0.22598378571E+02  0.67652450119E+01  0.31080516429E+02  0.51100000000E-03 0.  1.
        -12    1    3    3    0    0 -0.19802528227E+01 -0.10045661968E+02  0.21244872187E+02  0.23583496769E+02  0.00000000000E+00 0.  1.
</event>
<event>
 7    1  0.7755875E-012  0.5930202E+02  0.7816164E-02  0.1266605E+00
        -11   -1    0    0    0    0  0.00000000000E+00  0.00000000000E+00  0.45593999997E+02  0.45594000000E+02  0.51100000000E-03 0. -1.
         11   -1    0    0    0    0 -0.00000000000E+00 -0.00000000000E+00 -0.45593999997E+02  0.45594000000E+02  0.51100000000E-03 0.  1.
    9900012    2    1    2    0    0  0.16019464636E+02 -0.19511874866E+01 -0.27500645065E+02  0.59302017832E+02  0.50000134601E+02 0.  0.
         12    1    1    2    0    0 -0.16019464636E+02  0.19511874866E+01  0.27500645065E+02  0.31885982168E+02  0.00000000000E+00 0. -1.
         11    1    3    3    0    0 -0.14191383653E+02 -0.70938776023E+01 -0.12362914563E+02  0.20113680076E+02  0.51100000000E-03 0. -1.
        -11    1    3    3    0    0  0.89585348689E+01  0.35898695123E+01 -0.15050681977E+02  0.17879192889E+02  0.51100000000E-03 0.  1.
         12    1    3    3    0    0  0.21252313420E+02  0.15528206034E+01 -0.87048524837E-01  0.21309144867E+02  0.00000000000E+00 0. -1.
</event>
<event>
 7    1  0.7755875E-012  0.5930193E+02  0.7816164E-02  0.1266605E+00
        -11   -1    0    0    0    0  0.00000000000E+00  0.00000000000E+00  0.45593999997E+02  0.45594000000E+02  0.51100000000E-03 0.  1.
         11   -1    0    0    0    0 -0.00000000000E+00 -0.00000000000E+00 -0.45593999997E+02  0.45594000000E+02  0.51100000000E-03 0. -1.
    9900012    2    1    2    0    0  0.23816806762E+02  0.96986924105E+01  0.18852486385E+02  0.59301934678E+02  0.49999982948E+02 0.  0.
         12    1    1    2    0    0 -0.23816806762E+02 -0.96986924105E+01 -0.18852486385E+02  0.31886065322E+02  0.00000000000E+00 0. -1.
         11    1    3    3    0    0  0.83418790479E+01  0.24172637653E+02  0.56644220406E+01  0.26191392374E+02  0.51100000000E-03 0. -1.
        -11    1    3    3    0    0  0.10155311097E+02 -0.88794397153E+01  0.19102486675E+02  0.23385461093E+02  0.51100000000E-03 0.  1.
         12    1    3    3    0    0  0.53196166178E+01 -0.55945055272E+01 -0.59144223301E+01  0.97250812106E+01  0.00000000000E+00 0. -1.
</event>
<event>
 7    1  0.7755875E-012  0.5930194E+02  0.7816164E-02  0.1266605E+00
        -11   -1    0    0    0    0  0.00000000000E+00  0.00000000000E+00  0.45593999997E+02  0.45594000000E+02  0.51100000000E-03 0.  1.
         11   -1    0    0    0    0 -0.00000000000E+00 -0.00000000000E+00 -0.45593999997E+02  0.45594000000E+02  0.51100000000E-03 0. -1.
    9900012    2    1    2    0    0 -0.13922418441E+02 -0.13460652366E+02  0.25331758315E+02  0.59301939147E+02  0.49999991099E+02 0.  0.
         12    1    1    2    0    0  0.13922418441E+02  0.13460652366E+02 -0.25331758315E+02  0.31886060853E+02  0.00000000000E+00 0. -1.
         11    1    3    3    0    0 -0.87622761682E+01 -0.23619635274E+02 -0.57907115339E+01  0.25849506658E+02  0.51100000000E-03 0. -1.
        -11    1    3    3    0    0 -0.25519471335E+01  0.35811282633E+01  0.66101452261E+01  0.79392023517E+01  0.51100000000E-03 0.  1.
         12    1    3    3    0    0 -0.26081951394E+01  0.65778546447E+01  0.24512324623E+02  0.25513230137E+02  0.00000000000E+00 0. -1.
</event>
<event>
 7    1  0.7755875E-012  0.5930194E+02  0.7816164E-02  0.1266605E+00
        -11   -1    0    0    0    0  0.00000000000E+00  0.00000000000E+00  0.45593999997E+02  0.45594000000E+02  0.51100000000E-03 0.  1.
         11   -1    0    0    0    0 -0.00000000000E+00 -0.00000000000E+00 -0.45593999997E+02  0.45594000000E+02  0.51100000000E-03 0. -1.
    9900012    2    1    2    0    0  0.12473454117E+01  0.15673582757E+02  0.27739927550E+02  0.59301942741E+02  0.49999997654E+02 0.  0.
         12    1    1    2    0    0 -0.12473454117E+01 -0.15673582757E+02 -0.27739927550E+02  0.31886057259E+02  0.00000000000E+00 0. -1.
         11    1    3    3    0    0  0.64313342193E+01 -0.12812618834E+02 -0.47569221736E+01  0.15104753227E+02  0.51100000000E-03 0. -1.
        -11    1    3    3    0    0 -0.17120869511E+01  0.14685741299E+02  0.11048180340E+02  0.18457099672E+02  0.51100000000E-03 0.  1.
         12    1    3    3    0    0 -0.34719018565E+01  0.13800460291E+02  0.21448669384E+02  0.25740089842E+02  0.00000000000E+00 0. -1.
</event>
<event>
 7    1  0.7755875E-012  0.5930195E+02  0.7816164E-02  0.1266605E+00
        -11   -1    0    0    0    0  0.00000000000E+00  0.00000000000E+00  0.45593999997E+02  0.45594000000E+02  0.51100000000E-03 0.  1.
         11   -1    0    0    0    0 -0.00000000000E+00 -0.00000000000E+00 -0.45593999997E+02  0.45594000000E+02  0.51100000000E-03 0. -1.
    9900012    2    1    2    0    0  0.23864020519E+02  0.11942868073E+02 -0.17452690727E+02  0.59301953102E+02  0.50000016550E+02 0.  0.
         12    1    1    2    0    0 -0.23864020519E+02 -0.11942868073E+02  0.17452690727E+02  0.31886046898E+02  0.00000000000E+00 0. -1.
         11    1    3    3    0    0  0.24414722276E+02  0.11647394728E+02 -0.26488216022E+02  0.37859821131E+02  0.51100000000E-03 0. -1.
        -11    1    3    3    0    0  0.71435538375E+01 -0.59502651295E+01  0.27050229473E+01  0.96826218529E+01  0.51100000000E-03 0.  1.
         12    1    3    3    0    0 -0.76942555946E+01  0.62457384745E+01  0.63305023479E+01  0.11759510118E+02  0.00000000000E+00 0. -1.
</event>
<event>
 7    1  0.7755875E-012  0.5930195E+02  0.7816164E-02  0.1266605E+00
        -11   -1    0    0    0    0  0.00000000000E+00  0.00000000000E+00  0.45593999997E+02  0.45594000000E+02  0.51100000000E-03 0.  1.
         11   -1    0    0    0    0 -0.00000000000E+00 -0.00000000000E+00 -0.45593999997E+02  0.45594000000E+02  0.51100000000E-03 0. -1.
    9900012    2    1    2    0    0 -0.81055420087E+01 -0.82172295706E+01  0.29723686677E+02  0.59301949402E+02  0.50000009802E+02 0.  0.
         12    1    1    2    0    0  0.81055420087E+01  0.82172295706E+01 -0.29723686677E+02  0.31886050598E+02  0.00000000000E+00 0. -1.
         11    1    3    3    0    0 -0.14830923243E+02 -0.25149703673E+02  0.15439157649E+02  0.33027737862E+02  0.51100000000E-03 0. -1.
        -11    1    3    3    0    0  0.58654489421E+01  0.61155090453E+01  0.12758874598E+02  0.15316390679E+02  0.51100000000E-03 0.  1.
         12    1    3    3    0    0  0.85993229245E+00  0.10816965057E+02  0.15256544292E+01  0.10957820861E+02  0.00000000000E+00 0. -1.
</event>
<event>
 7    1  0.7755875E-012  0.5930196E+02  0.7816164E-02  0.1266605E+00
        -11   -1    0    0    0    0  0.00000000000E+00  0.00000000000E+00  0.45593999997E+02  0.45594000000E+02  0.51100000000E-03 0.  1.
         11   -1    0    0    0    0 -0.00000000000E+00 -0.00000000000E+00 -0.45593999997E+02  0.45594000000E+02  0.51100000000E-03 0. -1.
    9900012    2    1    2    0    0 -0.11196880432E+02 -0.16620007832E+02  0.24801709130E+02  0.59301959676E+02  0.50000028539E+02 0.  0.
         12    1    1    2    0    0  0.11196880432E+02  0.16620007832E+02 -0.24801709130E+02  0.31886040324E+02  0.00000000000E+00 0. -1.
         11    1    3    3    0    0  0.17564577292E+02 -0.11372094621E+02  0.38688533545E+01  0.21279260750E+02  0.51100000000E-03 0. -1.
        -11    1    3    3    0    0 -0.27140225361E+02 -0.81712227189E+01  0.18003979776E+02  0.33578326364E+02  0.51100000000E-03 0.  1.
         12    1    3    3    0    0 -0.16212323641E+01  0.29233095074E+01  0.29288759994E+01  0.44443725625E+01  0.00000000000E+00 0. -1.
</event>
<event>
 7    1  0.7755875E-012  0.5930192E+02  0.7816164E-02  0.1266605E+00
        -11   -1    0    0    0    0  0.00000000000E+00  0.00000000000E+00  0.45593999997E+02  0.45594000000E+02  0.51100000000E-03 0.  1.
         11   -1    0    0    0    0 -0.00000000000E+00 -0.00000000000E+00 -0.45593999997E+02  0.45594000000E+02  0.51100000000E-03 0. -1.
    9900012    2    1    2    0    0  0.22995972237E+02 -0.12068471400E+02  0.18500249374E+02  0.59301922035E+02  0.49999959891E+02 0.  0.
         12    1    1    2    0    0 -0.22995972237E+02  0.12068471400E+02 -0.18500249374E+02  0.31886077965E+02  0.00000000000E+00 0. -1.
         11    1    3    3    0    0  0.16801555502E+02 -0.10171818591E+02 -0.66059222643E+01  0.20721881429E+02  0.51100000000E-03 0. -1.
        -11    1    3    3    0    0  0.77717467602E+01 -0.14574176123E+02  0.14330077401E+02  0.21866819063E+02  0.51100000000E-03 0.  1.
         12    1    3    3    0    0 -0.15773300252E+01  0.12677523313E+02  0.10776094237E+02  0.16713221544E+02  0.00000000000E+00 0. -1.
</event>
<event>
 7    1  0.7755875E-012  0.5930193E+02  0.7816164E-02  0.1266605E+00
        -11   -1    0    0    0    0  0.00000000000E+00  0.00000000000E+00  0.45593999997E+02  0.45594000000E+02  0.51100000000E-03 0. -1.
         11   -1    0    0    0    0 -0.00000000000E+00 -0.00000000000E+00 -0.45593999997E+02  0.45594000000E+02  0.51100000000E-03 0.  1.
    9900012    2    1    2    0    0  0.13777749532E+02  0.16734248415E+02 -0.23385039844E+02  0.59301928736E+02  0.49999972111E+02 0.  0.
         12    1    1    2    0    0 -0.13777749532E+02 -0.16734248415E+02  0.23385039844E+02  0.31886071264E+02  0.00000000000E+00 0. -1.
         11    1    3    3    0    0 -0.22099782817E+01  0.28510388106E+02 -0.76464873065E+01  0.29600591250E+02  0.51100000000E-03 0. -1.
        -11    1    3    3    0    0 -0.25893104784E+01 -0.41654013784E+01 -0.16469266226E+01  0.51737283422E+01  0.51100000000E-03 0.  1.
         12    1    3    3    0    0  0.18577038292E+02 -0.76107383132E+01 -0.14091625914E+02  0.24527609144E+02  0.00000000000E+00 0. -1.
</event>
<event>
 7    1  0.7755875E-012  0.5930194E+02  0.7816164E-02  0.1266605E+00
        -11   -1    0    0    0    0  0.00000000000E+00  0.00000000000E+00  0.45593999997E+02  0.45594000000E+02  0.51100000000E-03 0.  1.
         11   -1    0    0    0    0 -0.00000000000E+00 -0.00000000000E+00 -0.45593999997E+02  0.45594000000E+02  0.51100000000E-03 0. -1.
    9900012    2    1    2    0    0  0.29589870948E+02 -0.95315491535E+01  0.70929507509E+01  0.59301939686E+02  0.49999992082E+02 0.  0.
         12    1    1    2    0    0 -0.29589870948E+02  0.95315491535E+01 -0.70929507509E+01  0.31886060314E+02  0.00000000000E+00 0. -1.
         11    1    3    3    0    0  0.40458166007E+01 -0.12683534476E+02 -0.13363524854E+02  0.18863310302E+02  0.51100000000E-03 0. -1.
        -11    1    3    3    0    0  0.15105404527E+02  0.13290221282E+02  0.14045926452E+02  0.24537548325E+02  0.51100000000E-03 0.  1.
        -12    1    3    3    0    0  0.10438649820E+02 -0.10138235959E+02  0.64105491523E+01  0.15901081060E+02  0.00000000000E+00 0.  1.
</event>
<event>
 7    1  0.7755875E-012  0.5930196E+02  0.7816164E-02  0.1266605E+00
        -11   -1    0    0    0    0  0.00000000000E+00  0.00000000000E+00  0.45593999997E+02  0.45594000000E+02  0.51100000000E-03 0. -1.
         11   -1    0    0    0    0 -0.00000000000E+00 -0.00000000000E+00 -0.45593999997E+02  0.45594000000E+02  0.51100000000E-03 0.  1.
    9900012    2    1    2    0    0  0.29997868257E+02  0.24894584946E+01  0.10519028075E+02  0.59301961438E+02  0.50000031752E+02 0.  0.
         12    1    1    2    0    0 -0.29997868257E+02 -0.24894584946E+01 -0.10519028075E+02  0.31886038562E+02  0.00000000000E+00 0. -1.
         11    1    3    3    0    0  0.26770509279E+02 -0.16597417407E+00 -0.15094638647E+02  0.30733301655E+02  0.51100000000E-03 0. -1.
        -11    1    3    3    0    0  0.46491098266E+01 -0.35016877036E+01  0.82958870814E+01  0.10133991399E+02  0.51100000000E-03 0.  1.
         12    1    3    3    0    0 -0.14217508485E+01  0.61571203723E+01  0.17317779640E+02  0.18434668384E+02  0.00000000000E+00 0. -1.
</event>
<event>
 7    1  0.7755875E-012  0.5930196E+02  0.7816164E-02  0.1266605E+00
        -11   -1    0    0    0    0  0.00000000000E+00  0.00000000000E+00  0.45593999997E+02  0.45594000000E+02  0.51100000000E-03 0.  1.
         11   -1    0    0    0    0 -0.00000000000E+00 -0.00000000000E+00 -0.45593999997E+02  0.45594000000E+02  0.51100000000E-03 0. -1.
    9900012    2    1    2    0    0  0.13389640468E+02  0.20958028470E+02  0.19954898799E+02  0.59301962063E+02  0.50000032893E+02 0.  0.
         12    1    1    2    0    0 -0.13389640468E+02 -0.20958028470E+02 -0.19954898799E+02  0.31886037937E+02  0.00000000000E+00 0. -1.
         11    1    3    3    0    0 -0.76375023208E+01 -0.25918476268E+01 -0.85028819537E+01  0.11719561323E+02  0.51100000000E-03 0. -1.
        -11    1    3    3    0    0  0.23264274133E+02  0.24452784708E+02  0.21016933199E+02  0.39760239087E+02  0.51100000000E-03 0.  1.
         12    1    3    3    0    0 -0.22371313444E+01 -0.90290861089E+00  0.74408475539E+01  0.78221616534E+01  0.00000000000E+00 0. -1.
</event>
<event>
 7    1  0.7755875E-012  0.5930196E+02  0.7816164E-02  0.1266605E+00
        -11   -1    0    0    0    0  0.00000000000E+00  0.00000000000E+00  0.45593999997E+02  0.45594000000E+02  0.51100000000E-03 0.  1.
         11   -1    0    0    0    0 -0.00000000000E+00 -0.00000000000E+00 -0.45593999997E+02  0.45594000000E+02  0.51100000000E-03 0. -1.
    9900012    2    1    2    0    0 -0.17777900757E+02 -0.45080667278E+01  0.26083390027E+02  0.59301958285E+02  0.50000026002E+02 0.  0.
         12    1    1    2    0    0  0.17777900757E+02  0.45080667278E+01 -0.26083390027E+02  0.31886041715E+02  0.00000000000E+00 0. -1.
         11    1    3    3    0    0 -0.84467225968E+01 -0.94030194724E+00 -0.65630524724E+01  0.10738014174E+02  0.51100000000E-03 0. -1.
        -11    1    3    3    0    0 -0.13339741344E+02  0.57449327967E+01  0.35225441790E+02  0.38102292602E+02  0.51100000000E-03 0.  1.
        -12    1    3    3    0    0  0.40085631838E+01 -0.93126975773E+01 -0.25789992909E+01  0.10461651510E+02  0.00000000000E+00 0.  1.
</event>
<event>
 7    1  0.7755875E-012  0.5930194E+02  0.7816164E-02  0.1266605E+00
        -11   -1    0    0    0    0  0.00000000000E+00  0.00000000000E+00  0.45593999997E+02  0.45594000000E+02  0.51100000000E-03 0.  1.
         11   -1    0    0    0    0 -0.00000000000E+00 -0.00000000000E+00 -0.45593999997E+02  0.45594000000E+02  0.51100000000E-03 0. -1.
    9900012    2    1    2    0    0  0.57723901885E+01 -0.24987376184E+01  0.31259500989E+02  0.59301943796E+02  0.49999999577E+02 0.  0.
         12    1    1    2    0    0 -0.57723901885E+01  0.24987376184E+01 -0.31259500989E+02  0.31886056204E+02  0.00000000000E+00 0. -1.
         11    1    3    3    0    0  0.18020997127E+02 -0.26434565580E+01 -0.53982792920E+01  0.18996989751E+02  0.51100000000E-03 0. -1.
        -11    1    3    3    0    0 -0.76702538583E+01  0.54483489438E+01  0.16910345010E+02  0.19351410003E+02  0.51100000000E-03 0.  1.
         12    1    3    3    0    0 -0.45783530804E+01 -0.53036300043E+01  0.19747435271E+02  0.20953544042E+02  0.00000000000E+00 0. -1.
</event>
<event>
 7    1  0.7755875E-012  0.5930195E+02  0.7816164E-02  0.1266605E+00
        -11   -1    0    0    0    0  0.00000000000E+00  0.00000000000E+00  0.45593999997E+02  0.45594000000E+02  0.51100000000E-03 0. -1.
         11   -1    0    0    0    0 -0.00000000000E+00 -0.00000000000E+00 -0.45593999997E+02  0.45594000000E+02  0.51100000000E-03 0.  1.
    9900012    2    1    2    0    0  0.27787473417E+02 -0.62713521031E+01 -0.14326438534E+02  0.59301946980E+02  0.50000005384E+02 0.  0.
         12    1    1    2    0    0 -0.27787473417E+02  0.62713521031E+01  0.14326438534E+02  0.31886053020E+02  0.00000000000E+00 0. -1.
         11    1    3    3    0    0  0.12663773266E+02 -0.22414483839E+02 -0.14448399994E+02  0.29521797062E+02  0.51100000000E-03 0. -1.
        -11    1    3    3    0    0  0.17006443371E+02  0.13849656055E+02 -0.62038456668E+01  0.22792976775E+02  0.51100000000E-03 0.  1.
         12    1    3    3    0    0 -0.18827432189E+01  0.22934756810E+01  0.63258071267E+01  0.69871731431E+01  0.00000000000E+00 0. -1.
</event>
<event>
 7    1  0.7755875E-012  0.5930192E+02  0.7816164E-02  0.1266605E+00
        -11   -1    0    0    0    0  0.00000000000E+00  0.00000000000E+00  0.45593999997E+02  0.45594000000E+02  0.51100000000E-03 0. -1.
         11   -1    0    0    0    0 -0.00000000000E+00 -0.00000000000E+00 -0.45593999997E+02  0.45594000000E+02  0.51100000000E-03 0.  1.
    9900012    2    1    2    0    0  0.85886295552E+01  0.85831360391E+01 -0.29483679995E+02  0.59301918899E+02  0.49999954172E+02 0.  0.
         12    1    1    2    0    0 -0.85886295552E+01 -0.85831360391E+01  0.29483679995E+02  0.31886081101E+02  0.00000000000E+00 0. -1.
         11    1    3    3    0    0 -0.15140240192E+02  0.74337649170E+01 -0.87443388870E+01  0.18998715660E+02  0.51100000000E-03 0. -1.
        -11    1    3    3    0    0  0.17961201175E+02 -0.59189997532E+01 -0.14518983814E+01  0.18967005955E+02  0.51100000000E-03 0.  1.
        -12    1    3    3    0    0  0.57676685720E+01  0.70683708752E+01 -0.19287442727E+02  0.21336197284E+02  0.00000000000E+00 0.  1.
</event>
<event>
 7    1  0.7755875E-012  0.5930197E+02  0.7816164E-02  0.1266605E+00
        -11   -1    0    0    0    0  0.00000000000E+00  0.00000000000E+00  0.45593999997E+02  0.45594000000E+02  0.51100000000E-03 0. -1.
         11   -1    0    0    0    0 -0.00000000000E+00 -0.00000000000E+00 -0.45593999997E+02  0.45594000000E+02  0.51100000000E-03 0.  1.
    9900012    2    1    2    0    0 -0.24041165391E+02 -0.59292939105E+01 -0.20089416132E+02  0.59301971709E+02  0.50000050485E+02 0.  0.
         12    1    1    2    0    0  0.24041165391E+02  0.59292939105E+01  0.20089416132E+02  0.31886028291E+02  0.00000000000E+00 0. -1.
         11    1    3    3    0    0 -0.33715952156E+01 -0.93300347448E+00  0.10931888040E+02  0.11477993124E+02  0.51100000000E-03 0. -1.
        -11    1    3    3    0    0 -0.13216099718E+02 -0.17271956689E+02 -0.15691658264E+02  0.26818163974E+02  0.51100000000E-03 0.  1.
        -12    1    3    3    0    0 -0.74534704567E+01  0.12275666253E+02 -0.15329645908E+02  0.21005814611E+02  0.00000000000E+00 0.  1.
</event>
<event>
 7    1  0.7755875E-012  0.5930194E+02  0.7816164E-02  0.1266605E+00
        -11   -1    0    0    0    0  0.00000000000E+00  0.00000000000E+00  0.45593999997E+02  0.45594000000E+02  0.51100000000E-03 0.  1.
         11   -1    0    0    0    0 -0.00000000000E+00 -0.00000000000E+00 -0.45593999997E+02  0.45594000000E+02  0.51100000000E-03 0. -1.
    9900012    2    1    2    0    0  0.48207314140E+01  0.32298486283E+01  0.31353615341E+02  0.59301943980E+02  0.49999999913E+02 0.  0.
         12    1    1    2    0    0 -0.48207314140E+01 -0.32298486283E+01 -0.31353615341E+02  0.31886056020E+02  0.00000000000E+00 0. -1.
         11    1    3    3    0    0 -0.11062216171E+02  0.15519982196E+02  0.81738033596E+01  0.20737732171E+02  0.51100000000E-03 0. -1.
        -11    1    3    3    0    0  0.27703066415E+01 -0.14546481983E+02  0.19998134126E+02  0.24883731749E+02  0.51100000000E-03 0.  1.
         12    1    3    3    0    0  0.13112640944E+02  0.22563484155E+01  0.31816778558E+01  0.13680480060E+02  0.00000000000E+00 0. -1.
</event>
<event>
 7    1  0.7755875E-012  0.5930194E+02  0.7816164E-02  0.1266605E+00
        -11   -1    0    0    0    0  0.00000000000E+00  0.00000000000E+00  0.45593999997E+02  0.45594000000E+02  0.51100000000E-03 0. -1.
         11   -1    0    0    0    0 -0.00000000000E+00 -0.00000000000E+00 -0.45593999997E+02  0.45594000000E+02  0.51100000000E-03 0.  1.
    9900012    2    1    2    0    0 -0.55045072279E+00  0.31524131871E+02  0.47588955059E+01  0.59301937642E+02  0.49999988355E+02 0.  0.
         12    1    1    2    0    0  0.55045072279E+00 -0.31524131871E+02 -0.47588955059E+01  0.31886062358E+02  0.00000000000E+00 0. -1.
         11    1    3    3    0    0  0.11230572376E+02  0.18226089355E+02  0.20040160331E+02  0.29324462747E+02  0.51100000000E-03 0. -1.
        -11    1    3    3    0    0  0.33456196534E+01  0.10782446871E+01 -0.88064610972E+01  0.94820641101E+01  0.51100000000E-03 0.  1.
         12    1    3    3    0    0 -0.15126642752E+02  0.12219797829E+02 -0.64748037279E+01  0.20495410785E+02  0.00000000000E+00 0. -1.
</event>
<event>
 7    1  0.7755875E-012  0.5930195E+02  0.7816164E-02  0.1266605E+00
        -11   -1    0    0    0    0  0.00000000000E+00  0.00000000000E+00  0.45593999997E+02  0.45594000000E+02  0.51100000000E-03 0. -1.
         11   -1    0    0    0    0 -0.00000000000E+00 -0.00000000000E+00 -0.45593999997E+02  0.45594000000E+02  0.51100000000E-03 0.  1.
    9900012    2    1    2    0    0  0.73146347393E+00  0.31561821717E+02 -0.44762270917E+01  0.59301949165E+02  0.50000009368E+02 0.  0.
         12    1    1    2    0    0 -0.73146347393E+00 -0.31561821717E+02  0.44762270917E+01  0.31886050835E+02  0.00000000000E+00 0. -1.
         11    1    3    3    0    0  0.13840989353E+02  0.20732369808E+02  0.15132083588E+02  0.29161345958E+02  0.51100000000E-03 0. -1.
        -11    1    3    3    0    0 -0.92184213284E+01  0.14722479169E+02 -0.15361544121E+02  0.23188525669E+02  0.51100000000E-03 0.  1.
         12    1    3    3    0    0 -0.38911045511E+01 -0.38930272599E+01 -0.42467665585E+01  0.69520775367E+01  0.00000000000E+00 0. -1.
</event>
<event>
 7    1  0.7755875E-012  0.5930198E+02  0.7816164E-02  0.1266605E+00
        -11   -1    0    0    0    0  0.00000000000E+00  0.00000000000E+00  0.45593999997E+02  0.45594000000E+02  0.51100000000E-03 0.  1.
         11   -1    0    0    0    0 -0.00000000000E+00 -0.00000000000E+00 -0.45593999997E+02  0.45594000000E+02  0.51100000000E-03 0. -1.
    9900012    2    1    2    0    0 -0.19251764718E+02  0.21797615481E+02  0.13074846738E+02  0.59301982647E+02  0.50000070432E+02 0.  0.
         12    1    1    2    0    0  0.19251764718E+02 -0.21797615481E+02 -0.13074846738E+02  0.31886017353E+02  0.00000000000E+00 0. -1.
         11    1    3    3    0    0 -0.14895744935E+02  0.71270123906E+01  0.14104658244E+01  0.16573078679E+02  0.51100000000E-03 0. -1.
        -11    1    3    3    0    0  0.16829821611E+02  0.37658843011E+01  0.40618802237E+01  0.17717890710E+02  0.51100000000E-03 0.  1.
        -12    1    3    3    0    0 -0.21185841394E+02  0.10904718790E+02  0.76025006898E+01  0.25011013258E+02  0.00000000000E+00 0.  1.
</event>
<event>
 7    1  0.7755875E-012  0.5930195E+02  0.7816164E-02  0.1266605E+00
        -11   -1    0    0    0    0  0.00000000000E+00  0.00000000000E+00  0.45593999997E+02  0.45594000000E+02  0.51100000000E-03 0.  1.
         11   -1    0    0    0    0 -0.00000000000E+00 -0.00000000000E+00 -0.45593999997E+02  0.45594000000E+02  0.51100000000E-03 0. -1.
    9900012    2    1    2    0    0 -0.43789435196E+01  0.97920344363E+01  0.30027677215E+02  0.59301945310E+02  0.50000002339E+02 0.  0.
         12    1    1    2    0    0  0.43789435196E+01 -0.97920344363E+01 -0.30027677215E+02  0.31886054690E+02  0.00000000000E+00 0. -1.
         11    1    3    3    0    0  0.77110778200E+01  0.91097044360E+01 -0.87209364363E+01  0.14781818854E+02  0.51100000000E-03 0. -1.
        -11    1    3    3    0    0 -0.27593464540E+01  0.43131981984E+01  0.32089938068E+02  0.32495873538E+02  0.51100000000E-03 0.  1.
        -12    1    3    3    0    0 -0.93306748857E+01 -0.36308681981E+01  0.66586755835E+01  0.12024252917E+02  0.00000000000E+00 0.  1.
</event>
<event>
 7    1  0.7755875E-012  0.5930191E+02  0.7816164E-02  0.1266605E+00
        -11   -1    0    0    0    0  0.00000000000E+00  0.00000000000E+00  0.45593999997E+02  0.45594000000E+02  0.51100000000E-03 0. -1.
         11   -1    0    0    0    0 -0.00000000000E+00 -0.00000000000E+00 -0.45593999997E+02  0.45594000000E+02  0.51100000000E-03 0.  1.
    9900012    2    1    2    0    0 -0.17948129783E+02  0.71275206085E+01 -0.25372928886E+02  0.59301914744E+02  0.49999946593E+02 0.  0.
         12    1    1    2    0    0  0.17948129783E+02 -0.71275206085E+01  0.25372928886E+02  0.31886085256E+02  0.00000000000E+00 0. -1.
         11    1    3    3    0    0 -0.23934018530E+02  0.99734575492E+01 -0.15688050460E+02  0.30305478481E+02  0.51100000000E-03 0. -1.
        -11    1    3    3    0    0  0.73448342831E-01 -0.11494043046E+02 -0.13605432816E+02  0.17810845645E+02  0.51100000000E-03 0.  1.
        -12    1    3    3    0    0  0.59124404049E+01  0.86481061048E+01  0.39205543907E+01  0.11185590618E+02  0.00000000000E+00 0.  1.
</event>
<event>
 7    1  0.7755875E-012  0.5930197E+02  0.7816164E-02  0.1266605E+00
        -11   -1    0    0    0    0  0.00000000000E+00  0.00000000000E+00  0.45593999997E+02  0.45594000000E+02  0.51100000000E-03 0.  1.
         11   -1    0    0    0    0 -0.00000000000E+00 -0.00000000000E+00 -0.45593999997E+02  0.45594000000E+02  0.51100000000E-03 0. -1.
    9900012    2    1    2    0    0 -0.23438331614E+02  0.17391437840E+02  0.12841400881E+02  0.59301967390E+02  0.50000042608E+02 0.  0.
         12    1    1    2    0    0  0.23438331614E+02 -0.17391437840E+02 -0.12841400881E+02  0.31886032610E+02  0.00000000000E+00 0. -1.
         11    1    3    3    0    0  0.44906867974E+01 -0.66599075717E+00 -0.48032775605E+01  0.66091820361E+01  0.51100000000E-03 0. -1.
        -11    1    3    3    0    0 -0.77985878192E+01  0.26579979928E+02  0.82825892337E+01  0.28912187562E+02  0.51100000000E-03 0.  1.
        -12    1    3    3    0    0 -0.20130430592E+02 -0.85225513309E+01  0.93620892078E+01  0.23780597792E+02  0.00000000000E+00 0.  1.
</event>
<event>
 7    1  0.7755875E-012  0.5930195E+02  0.7816164E-02  0.1266605E+00
        -11   -1    0    0    0    0  0.00000000000E+00  0.00000000000E+00  0.45593999997E+02  0.45594000000E+02  0.51100000000E-03 0.  1.
         11   -1    0    0    0    0 -0.00000000000E+00 -0.00000000000E+00 -0.45593999997E+02  0.45594000000E+02  0.51100000000E-03 0. -1.
    9900012    2    1    2    0    0 -0.23375049469E+02 -0.75688252708E+00  0.21673815760E+02  0.59301951351E+02  0.50000013357E+02 0.  0.
         12    1    1    2    0    0  0.23375049469E+02  0.75688252708E+00 -0.21673815760E+02  0.31886048649E+02  0.00000000000E+00 0. -1.
         11    1    3    3    0    0 -0.47531207332E+00  0.32127233401E+01 -0.89038495434E+01  0.94776605647E+01  0.51100000000E-03 0. -1.
        -11    1    3    3    0    0 -0.30923608526E+02 -0.33950371759E+01  0.26160891016E+02  0.40647116265E+02  0.51100000000E-03 0.  1.
         12    1    3    3    0    0  0.80238711301E+01 -0.57456869126E+00  0.44167742876E+01  0.91771745216E+01  0.00000000000E+00 0. -1.
</event>
<event>
 7    1  0.7755875E-012  0.5930196E+02  0.7816164E-02  0.1266605E+00
        -11   -1    0    0    0    0  0.00000000000E+00  0.00000000000E+00  0.45593999997E+02  0.45594000000E+02  0.51100000000E-03 0.  1.
         11   -1    0    0    0    0 -0.00000000000E+00 -0.00000000000E+00 -0.45593999997E+02  0.45594000000E+02  0.51100000000E-03 0. -1.
    9900012    2    1    2    0    0  0.22023173822E+02 -0.79083300604E+01  0.21660052036E+02  0.59301957227E+02  0.50000024072E+02 0.  0.
         12    1    1    2    0    0 -0.22023173822E+02  0.79083300604E+01 -0.21660052036E+02  0.31886042773E+02  0.00000000000E+00 0. -1.
         11    1    3    3    0    0  0.87789842244E+01  0.34251928933E+01 -0.98285965388E+01  0.13616307155E+02  0.51100000000E-03 0. -1.
        -11    1    3    3    0    0  0.14430257961E+02 -0.67596325699E+01  0.35864686378E+02  0.39245390895E+02  0.51100000000E-03 0.  1.
         12    1    3    3    0    0 -0.11860683634E+01 -0.45738903838E+01 -0.43760378025E+01  0.64402591760E+01  0.00000000000E+00 0. -1.
</event>
<event>
 7    1  0.7755875E-012  0.5930196E+02  0.7816164E-02  0.1266605E+00
        -11   -1    0    0    0    0  0.00000000000E+00  0.00000000000E+00  0.45593999997E+02  0.45594000000E+02  0.51100000000E-03 0.  1.
         11   -1    0    0    0    0 -0.00000000000E+00 -0.00000000000E+00 -0.45593999997E+02  0.45594000000E+02  0.51100000000E-03 0. -1.
    9900012    2    1    2    0    0  0.21995253259E+02  0.18476032799E+02  0.13840676615E+02  0.59301964137E+02  0.50000036675E+02 0.  0.
         12    1    1    2    0    0 -0.21995253259E+02 -0.18476032799E+02 -0.13840676615E+02  0.31886035863E+02  0.00000000000E+00 0. -1.
         11    1    3    3    0    0  0.13350491565E+02 -0.88455060508E+01 -0.12313866263E+02  0.20201730246E+02  0.51100000000E-03 0. -1.
        -11    1    3    3    0    0  0.13994040149E+01  0.11180469118E+02  0.85811083279E+01  0.14163214384E+02  0.51100000000E-03 0.  1.
         12    1    3    3    0    0  0.72453576782E+01  0.16141069731E+02  0.17573434551E+02  0.24937019507E+02  0.00000000000E+00 0. -1.
</event>
<event>
 7    1  0.7755875E-012  0.5930193E+02  0.7816164E-02  0.1266605E+00
        -11   -1    0    0    0    0  0.00000000000E+00  0.00000000000E+00  0.45593999997E+02  0.45594000000E+02  0.51100000000E-03 0. -1.
         11   -1    0    0    0    0 -0.00000000000E+00 -0.00000000000E+00 -0.45593999997E+02  0.45594000000E+02  0.51100000000E-03 0.  1.
    9900012    2    1    2    0    0  0.83188680105E+01 -0.13521611644E+02 -0.27652918427E+02  0.59301930252E+02  0.49999974877E+02 0.  0.
         12    1    1    2    0    0 -0.83188680105E+01  0.13521611644E+02  0.27652918427E+02  0.31886069748E+02  0.00000000000E+00 0. -1.
         11    1    3    3    0    0  0.20482007887E+01 -0.26330043650E+00  0.55754950462E+01  0.59456369602E+01  0.51100000000E-03 0. -1.
        -11    1    3    3    0    0  0.13800116270E+02 -0.23831835779E+00 -0.35552286300E+02  0.38137449654E+02  0.51100000000E-03 0.  1.
        -12    1    3    3    0    0 -0.75294490482E+01 -0.13019992849E+02  0.23238728267E+01  0.15218843638E+02  0.00000000000E+00 0.  1.
</event>
<event>
 7    1  0.7755875E-012  0.5930204E+02  0.7816164E-02  0.1266604E+00
        -11   -1    0    0    0    0  0.00000000000E+00  0.00000000000E+00  0.45593999997E+02  0.45594000000E+02  0.51100000000E-03 0.  1.
         11   -1    0    0    0    0 -0.00000000000E+00 -0.00000000000E+00 -0.45593999997E+02  0.45594000000E+02  0.51100000000E-03 0. -1.
    9900012    2    1    2    0    0  0.12645868884E+02  0.23955565924E+01  0.29172893875E+02  0.59302040264E+02  0.50000175512E+02 0.  0.
         12    1    1    2    0    0 -0.12645868884E+02 -0.23955565924E+01 -0.29172893875E+02  0.31885959736E+02  0.00000000000E+00 0. -1.
         11    1    3    3    0    0 -0.23494699608E+00 -0.86378822851E+01  0.61692245307E+01  0.10617322734E+02  0.51100000000E-03 0. -1.
        -11    1    3    3    0    0  0.17287199438E+02  0.21473959778E+02  0.24955685675E+02  0.37185541017E+02  0.51100000000E-03 0.  1.
        -12    1    3    3    0    0 -0.44063835574E+01 -0.10440520901E+02 -0.19520163311E+01  0.11499176514E+02  0.00000000000E+00 0.  1.
</event>
<event>
 7    1  0.7755875E-012  0.5930194E+02  0.7816164E-02  0.1266605E+00
        -11   -1    0    0    0    0  0.00000000000E+00  0.00000000000E+00  0.45593999997E+02  0.45594000000E+02  0.51100000000E-03 0. -1.
         11   -1    0    0    0    0 -0.00000000000E+00 -0.00000000000E+00 -0.45593999997E+02  0.45594000000E+02  0.51100000000E-03 0.  1.
    9900012    2    1    2    0    0  0.14431384901E+02  0.11461243583E+02 -0.26021069015E+02  0.59301937099E+02  0.49999987364E+02 0.  0.
         12    1    1    2    0    0 -0.14431384901E+02 -0.11461243583E+02  0.26021069015E+02  0.31886062901E+02  0.00000000000E+00 0. -1.
         11    1    3    3    0    0 -0.84042118386E+01 -0.74396431546E+01  0.15321766068E+01  0.11328134547E+02  0.51100000000E-03 0.  1.
        -11    1    3    3    0    0  0.18061121472E+02  0.25425186545E+02 -0.21810917604E+02  0.38057329736E+02  0.51100000000E-03 0. -1.
        -12    1    3    3    0    0  0.47744752677E+01 -0.65242998069E+01 -0.57423280184E+01  0.99164728166E+01  0.00000000000E+00 0.  1.
</event>
<event>
 7    1  0.7755875E-012  0.5930194E+02  0.7816164E-02  0.1266605E+00
        -11   -1    0    0    0    0  0.00000000000E+00  0.00000000000E+00  0.45593999997E+02  0.45594000000E+02  0.51100000000E-03 0.  1.
         11   -1    0    0    0    0 -0.00000000000E+00 -0.00000000000E+00 -0.45593999997E+02  0.45594000000E+02  0.51100000000E-03 0. -1.
    9900012    2    1    2    0    0  0.35754920624E+01  0.15889119140E+02  0.27413004577E+02  0.59301936109E+02  0.49999985558E+02 0.  0.
         12    1    1    2    0    0 -0.35754920624E+01 -0.15889119140E+02 -0.27413004577E+02  0.31886063891E+02  0.00000000000E+00 0. -1.
         11    1    3    3    0    0  0.22504128139E+02  0.38829774307E+01  0.88316609584E+00  0.22853736667E+02  0.51100000000E-03 0. -1.
        -11    1    3    3    0    0 -0.18484386164E+02  0.88256296424E+01  0.26145754956E+02  0.33213924384E+02  0.51100000000E-03 0.  1.
         12    1    3    3    0    0 -0.44424991257E+00  0.31805120673E+01  0.38408352471E+00  0.32342750577E+01  0.00000000000E+00 0. -1.
</event>
<event>
 7    1  0.7755875E-012  0.5930195E+02  0.7816164E-02  0.1266605E+00
        -11   -1    0    0    0    0  0.00000000000E+00  0.00000000000E+00  0.45593999997E+02  0.45594000000E+02  0.51100000000E-03 0.  1.
         11   -1    0    0    0    0 -0.00000000000E+00 -0.00000000000E+00 -0.45593999997E+02  0.45594000000E+02  0.51100000000E-03 0. -1.
    9900012    2    1    2    0    0 -0.69528296428E+01 -0.11810558732E+02  0.28790437484E+02  0.59301946182E+02  0.50000003928E+02 0.  0.
         12    1    1    2    0    0  0.69528296428E+01  0.11810558732E+02 -0.28790437484E+02  0.31886053818E+02  0.00000000000E+00 0. -1.
         11    1    3    3    0    0 -0.16463661494E+02  0.11528761845E+02  0.24520652893E+02  0.31705313719E+02  0.51100000000E-03 0. -1.
        -11    1    3    3    0    0  0.67438273541E+01 -0.21309920631E+02  0.67661449794E+01  0.23353214828E+02  0.51100000000E-03 0.  1.
        -12    1    3    3    0    0  0.27670044968E+01 -0.20293999463E+01 -0.24963603888E+01  0.42434176342E+01  0.00000000000E+00 0.  1.
</event>
<event>
 7    1  0.7755875E-012  0.5930196E+02  0.7816164E-02  0.1266605E+00
        -11   -1    0    0    0    0  0.00000000000E+00  0.00000000000E+00  0.45593999997E+02  0.45594000000E+02  0.51100000000E-03 0. -1.
         11   -1    0    0    0    0 -0.00000000000E+00 -0.00000000000E+00 -0.45593999997E+02  0.45594000000E+02  0.51100000000E-03 0.  1.
    9900012    2    1    2    0    0 -0.24178838557E+02  0.61091159430E+01 -0.19869128721E+02  0.59301955910E+02  0.50000021671E+02 0.  0.
         12    1    1    2    0    0  0.24178838557E+02 -0.61091159430E+01  0.19869128721E+02  0.31886044090E+02  0.00000000000E+00 0. -1.
         11    1    3    3    0    0  0.77490372465E+01  0.11273203792E+01  0.97594232650E+01  0.12512584554E+02  0.51100000000E-03 0. -1.
        -11    1    3    3    0    0 -0.18439161439E+02 -0.39535601383E+01 -0.21769635449E+02  0.28801915565E+02  0.51100000000E-03 0.  1.
         12    1    3    3    0    0 -0.13488714364E+02  0.89353557021E+01 -0.78589165368E+01  0.17987455792E+02  0.00000000000E+00 0. -1.
</event>
<event>
 7    1  0.7755875E-012  0.5930195E+02  0.7816164E-02  0.1266605E+00
        -11   -1    0    0    0    0  0.00000000000E+00  0.00000000000E+00  0.45593999997E+02  0.45594000000E+02  0.51100000000E-03 0.  1.
         11   -1    0    0    0    0 -0.00000000000E+00 -0.00000000000E+00 -0.45593999997E+02  0.45594000000E+02  0.51100000000E-03 0. -1.
    9900012    2    1    2    0    0 -0.74671205083E+01  0.16408520969E+02  0.26300618736E+02  0.59301952973E+02  0.50000016315E+02 0.  0.
         12    1    1    2    0    0  0.74671205083E+01 -0.16408520969E+02 -0.26300618736E+02  0.31886047027E+02  0.00000000000E+00 0. -1.
         11    1    3    3    0    0 -0.22654600167E+02 -0.91926219380E+00  0.19007024042E+02  0.29586194668E+02  0.51100000000E-03 0. -1.
        -11    1    3    3    0    0  0.10665166759E+02  0.96679049138E+01  0.12792750260E+02  0.19257949706E+02  0.51100000000E-03 0.  1.
        -12    1    3    3    0    0  0.45223129000E+01  0.76598782493E+01 -0.54991555665E+01  0.10457808600E+02  0.00000000000E+00 0.  1.
</event>
<event>
 7    1  0.7755875E-012  0.5930211E+02  0.7816164E-02  0.1266604E+00
        -11   -1    0    0    0    0  0.00000000000E+00  0.00000000000E+00  0.45593999997E+02  0.45594000000E+02  0.51100000000E-03 0.  1.
         11   -1    0    0    0    0 -0.00000000000E+00 -0.00000000000E+00 -0.45593999997E+02  0.45594000000E+02  0.51100000000E-03 0. -1.
    9900012    2    1    2    0    0  0.17153428489E+01  0.77271731607E+01  0.30887835694E+02  0.59302109703E+02  0.50000302152E+02 0.  0.
         12    1    1    2    0    0 -0.17153428489E+01 -0.77271731607E+01 -0.30887835694E+02  0.31885890297E+02  0.00000000000E+00 0. -1.
         11    1    3    3    0    0  0.22576817644E+02 -0.39321067903E+01  0.96605965620E+01  0.24869686064E+02  0.51100000000E-03 0. -1.
        -11    1    3    3    0    0 -0.14637386783E+01 -0.84984434067E+00  0.72585420697E+01  0.74532677102E+01  0.51100000000E-03 0.  1.
         12    1    3    3    0    0 -0.19397736117E+02  0.12509124292E+02  0.13968697062E+02  0.26979155929E+02  0.00000000000E+00 0. -1.
</event>
<event>
 7    1  0.7755875E-012  0.5930191E+02  0.7816164E-02  0.1266605E+00
        -11   -1    0    0    0    0  0.00000000000E+00  0.00000000000E+00  0.45593999997E+02  0.45594000000E+02  0.51100000000E-03 0.  1.
         11   -1    0    0    0    0 -0.00000000000E+00 -0.00000000000E+00 -0.45593999997E+02  0.45594000000E+02  0.51100000000E-03 0. -1.
    9900012    2    1    2    0    0  0.21504228887E+02  0.15754151584E+02  0.17495645725E+02  0.59301909436E+02  0.49999936913E+02 0.  0.
         12    1    1    2    0    0 -0.21504228887E+02 -0.15754151584E+02 -0.17495645725E+02  0.31886090564E+02  0.00000000000E+00 0. -1.
         11    1    3    3    0    0 -0.92155999075E+01  0.87457215570E+01 -0.48609175687E+01  0.13603067561E+02  0.51100000000E-03 0. -1.
        -11    1    3    3    0    0  0.19153721650E+02  0.15066364682E+02  0.19741169800E+02  0.31361986275E+02  0.51100000000E-03 0.  1.
        -12    1    3    3    0    0  0.11566107144E+02 -0.80579346544E+01  0.26153934935E+01  0.14336855600E+02  0.00000000000E+00 0.  1.
</event>
<event>
 7    1  0.7755875E-012  0.5930183E+02  0.7816164E-02  0.1266605E+00
        -11   -1    0    0    0    0  0.00000000000E+00  0.00000000000E+00  0.45593999997E+02  0.45594000000E+02  0.51100000000E-03 0.  1.
         11   -1    0    0    0    0 -0.00000000000E+00 -0.00000000000E+00 -0.45593999997E+02  0.45594000000E+02  0.51100000000E-03 0. -1.
    9900012    2    1    2    0    0  0.31410008255E+02  0.35170637401E+01  0.42153856321E+01  0.59301830083E+02  0.49999792193E+02 0.  0.
         12    1    1    2    0    0 -0.31410008255E+02 -0.35170637401E+01 -0.42153856321E+01  0.31886169917E+02  0.00000000000E+00 0. -1.
         11    1    3    3    0    0  0.37899229901E+00  0.13779992332E+02  0.75224178221E+01  0.15704094815E+02  0.51100000000E-03 0. -1.
        -11    1    3    3    0    0  0.90864360771E+01 -0.89105391379E+01 -0.14193854986E+02  0.19063749577E+02  0.51100000000E-03 0.  1.
        -12    1    3    3    0    0  0.21944579879E+02 -0.13523894536E+01  0.10886822796E+02  0.24533985691E+02  0.00000000000E+00 0.  1.
</event>
<event>
 7    1  0.7755875E-012  0.5930188E+02  0.7816164E-02  0.1266605E+00
        -11   -1    0    0    0    0  0.00000000000E+00  0.00000000000E+00  0.45593999997E+02  0.45594000000E+02  0.51100000000E-03 0.  1.
         11   -1    0    0    0    0 -0.00000000000E+00 -0.00000000000E+00 -0.45593999997E+02  0.45594000000E+02  0.51100000000E-03 0. -1.
    9900012    2    1    2    0    0 -0.58724307883E+01 -0.14932276705E+02  0.27554787718E+02  0.59301879867E+02  0.49999882986E+02 0.  0.
         12    1    1    2    0    0  0.58724307883E+01  0.14932276705E+02 -0.27554787718E+02  0.31886120133E+02  0.00000000000E+00 0. -1.
         11    1    3    3    0    0  0.11867464952E+02  0.11839509262E+01  0.15856006511E+02  0.19840650365E+02  0.51100000000E-03 0. -1.
        -11    1    3    3    0    0 -0.18237590911E+02 -0.18075195654E+02 -0.18676054728E+01  0.25745103818E+02  0.51100000000E-03 0.  1.
        -12    1    3    3    0    0  0.49769517072E+00  0.19589680231E+01  0.13566386680E+02  0.13716125683E+02  0.00000000000E+00 0.  1.
</event>
<event>
 7    1  0.7755875E-012  0.5930191E+02  0.7816164E-02  0.1266605E+00
        -11   -1    0    0    0    0  0.00000000000E+00  0.00000000000E+00  0.45593999997E+02  0.45594000000E+02  0.51100000000E-03 0. -1.
         11   -1    0    0    0    0 -0.00000000000E+00 -0.00000000000E+00 -0.45593999997E+02  0.45594000000E+02  0.51100000000E-03 0.  1.
    9900012    2    1    2    0    0 -0.19820945161E+02  0.15010402838E+02 -0.19963480322E+02  0.59301912015E+02  0.49999941616E+02 0.  0.
         12    1    1    2    0    0  0.19820945161E+02 -0.15010402838E+02  0.19963480322E+02  0.31886087985E+02  0.00000000000E+00 0. -1.
         11    1    3    3    0    0 -0.72673724565E+01  0.21267547027E+02 -0.16062977853E+02  0.27625034240E+02  0.51100000000E-03 0. -1.
        -11    1    3    3    0    0 -0.20330015202E+02 -0.89874455079E+01 -0.62806222091E+01  0.23098266395E+02  0.51100000000E-03 0.  1.
         12    1    3    3    0    0  0.77764424981E+01  0.27303013190E+01  0.23801197407E+01  0.85786113794E+01  0.00000000000E+00 0. -1.
</event>
<event>
 7    1  0.7755875E-012  0.5930196E+02  0.7816164E-02  0.1266605E+00
        -11   -1    0    0    0    0  0.00000000000E+00  0.00000000000E+00  0.45593999997E+02  0.45594000000E+02  0.51100000000E-03 0. -1.
         11   -1    0    0    0    0 -0.00000000000E+00 -0.00000000000E+00 -0.45593999997E+02  0.45594000000E+02  0.51100000000E-03 0.  1.
    9900012    2    1    2    0    0 -0.24725666356E+02  0.17241196210E+02 -0.10397209669E+02  0.59301962422E+02  0.50000033547E+02 0.  0.
         12    1    1    2    0    0  0.24725666356E+02 -0.17241196210E+02  0.10397209669E+02  0.31886037578E+02  0.00000000000E+00 0. -1.
         11    1    3    3    0    0  0.16463762769E+01  0.10219898647E+02  0.13356827290E+02  0.16898571499E+02  0.51100000000E-03 0. -1.
        -11    1    3    3    0    0 -0.33158535699E+01 -0.29456501986E+01 -0.15254238168E+02  0.15885953617E+02  0.51100000000E-03 0.  1.
         12    1    3    3    0    0 -0.23056189063E+02  0.99669477617E+01 -0.84997987915E+01  0.26517437306E+02  0.00000000000E+00 0. -1.
</event>
<event>
 7    1  0.7755875E-012  0.5930196E+02  0.7816164E-02  0.1266605E+00
        -11   -1    0    0    0    0  0.00000000000E+00  0.00000000000E+00  0.45593999997E+02  0.45594000000E+02  0.51100000000E-03 0.  1.
         11   -1    0    0    0    0 -0.00000000000E+00 -0.00000000000E+00 -0.45593999997E+02  0.45594000000E+02  0.51100000000E-03 0. -1.
    9900012    2    1    2    0    0  0.15184966289E+02  0.27902609926E+02 -0.27533154393E+01  0.59301959359E+02  0.50000027960E+02 0.  0.
         12    1    1    2    0    0 -0.15184966289E+02 -0.27902609926E+02  0.27533154393E+01  0.31886040641E+02  0.00000000000E+00 0. -1.
         11    1    3    3    0    0 -0.11663670236E+02 -0.49045700599E+01 -0.35379443644E+01  0.13138229007E+02  0.51100000000E-03 0.  1.
        -11    1    3    3    0    0  0.18346884591E+02  0.25505707211E+02  0.85114637322E+01  0.32551409949E+02  0.51100000000E-03 0. -1.
        -12    1    3    3    0    0  0.85017519338E+01  0.73014727746E+01 -0.77268348071E+01  0.13612320403E+02  0.00000000000E+00 0.  1.
</event>
<event>
 7    1  0.7755875E-012  0.5930194E+02  0.7816164E-02  0.1266605E+00
        -11   -1    0    0    0    0  0.00000000000E+00  0.00000000000E+00  0.45593999997E+02  0.45594000000E+02  0.51100000000E-03 0.  1.
         11   -1    0    0    0    0 -0.00000000000E+00 -0.00000000000E+00 -0.45593999997E+02  0.45594000000E+02  0.51100000000E-03 0. -1.
    9900012    2    1    2    0    0  0.28037033956E+01 -0.31481994566E+02  0.42123902207E+01  0.59301937748E+02  0.49999988547E+02 0.  0.
         12    1    1    2    0    0 -0.28037033956E+01  0.31481994566E+02 -0.42123902207E+01  0.31886062252E+02  0.00000000000E+00 0. -1.
         11    1    3    3    0    0  0.94719887184E+01 -0.19601714822E+02  0.79855021579E+01  0.23188661868E+02  0.51100000000E-03 0. -1.
        -11    1    3    3    0    0 -0.58843339607E+01  0.58640737428E+01  0.10456327298E+02  0.13354681870E+02  0.51100000000E-03 0.  1.
        -12    1    3    3    0    0 -0.78395136210E+00 -0.17744353486E+02 -0.14229439235E+02  0.22758594010E+02  0.00000000000E+00 0.  1.
</event>
<event>
 7    1  0.7755875E-012  0.5930225E+02  0.7816164E-02  0.1266604E+00
        -11   -1    0    0    0    0  0.00000000000E+00  0.00000000000E+00  0.45593999997E+02  0.45594000000E+02  0.51100000000E-03 0.  1.
         11   -1    0    0    0    0 -0.00000000000E+00 -0.00000000000E+00 -0.45593999997E+02  0.45594000000E+02  0.51100000000E-03 0. -1.
    9900012    2    1    2    0    0 -0.30570392614E+02 -0.71981082707E+01  0.55081153610E+01  0.59302250799E+02  0.50000559474E+02 0.  0.
         12    1    1    2    0    0  0.30570392614E+02  0.71981082707E+01 -0.55081153610E+01  0.31885749201E+02  0.00000000000E+00 0. -1.
         11    1    3    3    0    0 -0.94063513079E+00 -0.62089767032E+01 -0.36512610152E+01  0.72641512520E+01  0.51100000000E-03 0. -1.
        -11    1    3    3    0    0 -0.14953080615E+02  0.20226809621E+02  0.18346895584E+01  0.25220716353E+02  0.51100000000E-03 0.  1.
        -12    1    3    3    0    0 -0.14676676868E+02 -0.21215941188E+02  0.73246868178E+01  0.26817383194E+02  0.00000000000E+00 0.  1.
</event>
<event>
 7    1  0.7755875E-012  0.5930191E+02  0.7816164E-02  0.1266605E+00
        -11   -1    0    0    0    0  0.00000000000E+00  0.00000000000E+00  0.45593999997E+02  0.45594000000E+02  0.51100000000E-03 0.  1.
         11   -1    0    0    0    0 -0.00000000000E+00 -0.00000000000E+00 -0.45593999997E+02  0.45594000000E+02  0.51100000000E-03 0. -1.
    9900012    2    1    2    0    0 -0.23001848381E+02  0.21464234657E+02  0.51888382651E+01  0.59301914620E+02  0.49999946367E+02 0.  0.
         12    1    1    2    0    0  0.23001848381E+02 -0.21464234657E+02 -0.51888382651E+01  0.31886085380E+02  0.00000000000E+00 0. -1.
         11    1    3    3    0    0  0.11787197735E+02 -0.44078543053E+01  0.22908659476E+01  0.12791218748E+02  0.51100000000E-03 0. -1.
        -11    1    3    3    0    0 -0.21083014770E+02  0.71933225729E+01  0.61646223652E+01  0.23113631705E+02  0.51100000000E-03 0.  1.
         12    1    3    3    0    0 -0.13706031345E+02  0.18678766389E+02 -0.32666500476E+01  0.23397064166E+02  0.00000000000E+00 0. -1.
</event>
<event>
 7    1  0.7755875E-012  0.5930194E+02  0.7816164E-02  0.1266605E+00
        -11   -1    0    0    0    0  0.00000000000E+00  0.00000000000E+00  0.45593999997E+02  0.45594000000E+02  0.51100000000E-03 0.  1.
         11   -1    0    0    0    0 -0.00000000000E+00 -0.00000000000E+00 -0.45593999997E+02  0.45594000000E+02  0.51100000000E-03 0. -1.
    9900012    2    1    2    0    0 -0.21972480320E+02  0.15887337370E+02  0.16778655127E+02  0.59301942734E+02  0.49999997640E+02 0.  0.
         12    1    1    2    0    0  0.21972480320E+02 -0.15887337370E+02 -0.16778655127E+02  0.31886057266E+02  0.00000000000E+00 0. -1.
         11    1    3    3    0    0 -0.18327221691E+02  0.22329050671E+02  0.10045975455E+02  0.30584230935E+02  0.51100000000E-03 0.  1.
        -11    1    3    3    0    0 -0.53305807146E+01 -0.93554814215E+01  0.15757810369E+02  0.19085300922E+02  0.51100000000E-03 0. -1.
         12    1    3    3    0    0  0.16853220862E+01  0.29137681209E+01 -0.90251306974E+01  0.96324108769E+01  0.00000000000E+00 0. -1.
</event>
<event>
 7    1  0.7755875E-012  0.5930190E+02  0.7816164E-02  0.1266605E+00
        -11   -1    0    0    0    0  0.00000000000E+00  0.00000000000E+00  0.45593999997E+02  0.45594000000E+02  0.51100000000E-03 0.  1.
         11   -1    0    0    0    0 -0.00000000000E+00 -0.00000000000E+00 -0.45593999997E+02  0.45594000000E+02  0.51100000000E-03 0. -1.
    9900012    2    1    2    0    0  0.16944963359E+01  0.11612188928E+02  0.29648092008E+02  0.59301896299E+02  0.49999912954E+02 0.  0.
         12    1    1    2    0    0 -0.16944963359E+01 -0.11612188928E+02 -0.29648092008E+02  0.31886103701E+02  0.00000000000E+00 0. -1.
         11    1    3    3    0    0  0.39819699678E+01 -0.10056431052E+02  0.24751731948E+02  0.27011777525E+02  0.51100000000E-03 0. -1.
        -11    1    3    3    0    0 -0.12434329469E+02  0.81432204895E+01  0.75923829495E+00  0.14882910748E+02  0.51100000000E-03 0.  1.
        -12    1    3    3    0    0  0.10146855837E+02  0.13525399491E+02  0.41371217647E+01  0.17407208026E+02  0.00000000000E+00 0.  1.
</event>
<event>
 7    1  0.7755875E-012  0.5930197E+02  0.7816164E-02  0.1266605E+00
        -11   -1    0    0    0    0  0.00000000000E+00  0.00000000000E+00  0.45593999997E+02  0.45594000000E+02  0.51100000000E-03 0.  1.
         11   -1    0    0    0    0 -0.00000000000E+00 -0.00000000000E+00 -0.45593999997E+02  0.45594000000E+02  0.51100000000E-03 0. -1.
    9900012    2    1    2    0    0  0.30585136389E+02  0.87160429321E+01  0.23019868217E+01  0.59301966762E+02  0.50000041462E+02 0.  0.
         12    1    1    2    0    0 -0.30585136389E+02 -0.87160429321E+01 -0.23019868217E+01  0.31886033238E+02  0.00000000000E+00 0. -1.
         11    1    3    3    0    0  0.18706914764E+02  0.22403773548E+02  0.49102051490E+01  0.29597091817E+02  0.51100000000E-03 0. -1.
        -11    1    3    3    0    0  0.18477518767E+02 -0.81627552165E+01 -0.49246387400E+01  0.20791857528E+02  0.51100000000E-03 0.  1.
         12    1    3    3    0    0 -0.65992971416E+01 -0.55249753998E+01  0.23164204128E+01  0.89130174162E+01  0.00000000000E+00 0. -1.
</event>
<event>
 7    1  0.7755875E-012  0.5930193E+02  0.7816164E-02  0.1266605E+00
        -11   -1    0    0    0    0  0.00000000000E+00  0.00000000000E+00  0.45593999997E+02  0.45594000000E+02  0.51100000000E-03 0.  1.
         11   -1    0    0    0    0 -0.00000000000E+00 -0.00000000000E+00 -0.45593999997E+02  0.45594000000E+02  0.51100000000E-03 0. -1.
    9900012    2    1    2    0    0  0.17031897683E+02  0.22521960335E+02 -0.14812067804E+02  0.59301927983E+02  0.49999970738E+02 0.  0.
         12    1    1    2    0    0 -0.17031897683E+02 -0.22521960335E+02  0.14812067804E+02  0.31886072017E+02  0.00000000000E+00 0. -1.
         11    1    3    3    0    0 -0.15082770803E+01 -0.92204050740E+00  0.13828434524E+02  0.13940970558E+02  0.51100000000E-03 0. -1.
        -11    1    3    3    0    0  0.17347286964E+02  0.12083816460E+02 -0.97400337523E+01  0.23276925120E+02  0.51100000000E-03 0.  1.
         12    1    3    3    0    0  0.11928877990E+01  0.11360184383E+02 -0.18900468576E+02  0.22084032306E+02  0.00000000000E+00 0. -1.
</event>
<event>
 7    1  0.7755875E-012  0.5930195E+02  0.7816164E-02  0.1266605E+00
        -11   -1    0    0    0    0  0.00000000000E+00  0.00000000000E+00  0.45593999997E+02  0.45594000000E+02  0.51100000000E-03 0.  1.
         11   -1    0    0    0    0 -0.00000000000E+00 -0.00000000000E+00 -0.45593999997E+02  0.45594000000E+02  0.51100000000E-03 0. -1.
    9900012    2    1    2    0    0  0.25805074055E+02 -0.18140677404E+02 -0.46620016228E+01  0.59301948460E+02  0.50000008084E+02 0.  0.
         12    1    1    2    0    0 -0.25805074055E+02  0.18140677404E+02  0.46620016228E+01  0.31886051540E+02  0.00000000000E+00 0. -1.
         11    1    3    3    0    0  0.75799688889E+01  0.10678360991E+02 -0.75638927092E+01  0.15122691393E+02  0.51100000000E-03 0. -1.
        -11    1    3    3    0    0  0.14485533097E+02 -0.32850884269E+02  0.78847453926E+01  0.36758406883E+02  0.51100000000E-03 0.  1.
        -12    1    3    3    0    0  0.37395720696E+01  0.40318458747E+01 -0.49828543062E+01  0.74208501843E+01  0.00000000000E+00 0.  1.
</event>
<event>
 7    1  0.7755875E-012  0.5930212E+02  0.7816164E-02  0.1266604E+00
        -11   -1    0    0    0    0  0.00000000000E+00  0.00000000000E+00  0.45593999997E+02  0.45594000000E+02  0.51100000000E-03 0. -1.
         11   -1    0    0    0    0 -0.00000000000E+00 -0.00000000000E+00 -0.45593999997E+02  0.45594000000E+02  0.51100000000E-03 0.  1.
    9900012    2    1    2    0    0  0.56152290597E+01  0.90688736292E+01 -0.30048865950E+02  0.59302115801E+02  0.50000313272E+02 0.  0.
         12    1    1    2    0    0 -0.56152290597E+01 -0.90688736292E+01  0.30048865950E+02  0.31885884199E+02  0.00000000000E+00 0. -1.
         11    1    3    3    0    0 -0.18887388588E+02  0.71775873296E+00 -0.18317156837E+02  0.26320464664E+02  0.51100000000E-03 0. -1.
        -11    1    3    3    0    0  0.20480870836E+02  0.17848610625E+01 -0.21222256350E+01  0.20667743978E+02  0.51100000000E-03 0.  1.
         12    1    3    3    0    0  0.40217468109E+01  0.65662538337E+01 -0.96094834779E+01  0.12313907159E+02  0.00000000000E+00 0. -1.
</event>
<event>
 7    1  0.7755875E-012  0.5930192E+02  0.7816164E-02  0.1266605E+00
        -11   -1    0    0    0    0  0.00000000000E+00  0.00000000000E+00  0.45593999997E+02  0.45594000000E+02  0.51100000000E-03 0.  1.
         11   -1    0    0    0    0 -0.00000000000E+00 -0.00000000000E+00 -0.45593999997E+02  0.45594000000E+02  0.51100000000E-03 0. -1.
    9900012    2    1    2    0    0  0.31431575987E+02  0.20986379861E+01  0.49369862537E+01  0.59301920220E+02  0.49999956581E+02 0.  0.
         12    1    1    2    0    0 -0.31431575987E+02 -0.20986379861E+01 -0.49369862537E+01  0.31886079780E+02  0.00000000000E+00 0. -1.
         11    1    3    3    0    0  0.32457271264E+01  0.10282027454E+01 -0.55664558046E+01  0.65251341710E+01  0.51100000000E-03 0. -1.
        -11    1    3    3    0    0  0.16016169218E+02  0.20896436463E+02  0.13031305284E+02  0.29376753580E+02  0.51100000000E-03 0.  1.
        -12    1    3    3    0    0  0.12169679643E+02 -0.19826001222E+02 -0.25278632252E+01  0.23400032469E+02  0.00000000000E+00 0.  1.
</event>
<event>
 7    1  0.7755875E-012  0.5930196E+02  0.7816164E-02  0.1266605E+00
        -11   -1    0    0    0    0  0.00000000000E+00  0.00000000000E+00  0.45593999997E+02  0.45594000000E+02  0.51100000000E-03 0.  1.
         11   -1    0    0    0    0 -0.00000000000E+00 -0.00000000000E+00 -0.45593999997E+02  0.45594000000E+02  0.51100000000E-03 0. -1.
    9900012    2    1    2    0    0 -0.15194201424E+02 -0.26144512344E+02 -0.10115347077E+02  0.59301960278E+02  0.50000029637E+02 0.  0.
         12    1    1    2    0    0  0.15194201424E+02  0.26144512344E+02  0.10115347077E+02  0.31886039722E+02  0.00000000000E+00 0. -1.
         11    1    3    3    0    0 -0.43695480357E+01  0.27211962207E+00 -0.12419120185E+02  0.13168202062E+02  0.51100000000E-03 0. -1.
        -11    1    3    3    0    0 -0.21804397086E+01 -0.27974967370E+02  0.14118634308E+02  0.31411605366E+02  0.51100000000E-03 0.  1.
        -12    1    3    3    0    0 -0.86442136799E+01  0.15583354037E+01 -0.11814861200E+02  0.14722152850E+02  0.00000000000E+00 0.  1.
</event>
<event>
 7    1  0.7755875E-012  0.5930190E+02  0.7816164E-02  0.1266605E+00
        -11   -1    0    0    0    0  0.00000000000E+00  0.00000000000E+00  0.45593999997E+02  0.45594000000E+02  0.51100000000E-03 0.  1.
         11   -1    0    0    0    0 -0.00000000000E+00 -0.00000000000E+00 -0.45593999997E+02  0.45594000000E+02  0.51100000000E-03 0. -1.
    9900012    2    1    2    0    0 -0.45327127357E+01 -0.29070902375E+02 -0.12290665637E+02  0.59301900969E+02  0.49999921471E+02 0.  0.
         12    1    1    2    0    0  0.45327127357E+01  0.29070902375E+02  0.12290665637E+02  0.31886099031E+02  0.00000000000E+00 0. -1.
         11    1    3    3    0    0 -0.19058791529E+01  0.10279098438E+02 -0.71166541769E+01  0.12646699450E+02  0.51100000000E-03 0. -1.
        -11    1    3    3    0    0  0.82898262286E+01 -0.24698566867E+02 -0.97539520190E+01  0.27818698827E+02  0.51100000000E-03 0.  1.
         12    1    3    3    0    0 -0.10916659811E+02 -0.14651433947E+02  0.45799405590E+01  0.18836502692E+02  0.00000000000E+00 0. -1.
</event>
<event>
 7    1  0.7755875E-012  0.5930194E+02  0.7816164E-02  0.1266605E+00
        -11   -1    0    0    0    0  0.00000000000E+00  0.00000000000E+00  0.45593999997E+02  0.45594000000E+02  0.51100000000E-03 0.  1.
         11   -1    0    0    0    0 -0.00000000000E+00 -0.00000000000E+00 -0.45593999997E+02  0.45594000000E+02  0.51100000000E-03 0. -1.
    9900012    2    1    2    0    0  0.16112725020E+02 -0.11773993815E+02  0.24869135825E+02  0.59301941062E+02  0.49999994592E+02 0.  0.
         12    1    1    2    0    0 -0.16112725020E+02  0.11773993815E+02 -0.24869135825E+02  0.31886058938E+02  0.00000000000E+00 0. -1.
         11    1    3    3    0    0 -0.12183271104E+02 -0.16217522237E+02  0.87374208217E+01  0.22085801891E+02  0.51100000000E-03 0. -1.
        -11    1    3    3    0    0  0.96148643874E+01 -0.61818517637E+01  0.23041663395E+01  0.11660621390E+02  0.51100000000E-03 0.  1.
         12    1    3    3    0    0  0.18681131736E+02  0.10625380186E+02  0.13827548663E+02  0.25555517782E+02  0.00000000000E+00 0. -1.
</event>
<event>
 7    1  0.7755875E-012  0.5930188E+02  0.7816164E-02  0.1266605E+00
        -11   -1    0    0    0    0  0.00000000000E+00  0.00000000000E+00  0.45593999997E+02  0.45594000000E+02  0.51100000000E-03 0.  1.
         11   -1    0    0    0    0 -0.00000000000E+00 -0.00000000000E+00 -0.45593999997E+02  0.45594000000E+02  0.51100000000E-03 0. -1.
    9900012    2    1    2    0    0 -0.13117902021E+02 -0.21319026250E+02  0.19752079797E+02  0.59301876215E+02  0.49999876326E+02 0.  0.
         12    1    1    2    0    0  0.13117902021E+02  0.21319026250E+02 -0.19752079797E+02  0.31886123785E+02  0.00000000000E+00 0. -1.
         11    1    3    3    0    0 -0.14285386107E+02 -0.69184204879E+01 -0.33424988225E+01  0.16220637993E+02  0.51100000000E-03 0.  1.
        -11    1    3    3    0    0  0.14760608846E+02 -0.17013996508E+02  0.14114414041E+02  0.26581353138E+02  0.51100000000E-03 0. -1.
        -12    1    3    3    0    0 -0.13593124759E+02  0.26133907457E+01  0.89801645791E+01  0.16499885084E+02  0.00000000000E+00 0.  1.
</event>
<event>
 7    1  0.7755875E-012  0.5930194E+02  0.7816164E-02  0.1266605E+00
        -11   -1    0    0    0    0  0.00000000000E+00  0.00000000000E+00  0.45593999997E+02  0.45594000000E+02  0.51100000000E-03 0. -1.
         11   -1    0    0    0    0 -0.00000000000E+00 -0.00000000000E+00 -0.45593999997E+02  0.45594000000E+02  0.51100000000E-03 0.  1.
    9900012    2    1    2    0    0  0.29811809170E+02  0.91760577806E+01 -0.66164199735E+01  0.59301936969E+02  0.49999987126E+02 0.  0.
         12    1    1    2    0    0 -0.29811809170E+02 -0.91760577806E+01  0.66164199735E+01  0.31886063031E+02  0.00000000000E+00 0. -1.
         11    1    3    3    0    0 -0.19748903963E+01  0.31141440917E+01  0.14838659372E+00  0.36905425541E+01  0.51100000000E-03 0. -1.
        -11    1    3    3    0    0  0.36525943272E+02  0.24429689000E+01  0.98910917351E+01  0.37920262723E+02  0.51100000000E-03 0.  1.
        -12    1    3    3    0    0 -0.47392437061E+01  0.36189447889E+01 -0.16655898302E+02  0.17691131692E+02  0.00000000000E+00 0.  1.
</event>
<event>
 7    1  0.7755875E-012  0.5930198E+02  0.7816164E-02  0.1266605E+00
        -11   -1    0    0    0    0  0.00000000000E+00  0.00000000000E+00  0.45593999997E+02  0.45594000000E+02  0.51100000000E-03 0.  1.
         11   -1    0    0    0    0 -0.00000000000E+00 -0.00000000000E+00 -0.45593999997E+02  0.45594000000E+02  0.51100000000E-03 0. -1.
    9900012    2    1    2    0    0 -0.32858735783E+00 -0.69534292412E+01  0.31116881016E+02  0.59301977482E+02  0.50000061013E+02 0.  0.
         12    1    1    2    0    0  0.32858735783E+00  0.69534292412E+01 -0.31116881016E+02  0.31886022518E+02  0.00000000000E+00 0. -1.
         11    1    3    3    0    0 -0.28719902622E+00 -0.16058476042E+02  0.26621539631E+02  0.31091212724E+02  0.51100000000E-03 0. -1.
        -11    1    3    3    0    0  0.95529975654E+01 -0.41480469335E+01  0.55763998045E+01  0.11813648500E+02  0.51100000000E-03 0.  1.
         12    1    3    3    0    0 -0.95943858970E+01  0.13253093734E+02 -0.10810584200E+01  0.16397116258E+02  0.00000000000E+00 0. -1.
</event>
<event>
 7    1  0.7755875E-012  0.5930200E+02  0.7816164E-02  0.1266605E+00
        -11   -1    0    0    0    0  0.00000000000E+00  0.00000000000E+00  0.45593999997E+02  0.45594000000E+02  0.51100000000E-03 0.  1.
         11   -1    0    0    0    0 -0.00000000000E+00 -0.00000000000E+00 -0.45593999997E+02  0.45594000000E+02  0.51100000000E-03 0. -1.
    9900012    2    1    2    0    0  0.12726283331E+02 -0.56424013286E+01  0.28686613906E+02  0.59302003112E+02  0.50000107755E+02 0.  0.
         12    1    1    2    0    0 -0.12726283331E+02  0.56424013286E+01 -0.28686613906E+02  0.31885996888E+02  0.00000000000E+00 0. -1.
         11    1    3    3    0    0 -0.22054037346E+01 -0.19320344911E+01  0.31850762789E-01  0.29321626216E+01  0.51100000000E-03 0. -1.
        -11    1    3    3    0    0  0.27975887306E+02  0.97994674822E+01  0.19467584748E+02  0.35463596683E+02  0.51100000000E-03 0.  1.
        -12    1    3    3    0    0 -0.13044200240E+02 -0.13509834320E+02  0.91871783951E+01  0.20906243807E+02  0.00000000000E+00 0.  1.
</event>
<event>
 7    1  0.7755875E-012  0.5930196E+02  0.7816164E-02  0.1266605E+00
        -11   -1    0    0    0    0  0.00000000000E+00  0.00000000000E+00  0.45593999997E+02  0.45594000000E+02  0.51100000000E-03 0. -1.
         11   -1    0    0    0    0 -0.00000000000E+00 -0.00000000000E+00 -0.45593999997E+02  0.45594000000E+02  0.51100000000E-03 0.  1.
    9900012    2    1    2    0    0  0.23826357244E+02 -0.16703525359E+02 -0.13039033932E+02  0.59301961287E+02  0.50000031476E+02 0.  0.
         12    1    1    2    0    0 -0.23826357244E+02  0.16703525359E+02  0.13039033932E+02  0.31886038713E+02  0.00000000000E+00 0. -1.
         11    1    3    3    0    0  0.11740803609E+01 -0.21713457375E+02  0.68021932716E+01  0.22784260564E+02  0.51100000000E-03 0. -1.
        -11    1    3    3    0    0 -0.20703015962E+01  0.33310021175E+01 -0.83048292039E+01  0.91843297073E+01  0.51100000000E-03 0.  1.
         12    1    3    3    0    0  0.24722578479E+02  0.16789298987E+01 -0.11536398000E+02  0.27333371016E+02  0.00000000000E+00 0. -1.
</event>
<event>
 7    1  0.7755875E-012  0.5930192E+02  0.7816164E-02  0.1266605E+00
        -11   -1    0    0    0    0  0.00000000000E+00  0.00000000000E+00  0.45593999997E+02  0.45594000000E+02  0.51100000000E-03 0. -1.
         11   -1    0    0    0    0 -0.00000000000E+00 -0.00000000000E+00 -0.45593999997E+02  0.45594000000E+02  0.51100000000E-03 0.  1.
    9900012    2    1    2    0    0 -0.54809495881E+01  0.61108972115E+01 -0.30811331690E+02  0.59301921006E+02  0.49999958013E+02 0.  0.
         12    1    1    2    0    0  0.54809495881E+01 -0.61108972115E+01  0.30811331690E+02  0.31886078994E+02  0.00000000000E+00 0. -1.
         11    1    3    3    0    0 -0.22067652803E+02  0.40655403184E+01 -0.20206312211E+02  0.30196108553E+02  0.51100000000E-03 0. -1.
        -11    1    3    3    0    0  0.14988459660E+02 -0.41712018711E+01 -0.14771461243E+02  0.21453412679E+02  0.51100000000E-03 0.  1.
         12    1    3    3    0    0  0.15982435549E+01  0.62165587642E+01  0.41664417638E+01  0.76523997740E+01  0.00000000000E+00 0. -1.
</event>
<event>
 7    1  0.7755875E-012  0.5930194E+02  0.7816164E-02  0.1266605E+00
        -11   -1    0    0    0    0  0.00000000000E+00  0.00000000000E+00  0.45593999997E+02  0.45594000000E+02  0.51100000000E-03 0.  1.
         11   -1    0    0    0    0 -0.00000000000E+00 -0.00000000000E+00 -0.45593999997E+02  0.45594000000E+02  0.51100000000E-03 0. -1.
    9900012    2    1    2    0    0 -0.14933066772E+02  0.19862771114E+02  0.19979850250E+02  0.59301943870E+02  0.49999999712E+02 0.  0.
         12    1    1    2    0    0  0.14933066772E+02 -0.19862771114E+02 -0.19979850250E+02  0.31886056130E+02  0.00000000000E+00 0. -1.
         11    1    3    3    0    0  0.75961398553E+01 -0.77896899401E+01  0.10724235665E+02  0.15277101850E+02  0.51100000000E-03 0. -1.
        -11    1    3    3    0    0 -0.26404959281E+02  0.25349142785E+02  0.12265811956E+02  0.38603769995E+02  0.51100000000E-03 0.  1.
        -12    1    3    3    0    0  0.38757526540E+01  0.23033182692E+01 -0.30101973719E+01  0.54210720252E+01  0.00000000000E+00 0.  1.
</event>
<event>
 7    1  0.7755875E-012  0.5930194E+02  0.7816164E-02  0.1266605E+00
        -11   -1    0    0    0    0  0.00000000000E+00  0.00000000000E+00  0.45593999997E+02  0.45594000000E+02  0.51100000000E-03 0. -1.
         11   -1    0    0    0    0 -0.00000000000E+00 -0.00000000000E+00 -0.45593999997E+02  0.45594000000E+02  0.51100000000E-03 0.  1.
    9900012    2    1    2    0    0 -0.12612683305E+02  0.10676709085E+02  0.27269921542E+02  0.59301944773E+02  0.50000001359E+02 0.  0.
         12    1    1    2    0    0  0.12612683305E+02 -0.10676709085E+02 -0.27269921542E+02  0.31886055227E+02  0.00000000000E+00 0. -1.
         11    1    3    3    0    0 -0.10833536337E+02  0.19976498536E+01 -0.92098451115E+01  0.14358877454E+02  0.51100000000E-03 0.  1.
        -11    1    3    3    0    0 -0.53177905733E+01  0.16401120882E+02  0.20022878869E+02  0.26423310565E+02  0.51100000000E-03 0. -1.
         12    1    3    3    0    0  0.35386436046E+01 -0.77220616498E+01  0.16456887784E+02  0.18519756754E+02  0.00000000000E+00 0. -1.
</event>
<event>
 7    1  0.7755875E-012  0.5930195E+02  0.7816164E-02  0.1266605E+00
        -11   -1    0    0    0    0  0.00000000000E+00  0.00000000000E+00  0.45593999997E+02  0.45594000000E+02  0.51100000000E-03 0. -1.
         11   -1    0    0    0    0 -0.00000000000E+00 -0.00000000000E+00 -0.45593999997E+02  0.45594000000E+02  0.51100000000E-03 0.  1.
    9900012    2    1    2    0    0  0.14439519335E+02 -0.17724054506E+02 -0.22227878414E+02  0.59301946535E+02  0.50000004574E+02 0.  0.
         12    1    1    2    0    0 -0.14439519335E+02  0.17724054506E+02  0.22227878414E+02  0.31886053465E+02  0.00000000000E+00 0. -1.
         11    1    3    3    0    0 -0.19430245352E+01 -0.17291983227E+02 -0.19692513832E+02  0.26278948410E+02  0.51100000000E-03 0.  1.
        -11    1    3    3    0    0  0.81303539881E+01  0.18489072624E+01  0.12907065694E+02  0.15365983832E+02  0.51100000000E-03 0. -1.
        -12    1    3    3    0    0  0.82521898821E+01 -0.22809785417E+01 -0.15442430275E+02  0.17657014294E+02  0.00000000000E+00 0.  1.
</event>
<event>
 7    1  0.7755875E-012  0.5930192E+02  0.7816164E-02  0.1266605E+00
        -11   -1    0    0    0    0  0.00000000000E+00  0.00000000000E+00  0.45593999997E+02  0.45594000000E+02  0.51100000000E-03 0. -1.
         11   -1    0    0    0    0 -0.00000000000E+00 -0.00000000000E+00 -0.45593999997E+02  0.45594000000E+02  0.51100000000E-03 0.  1.
    9900012    2    1    2    0    0 -0.37902951337E+01  0.31208026594E+02  0.53305279366E+01  0.59301924839E+02  0.49999965004E+02 0.  0.
         12    1    1    2    0    0  0.37902951337E+01 -0.31208026594E+02 -0.53305279366E+01  0.31886075161E+02  0.00000000000E+00 0. -1.
         11    1    3    3    0    0 -0.23458161465E+01 -0.44718591724E+01  0.52271733313E+00  0.50767717619E+01  0.51100000000E-03 0. -1.
        -11    1    3    3    0    0 -0.20812011355E+02  0.21006559629E+02  0.67731663161E+00  0.29578271116E+02  0.51100000000E-03 0.  1.
        -12    1    3    3    0    0  0.19367532368E+02  0.14673326137E+02  0.41304939719E+01  0.24646881961E+02  0.00000000000E+00 0.  1.
</event>
<event>
 7    1  0.7909829E-012  0.5930190E+02  0.7816164E-02  0.1266605E+00
        -11   -1    0    0    0    0  0.00000000000E+00  0.00000000000E+00  0.45593999997E+02  0.45594000000E+02  0.51100000000E-03 0. -1.
         11   -1    0    0    0    0 -0.00000000000E+00 -0.00000000000E+00 -0.45593999997E+02  0.45594000000E+02  0.51100000000E-03 0.  1.
    9900012    2    1    2    0    0  0.15894997880E+02 -0.16728287433E+02 -0.22005388392E+02  0.59301895247E+02  0.49999911035E+02 0.  0.
         12    1    1    2    0    0 -0.15894997880E+02  0.16728287433E+02  0.22005388392E+02  0.31886104753E+02  0.00000000000E+00 0. -1.
         11    1    3    3    0    0  0.11270727467E+02 -0.64830967679E+01  0.10106106153E+02  0.16467945323E+02  0.51100000000E-03 0. -1.
        -11    1    3    3    0    0  0.23646935405E+01 -0.18707765222E+02 -0.26146010461E+02  0.32236409825E+02  0.51100000000E-03 0.  1.
        -12    1    3    3    0    0  0.22595768723E+01  0.84625745566E+01 -0.59654840848E+01  0.10597540098E+02  0.00000000000E+00 0.  1.
</event>
<event>
 7    1  0.7755875E-012  0.5930203E+02  0.7816164E-02  0.1266604E+00
        -11   -1    0    0    0    0  0.00000000000E+00  0.00000000000E+00  0.45593999997E+02  0.45594000000E+02  0.51100000000E-03 0.  1.
         11   -1    0    0    0    0 -0.00000000000E+00 -0.00000000000E+00 -0.45593999997E+02  0.45594000000E+02  0.51100000000E-03 0. -1.
    9900012    2    1    2    0    0  0.22073345187E+02  0.17876998459E+02  0.14487772508E+02  0.59302028258E+02  0.50000153616E+02 0.  0.
         12    1    1    2    0    0 -0.22073345187E+02 -0.17876998459E+02 -0.14487772508E+02  0.31885971742E+02  0.00000000000E+00 0. -1.
         11    1    3    3    0    0 -0.91613164042E+01 -0.39495958582E+01 -0.20935650544E+01  0.10193725550E+02  0.51100000000E-03 0. -1.
        -11    1    3    3    0    0  0.27577583709E+02  0.44662133362E+01  0.13767857020E+02  0.31145209455E+02  0.51100000000E-03 0.  1.
        -12    1    3    3    0    0  0.36570778820E+01  0.17360380981E+02  0.28134805430E+01  0.17963093253E+02  0.00000000000E+00 0.  1.
</event>
<event>
 7    1  0.7755875E-012  0.5930196E+02  0.7816164E-02  0.1266605E+00
        -11   -1    0    0    0    0  0.00000000000E+00  0.00000000000E+00  0.45593999997E+02  0.45594000000E+02  0.51100000000E-03 0. -1.
         11   -1    0    0    0    0 -0.00000000000E+00 -0.00000000000E+00 -0.45593999997E+02  0.45594000000E+02  0.51100000000E-03 0.  1.
    9900012    2    1    2    0    0 -0.86426241465E+01 -0.29056331738E+02 -0.98870659600E+01  0.59301961683E+02  0.50000032200E+02 0.  0.
         12    1    1    2    0    0  0.86426241465E+01  0.29056331738E+02  0.98870659600E+01  0.31886038317E+02  0.00000000000E+00 0. -1.
         11    1    3    3    0    0  0.12236093885E+02  0.28901451929E+01  0.86485620445E+01  0.15260162466E+02  0.51100000000E-03 0. -1.
        -11    1    3    3    0    0 -0.12992016533E+02 -0.14485801666E+02 -0.36927361392E+01  0.19805737652E+02  0.51100000000E-03 0.  1.
         12    1    3    3    0    0 -0.78867014987E+01 -0.17460675265E+02 -0.14842891865E+02  0.24236061565E+02  0.00000000000E+00 0. -1.
</event>
<event>
 7    1  0.7755875E-012  0.5930195E+02  0.7816164E-02  0.1266605E+00
        -11   -1    0    0    0    0  0.00000000000E+00  0.00000000000E+00  0.45593999997E+02  0.45594000000E+02  0.51100000000E-03 0. -1.
         11   -1    0    0    0    0 -0.00000000000E+00 -0.00000000000E+00 -0.45593999997E+02  0.45594000000E+02  0.51100000000E-03 0.  1.
    9900012    2    1    2    0    0  0.93544068587E+00 -0.56268310618E+01 -0.31371707991E+02  0.59301947573E+02  0.50000006466E+02 0.  0.
         12    1    1    2    0    0 -0.93544068587E+00  0.56268310618E+01  0.31371707991E+02  0.31886052427E+02  0.00000000000E+00 0. -1.
         11    1    3    3    0    0 -0.86053668595E+01  0.51214361906E+01 -0.37422484960E-01  0.10014132421E+02  0.51100000000E-03 0. -1.
        -11    1    3    3    0    0  0.17023747173E+02  0.68429226970E+01 -0.19645580477E+02  0.26880892682E+02  0.51100000000E-03 0.  1.
        -12    1    3    3    0    0 -0.74829396278E+01 -0.17591189949E+02 -0.11688705030E+02  0.22406922470E+02  0.00000000000E+00 0.  1.
</event>
<event>
 7    1  0.7755875E-012  0.5930195E+02  0.7816164E-02  0.1266605E+00
        -11   -1    0    0    0    0  0.00000000000E+00  0.00000000000E+00  0.45593999997E+02  0.45594000000E+02  0.51100000000E-03 0. -1.
         11   -1    0    0    0    0 -0.00000000000E+00 -0.00000000000E+00 -0.45593999997E+02  0.45594000000E+02  0.51100000000E-03 0.  1.
    9900012    2    1    2    0    0 -0.25922064109E+02 -0.70274001334E+01  0.17186685109E+02  0.59301954379E+02  0.50000018878E+02 0.  0.
         12    1    1    2    0    0  0.25922064109E+02  0.70274001334E+01 -0.17186685109E+02  0.31886045621E+02  0.00000000000E+00 0. -1.
         11    1    3    3    0    0 -0.39626267911E+00  0.14350534039E+02 -0.72069256156E+00  0.14374082556E+02  0.51100000000E-03 0. -1.
        -11    1    3    3    0    0 -0.22125564089E+02 -0.11014470092E+02  0.22185076890E+02  0.33211997449E+02  0.51100000000E-03 0.  1.
        -12    1    3    3    0    0 -0.34002373403E+01 -0.10363464080E+02 -0.42776992197E+01  0.11715874373E+02  0.00000000000E+00 0.  1.
</event>
<event>
 7    1  0.7755875E-012  0.5930195E+02  0.7816164E-02  0.1266605E+00
        -11   -1    0    0    0    0  0.00000000000E+00  0.00000000000E+00  0.45593999997E+02  0.45594000000E+02  0.51100000000E-03 0.  1.
         11   -1    0    0    0    0 -0.00000000000E+00 -0.00000000000E+00 -0.45593999997E+02  0.45594000000E+02  0.51100000000E-03 0. -1.
    9900012    2    1    2    0    0 -0.59407046612E+01 -0.16488460234E+01  0.31284334798E+02  0.59301948679E+02  0.50000008482E+02 0.  0.
         12    1    1    2    0    0  0.59407046612E+01  0.16488460234E+01 -0.31284334798E+02  0.31886051321E+02  0.00000000000E+00 0. -1.
         11    1    3    3    0    0 -0.27557384825E+02  0.24832009509E+01  0.18891432400E+02  0.33503163488E+02  0.51100000000E-03 0. -1.
        -11    1    3    3    0    0  0.19972364629E+02 -0.22170187774E+01  0.10788698521E+02  0.22808036679E+02  0.51100000000E-03 0.  1.
         12    1    3    3    0    0  0.16443155355E+01 -0.19150281970E+01  0.16042038778E+01  0.29907485112E+01  0.00000000000E+00 0. -1.
</event>
<event>
 7    1  0.7755875E-012  0.5930192E+02  0.7816164E-02  0.1266605E+00
        -11   -1    0    0    0    0  0.00000000000E+00  0.00000000000E+00  0.45593999997E+02  0.45594000000E+02  0.51100000000E-03 0.  1.
         11   -1    0    0    0    0 -0.00000000000E+00 -0.00000000000E+00 -0.45593999997E+02  0.45594000000E+02  0.51100000000E-03 0. -1.
    9900012    2    1    2    0    0 -0.81323465382E+01  0.93509217532E+01  0.29379367675E+02  0.59301920861E+02  0.49999957750E+02 0.  0.
         12    1    1    2    0    0  0.81323465382E+01 -0.93509217532E+01 -0.29379367675E+02  0.31886079139E+02  0.00000000000E+00 0. -1.
         11    1    3    3    0    0 -0.21887345699E+01 -0.74096274782E+00 -0.61760883647E+01  0.65942135665E+01  0.51100000000E-03 0. -1.
        -11    1    3    3    0    0 -0.17086439600E+02  0.17446047429E+02  0.16619608491E+02  0.29538489734E+02  0.51100000000E-03 0.  1.
        -12    1    3    3    0    0  0.11142827632E+02 -0.73541629276E+01  0.18935847548E+02  0.23169217561E+02  0.00000000000E+00 0.  1.
</event>
<event>
 7    1  0.7755875E-012  0.5930194E+02  0.7816164E-02  0.1266605E+00
        -11   -1    0    0    0    0  0.00000000000E+00  0.00000000000E+00  0.45593999997E+02  0.45594000000E+02  0.51100000000E-03 0. -1.
         11   -1    0    0    0    0 -0.00000000000E+00 -0.00000000000E+00 -0.45593999997E+02  0.45594000000E+02  0.51100000000E-03 0.  1.
    9900012    2    1    2    0    0  0.19205728415E+02 -0.22957631440E+02  0.10991281906E+02  0.59301935282E+02  0.49999984049E+02 0.  0.
         12    1    1    2    0    0 -0.19205728415E+02  0.22957631440E+02 -0.10991281906E+02  0.31886064718E+02  0.00000000000E+00 0. -1.
         11    1    3    3    0    0  0.80012808063E+01 -0.36505862840E+00  0.85374489416E+01  0.11706485255E+02  0.51100000000E-03 0. -1.
        -11    1    3    3    0    0  0.11642520258E+02 -0.31962460137E+02  0.10110001391E+02  0.35487452210E+02  0.51100000000E-03 0.  1.
        -12    1    3    3    0    0 -0.43807264976E+00  0.93698873251E+01 -0.76561684272E+01  0.12107997816E+02  0.00000000000E+00 0.  1.
</event>
<event>
 7    1  0.7755875E-012  0.5930218E+02  0.7816164E-02  0.1266604E+00
        -11   -1    0    0    0    0  0.00000000000E+00  0.00000000000E+00  0.45593999997E+02  0.45594000000E+02  0.51100000000E-03 0.  1.
         11   -1    0    0    0    0 -0.00000000000E+00 -0.00000000000E+00 -0.45593999997E+02  0.45594000000E+02  0.51100000000E-03 0. -1.
    9900012    2    1    2    0    0 -0.10068658105E+02  0.28523281433E+02 -0.10087115158E+02  0.59302182589E+02  0.50000435076E+02 0.  0.
         12    1    1    2    0    0  0.10068658105E+02 -0.28523281433E+02  0.10087115158E+02  0.31885817411E+02  0.00000000000E+00 0. -1.
         11    1    3    3    0    0  0.21170376789E+01 -0.46055169655E+01 -0.73983534412E+01  0.89681809168E+01  0.51100000000E-03 0. -1.
        -11    1    3    3    0    0 -0.13941590361E+02  0.34402790614E+02 -0.13354789253E+02  0.39449592394E+02  0.51100000000E-03 0.  1.
        -12    1    3    3    0    0  0.17558945771E+01 -0.12739922153E+01  0.10666027536E+02  0.10884409278E+02  0.00000000000E+00 0.  1.
</event>
<event>
 7    1  0.7755875E-012  0.5930196E+02  0.7816164E-02  0.1266605E+00
        -11   -1    0    0    0    0  0.00000000000E+00  0.00000000000E+00  0.45593999997E+02  0.45594000000E+02  0.51100000000E-03 0. -1.
         11   -1    0    0    0    0 -0.00000000000E+00 -0.00000000000E+00 -0.45593999997E+02  0.45594000000E+02  0.51100000000E-03 0.  1.
    9900012    2    1    2    0    0  0.14532034167E+02  0.28325178064E+02  0.17955016823E+01  0.59301959862E+02  0.50000028878E+02 0.  0.
         12    1    1    2    0    0 -0.14532034167E+02 -0.28325178064E+02 -0.17955016823E+01  0.31886040138E+02  0.00000000000E+00 0. -1.
         11    1    3    3    0    0 -0.13291616068E+02  0.47462392821E+01 -0.11705074840E+01  0.14162059634E+02  0.51100000000E-03 0. -1.
        -11    1    3    3    0    0  0.19039054716E+02  0.28581824900E+02  0.53411055034E+01  0.34755340990E+02  0.51100000000E-03 0.  1.
         12    1    3    3    0    0  0.87845955198E+01 -0.50028861181E+01 -0.23750963370E+01  0.10384559238E+02  0.00000000000E+00 0. -1.
</event>
<event>
 7    1  0.7755875E-012  0.5930196E+02  0.7816164E-02  0.1266605E+00
        -11   -1    0    0    0    0  0.00000000000E+00  0.00000000000E+00  0.45593999997E+02  0.45594000000E+02  0.51100000000E-03 0.  1.
         11   -1    0    0    0    0 -0.00000000000E+00 -0.00000000000E+00 -0.45593999997E+02  0.45594000000E+02  0.51100000000E-03 0. -1.
    9900012    2    1    2    0    0  0.69176462206E+01 -0.11283711286E+02  0.29009375891E+02  0.59301955103E+02  0.50000020198E+02 0.  0.
         12    1    1    2    0    0 -0.69176462206E+01  0.11283711286E+02 -0.29009375891E+02  0.31886044897E+02  0.00000000000E+00 0. -1.
         11    1    3    3    0    0  0.48562873823E+01  0.28548427122E+01  0.12006273804E+02  0.13262136516E+02  0.51100000000E-03 0. -1.
        -11    1    3    3    0    0 -0.18480705054E+02 -0.63823382525E+01  0.24671822205E+01  0.19706792972E+02  0.51100000000E-03 0.  1.
        -12    1    3    3    0    0  0.20542063893E+02 -0.77562157459E+01  0.14535919866E+02  0.26333025615E+02  0.00000000000E+00 0.  1.
</event>
<event>
 7    1  0.7755875E-012  0.5930195E+02  0.7816164E-02  0.1266605E+00
        -11   -1    0    0    0    0  0.00000000000E+00  0.00000000000E+00  0.45593999997E+02  0.45594000000E+02  0.51100000000E-03 0.  1.
         11   -1    0    0    0    0 -0.00000000000E+00 -0.00000000000E+00 -0.45593999997E+02  0.45594000000E+02  0.51100000000E-03 0. -1.
    9900012    2    1    2    0    0 -0.23726014666E+02  0.94843675366E+01  0.19074680320E+02  0.59301946171E+02  0.50000003908E+02 0.  0.
         12    1    1    2    0    0  0.23726014666E+02 -0.94843675366E+01 -0.19074680320E+02  0.31886053829E+02  0.00000000000E+00 0. -1.
         11    1    3    3    0    0 -0.18971191689E+02  0.45216650835E+01  0.19505029207E+02  0.27582562134E+02  0.51100000000E-03 0.  1.
        -11    1    3    3    0    0  0.27438180826E+01 -0.34058935938E+01 -0.13670894840E+02  0.14353466997E+02  0.51100000000E-03 0. -1.
         12    1    3    3    0    0 -0.74986410602E+01  0.83685960469E+01  0.13240545952E+02  0.17365917040E+02  0.00000000000E+00 0. -1.
</event>
<event>
 7    1  0.7755875E-012  0.5930214E+02  0.7816164E-02  0.1266604E+00
        -11   -1    0    0    0    0  0.00000000000E+00  0.00000000000E+00  0.45593999997E+02  0.45594000000E+02  0.51100000000E-03 0.  1.
         11   -1    0    0    0    0 -0.00000000000E+00 -0.00000000000E+00 -0.45593999997E+02  0.45594000000E+02  0.51100000000E-03 0. -1.
    9900012    2    1    2    0    0 -0.28783923073E+02 -0.91802386108E+01  0.10193963743E+02  0.59302142552E+02  0.50000362060E+02 0.  0.
         12    1    1    2    0    0  0.28783923073E+02  0.91802386108E+01 -0.10193963743E+02  0.31885857448E+02  0.00000000000E+00 0. -1.
         11    1    3    3    0    0  0.75101045565E+01 -0.14398431725E+01 -0.12611823998E+02  0.14748997377E+02  0.51100000000E-03 0. -1.
        -11    1    3    3    0    0 -0.78587455210E+01 -0.57120287268E+01  0.68120430257E+01  0.11865541866E+02  0.51100000000E-03 0.  1.
         12    1    3    3    0    0 -0.28435282108E+02 -0.20283667116E+01  0.15993744715E+02  0.32687603309E+02  0.00000000000E+00 0. -1.
</event>
<event>
 7    1  0.7755875E-012  0.5930180E+02  0.7816164E-02  0.1266605E+00
        -11   -1    0    0    0    0  0.00000000000E+00  0.00000000000E+00  0.45593999997E+02  0.45594000000E+02  0.51100000000E-03 0. -1.
         11   -1    0    0    0    0 -0.00000000000E+00 -0.00000000000E+00 -0.45593999997E+02  0.45594000000E+02  0.51100000000E-03 0.  1.
    9900012    2    1    2    0    0 -0.20291990331E+02 -0.69774613253E+01 -0.23585589328E+02  0.59301798250E+02  0.49999734135E+02 0.  0.
         12    1    1    2    0    0  0.20291990331E+02  0.69774613253E+01  0.23585589328E+02  0.31886201750E+02  0.00000000000E+00 0. -1.
         11    1    3    3    0    0 -0.13506485393E+02  0.18669372296E+02 -0.11571073794E+02  0.25784886244E+02  0.51100000000E-03 0. -1.
        -11    1    3    3    0    0 -0.94088231668E+01 -0.18837426743E+02 -0.20357421699E+01  0.21154641243E+02  0.51100000000E-03 0.  1.
        -12    1    3    3    0    0  0.26233182296E+01 -0.68094068786E+01 -0.99787733637E+01  0.12362270763E+02  0.00000000000E+00 0.  1.
</event>
<event>
 7    1  0.7755875E-012  0.5930195E+02  0.7816164E-02  0.1266605E+00
        -11   -1    0    0    0    0  0.00000000000E+00  0.00000000000E+00  0.45593999997E+02  0.45594000000E+02  0.51100000000E-03 0.  1.
         11   -1    0    0    0    0 -0.00000000000E+00 -0.00000000000E+00 -0.45593999997E+02  0.45594000000E+02  0.51100000000E-03 0. -1.
    9900012    2    1    2    0    0 -0.22602236747E+01 -0.30033952817E+02  0.10467729863E+02  0.59301948169E+02  0.50000007554E+02 0.  0.
         12    1    1    2    0    0  0.22602236747E+01  0.30033952817E+02 -0.10467729863E+02  0.31886051831E+02  0.00000000000E+00 0. -1.
         11    1    3    3    0    0  0.53633571036E+01  0.65728428947E+01 -0.17349397136E+01  0.86589767993E+01  0.51100000000E-03 0. -1.
        -11    1    3    3    0    0  0.59607518064E+01 -0.25546203832E+02  0.18421108210E+02  0.32054271482E+02  0.51100000000E-03 0.  1.
        -12    1    3    3    0    0 -0.13584332585E+02 -0.11060591879E+02 -0.62184386330E+01  0.18588699888E+02  0.00000000000E+00 0.  1.
</event>
<event>
 7    1  0.7755875E-012  0.5930196E+02  0.7816164E-02  0.1266605E+00
        -11   -1    0    0    0    0  0.00000000000E+00  0.00000000000E+00  0.45593999997E+02  0.45594000000E+02  0.51100000000E-03 0. -1.
         11   -1    0    0    0    0 -0.00000000000E+00 -0.00000000000E+00 -0.45593999997E+02  0.45594000000E+02  0.51100000000E-03 0.  1.
    9900012    2    1    2    0    0 -0.99903998460E+01  0.13816993905E+02 -0.26944427508E+02  0.59301959427E+02  0.50000028085E+02 0.  0.
         12    1    1    2    0    0  0.99903998460E+01 -0.13816993905E+02  0.26944427508E+02  0.31886040573E+02  0.00000000000E+00 0. -1.
         11    1    3    3    0    0  0.17035885279E+01  0.88699917664E+01  0.10578719049E+02  0.13910005924E+02  0.51100000000E-03 0. -1.
        -11    1    3    3    0    0 -0.21901200813E+01  0.79721846342E+01 -0.33718351980E+02  0.34717137185E+02  0.51100000000E-03 0.  1.
         12    1    3    3    0    0 -0.95038682926E+01 -0.30251824956E+01 -0.38047945773E+01  0.10674816318E+02  0.00000000000E+00 0. -1.
</event>
<event>
 7    1  0.7755875E-012  0.5930177E+02  0.7816164E-02  0.1266605E+00
        -11   -1    0    0    0    0  0.00000000000E+00  0.00000000000E+00  0.45593999997E+02  0.45594000000E+02  0.51100000000E-03 0. -1.
         11   -1    0    0    0    0 -0.00000000000E+00 -0.00000000000E+00 -0.45593999997E+02  0.45594000000E+02  0.51100000000E-03 0.  1.
    9900012    2    1    2    0    0  0.24969636889E+02  0.18840955811E+02  0.61860451756E+01  0.59301771983E+02  0.49999686231E+02 0.  0.
         12    1    1    2    0    0 -0.24969636889E+02 -0.18840955811E+02 -0.61860451756E+01  0.31886228017E+02  0.00000000000E+00 0. -1.
         11    1    3    3    0    0 -0.50581201153E+00  0.56304126088E+01  0.22130973438E+02  0.22841571258E+02  0.51100000000E-03 0. -1.
        -11    1    3    3    0    0  0.20246586385E+02  0.14213209997E+02 -0.64339451455E+01  0.25560423491E+02  0.51100000000E-03 0.  1.
         12    1    3    3    0    0  0.52288625154E+01 -0.10026667944E+01 -0.95109831169E+01  0.10899777234E+02  0.00000000000E+00 0. -1.
</event>
<event>
 7    1  0.7755875E-012  0.5930195E+02  0.7816164E-02  0.1266605E+00
        -11   -1    0    0    0    0  0.00000000000E+00  0.00000000000E+00  0.45593999997E+02  0.45594000000E+02  0.51100000000E-03 0.  1.
         11   -1    0    0    0    0 -0.00000000000E+00 -0.00000000000E+00 -0.45593999997E+02  0.45594000000E+02  0.51100000000E-03 0. -1.
    9900012    2    1    2    0    0 -0.29579854997E+02  0.69578220594E+01 -0.96613287508E+01  0.59301946894E+02  0.50000005228E+02 0.  0.
         12    1    1    2    0    0  0.29579854997E+02 -0.69578220594E+01  0.96613287508E+01  0.31886053106E+02  0.00000000000E+00 0. -1.
         11    1    3    3    0    0 -0.20645336366E+02 -0.51604864913E+01 -0.13764856843E+02  0.25344265992E+02  0.51100000000E-03 0. -1.
        -11    1    3    3    0    0  0.66686730026E+01  0.12500258850E+02 -0.59775517724E+01  0.15377216796E+02  0.51100000000E-03 0.  1.
        -12    1    3    3    0    0 -0.15603191633E+02 -0.38195029932E+00  0.10081079865E+02  0.18580464106E+02  0.00000000000E+00 0.  1.
</event>
<event>
 7    1  0.7755875E-012  0.5930195E+02  0.7816164E-02  0.1266605E+00
        -11   -1    0    0    0    0  0.00000000000E+00  0.00000000000E+00  0.45593999997E+02  0.45594000000E+02  0.51100000000E-03 0.  1.
         11   -1    0    0    0    0 -0.00000000000E+00 -0.00000000000E+00 -0.45593999997E+02  0.45594000000E+02  0.51100000000E-03 0. -1.
    9900012    2    1    2    0    0 -0.13323188493E+02  0.19616082594E+02  0.21317185795E+02  0.59301945711E+02  0.50000003069E+02 0.  0.
         12    1    1    2    0    0  0.13323188493E+02 -0.19616082594E+02 -0.21317185795E+02  0.31886054289E+02  0.00000000000E+00 0. -1.
         11    1    3    3    0    0  0.16033007712E+01 -0.31987252750E+01  0.26166189460E+02  0.26409693067E+02  0.51100000000E-03 0. -1.
        -11    1    3    3    0    0 -0.70647346208E+01  0.67355125243E+01 -0.10291977518E+02  0.14184583382E+02  0.51100000000E-03 0.  1.
         12    1    3    3    0    0 -0.78617546430E+01  0.16079295345E+02  0.54429738529E+01  0.18707669262E+02  0.00000000000E+00 0. -1.
</event>
<event>
 7    1  0.7755875E-012  0.5930233E+02  0.7816164E-02  0.1266603E+00
        -11   -1    0    0    0    0  0.00000000000E+00  0.00000000000E+00  0.45593999997E+02  0.45594000000E+02  0.51100000000E-03 0. -1.
         11   -1    0    0    0    0 -0.00000000000E+00 -0.00000000000E+00 -0.45593999997E+02  0.45594000000E+02  0.51100000000E-03 0.  1.
    9900012    2    1    2    0    0 -0.18296277125E+02  0.11806499140E+02 -0.23292670214E+02  0.59302334501E+02  0.50000712125E+02 0.  0.
         12    1    1    2    0    0  0.18296277125E+02 -0.11806499140E+02  0.23292670214E+02  0.31885665499E+02  0.00000000000E+00 0. -1.
         11    1    3    3    0    0  0.62858431034E+01  0.46471741310E+01 -0.40326365496E+01  0.87960336929E+01  0.51100000000E-03 0. -1.
        -11    1    3    3    0    0 -0.33414485567E+02  0.70839256547E+01 -0.61622133868E+01  0.34708539619E+02  0.51100000000E-03 0.  1.
        -12    1    3    3    0    0  0.88323653394E+01  0.75399354764E-01 -0.13097820278E+02  0.15797761189E+02  0.00000000000E+00 0.  1.
</event>
<event>
 7    1  0.7755875E-012  0.5930194E+02  0.7816164E-02  0.1266605E+00
        -11   -1    0    0    0    0  0.00000000000E+00  0.00000000000E+00  0.45593999997E+02  0.45594000000E+02  0.51100000000E-03 0.  1.
         11   -1    0    0    0    0 -0.00000000000E+00 -0.00000000000E+00 -0.45593999997E+02  0.45594000000E+02  0.51100000000E-03 0. -1.
    9900012    2    1    2    0    0 -0.28031207845E+02  0.64795217076E+01  0.13747284527E+02  0.59301942754E+02  0.49999997678E+02 0.  0.
         12    1    1    2    0    0  0.28031207845E+02 -0.64795217076E+01 -0.13747284527E+02  0.31886057246E+02  0.00000000000E+00 0. -1.
         11    1    3    3    0    0  0.12043923195E+01 -0.13536988362E+02 -0.15794307837E+01  0.13681930297E+02  0.51100000000E-03 0. -1.
        -11    1    3    3    0    0 -0.11929005082E+02  0.21566951836E+02  0.42394918064E+01  0.25008155965E+02  0.51100000000E-03 0.  1.
        -12    1    3    3    0    0 -0.17306595083E+02 -0.15504417660E+01  0.11087223505E+02  0.20611856492E+02  0.00000000000E+00 0.  1.
</event>
<event>
 7    1  0.7755875E-012  0.5930194E+02  0.7816164E-02  0.1266605E+00
        -11   -1    0    0    0    0  0.00000000000E+00  0.00000000000E+00  0.45593999997E+02  0.45594000000E+02  0.51100000000E-03 0. -1.
         11   -1    0    0    0    0 -0.00000000000E+00 -0.00000000000E+00 -0.45593999997E+02  0.45594000000E+02  0.51100000000E-03 0.  1.
    9900012    2    1    2    0    0  0.16122169316E+02  0.14865926987E+02  0.23147374077E+02  0.59301936346E+02  0.49999985991E+02 0.  0.
         12    1    1    2    0    0 -0.16122169316E+02 -0.14865926987E+02 -0.23147374077E+02  0.31886063654E+02  0.00000000000E+00 0. -1.
         11    1    3    3    0    0  0.18329716821E+02  0.28800117200E+02  0.15635656889E+02  0.37548622292E+02  0.51100000000E-03 0. -1.
        -11    1    3    3    0    0  0.55311619016E+01 -0.10363111737E+02  0.56245732219E+01  0.13023964874E+02  0.51100000000E-03 0.  1.
        -12    1    3    3    0    0 -0.77387094062E+01 -0.35710784756E+01  0.18871439664E+01  0.87293491798E+01  0.00000000000E+00 0.  1.
</event>
<event>
 7    1  0.7755875E-012  0.5930196E+02  0.7816164E-02  0.1266605E+00
        -11   -1    0    0    0    0  0.00000000000E+00  0.00000000000E+00  0.45593999997E+02  0.45594000000E+02  0.51100000000E-03 0.  1.
         11   -1    0    0    0    0 -0.00000000000E+00 -0.00000000000E+00 -0.45593999997E+02  0.45594000000E+02  0.51100000000E-03 0. -1.
    9900012    2    1    2    0    0  0.11208015495E+02  0.25770096129E+02  0.15066583322E+02  0.59301962321E+02  0.50000033363E+02 0.  0.
         12    1    1    2    0    0 -0.11208015495E+02 -0.25770096129E+02 -0.15066583322E+02  0.31886037679E+02  0.00000000000E+00 0. -1.
         11    1    3    3    0    0  0.84214024253E+01  0.12147314544E+02 -0.62856841596E+01  0.16061976686E+02  0.51100000000E-03 0. -1.
        -11    1    3    3    0    0 -0.96713311903E+01  0.24156454407E-01  0.22774363679E+02  0.24742814548E+02  0.51100000000E-03 0.  1.
        -12    1    3    3    0    0  0.12457944260E+02  0.13598625131E+02 -0.14220961974E+01  0.18497171087E+02  0.00000000000E+00 0.  1.
</event>
<event>
 7    1  0.7755875E-012  0.5930195E+02  0.7816164E-02  0.1266605E+00
        -11   -1    0    0    0    0  0.00000000000E+00  0.00000000000E+00  0.45593999997E+02  0.45594000000E+02  0.51100000000E-03 0. -1.
         11   -1    0    0    0    0 -0.00000000000E+00 -0.00000000000E+00 -0.45593999997E+02  0.45594000000E+02  0.51100000000E-03 0.  1.
    9900012    2    1    2    0    0 -0.11673094250E+02  0.22853867159E+02 -0.18925116989E+02  0.59301946206E+02  0.50000003973E+02 0.  0.
         12    1    1    2    0    0  0.11673094250E+02 -0.22853867159E+02  0.18925116989E+02  0.31886053794E+02  0.00000000000E+00 0. -1.
         11    1    3    3    0    0 -0.42426600917E+01 -0.45962076161E+01 -0.26197187785E+00  0.62605046626E+01  0.51100000000E-03 0. -1.
        -11    1    3    3    0    0 -0.85145061680E+01  0.34280368041E+02 -0.24404779543E+01  0.35406163040E+02  0.51100000000E-03 0.  1.
        -12    1    3    3    0    0  0.10840720095E+01 -0.68302932657E+01 -0.16222667157E+02  0.17635278503E+02  0.00000000000E+00 0.  1.
</event>
<event>
 7    1  0.7755875E-012  0.5930194E+02  0.7816164E-02  0.1266605E+00
        -11   -1    0    0    0    0  0.00000000000E+00  0.00000000000E+00  0.45593999997E+02  0.45594000000E+02  0.51100000000E-03 0.  1.
         11   -1    0    0    0    0 -0.00000000000E+00 -0.00000000000E+00 -0.45593999997E+02  0.45594000000E+02  0.51100000000E-03 0. -1.
    9900012    2    1    2    0    0 -0.16964212757E+02 -0.25552264011E+02  0.87188446624E+01  0.59301937797E+02  0.49999988637E+02 0.  0.
         12    1    1    2    0    0  0.16964212757E+02  0.25552264011E+02 -0.87188446624E+01  0.31886062203E+02  0.00000000000E+00 0. -1.
         11    1    3    3    0    0  0.11171075033E+02  0.18490623908E+01  0.84158710055E+01  0.14108112353E+02  0.51100000000E-03 0. -1.
        -11    1    3    3    0    0 -0.52537132207E+01 -0.12134942232E+02 -0.91807328461E+01  0.16097955816E+02  0.51100000000E-03 0.  1.
         12    1    3    3    0    0 -0.22881574569E+02 -0.15266384170E+02  0.94837065030E+01  0.29095869628E+02  0.00000000000E+00 0. -1.
</event>
<event>
 7    1  0.7755875E-012  0.5930196E+02  0.7816164E-02  0.1266605E+00
        -11   -1    0    0    0    0  0.00000000000E+00  0.00000000000E+00  0.45593999997E+02  0.45594000000E+02  0.51100000000E-03 0.  1.
         11   -1    0    0    0    0 -0.00000000000E+00 -0.00000000000E+00 -0.45593999997E+02  0.45594000000E+02  0.51100000000E-03 0. -1.
    9900012    2    1    2    0    0  0.22319397268E+02 -0.14008346064E+02  0.17953564906E+02  0.59301956866E+02  0.50000023415E+02 0.  0.
         12    1    1    2    0    0 -0.22319397268E+02  0.14008346064E+02 -0.17953564906E+02  0.31886043134E+02  0.00000000000E+00 0. -1.
         11    1    3    3    0    0  0.26680139082E+02 -0.17608634601E+02  0.89923503302E+01  0.33207773167E+02  0.51100000000E-03 0.  1.
        -11    1    3    3    0    0 -0.11259758317E+02  0.93490010944E+01  0.88705433317E+01  0.17113518577E+02  0.51100000000E-03 0. -1.
         12    1    3    3    0    0  0.68990165028E+01 -0.57487125576E+01  0.90671244266E-01  0.89806651229E+01  0.00000000000E+00 0. -1.
</event>
<event>
 7    1  0.7755875E-012  0.5930194E+02  0.7816164E-02  0.1266605E+00
        -11   -1    0    0    0    0  0.00000000000E+00  0.00000000000E+00  0.45593999997E+02  0.45594000000E+02  0.51100000000E-03 0.  1.
         11   -1    0    0    0    0 -0.00000000000E+00 -0.00000000000E+00 -0.45593999997E+02  0.45594000000E+02  0.51100000000E-03 0. -1.
    9900012    2    1    2    0    0 -0.23095715266E+02 -0.90235009150E+01  0.20047073329E+02  0.59301940641E+02  0.49999993823E+02 0.  0.
         12    1    1    2    0    0  0.23095715266E+02  0.90235009150E+01 -0.20047073329E+02  0.31886059359E+02  0.00000000000E+00 0. -1.
         11    1    3    3    0    0  0.34661848893E+01  0.22433766998E+01 -0.13396597093E+02  0.14018416124E+02  0.51100000000E-03 0. -1.
        -11    1    3    3    0    0 -0.16806071971E+02 -0.89469892334E+01  0.14803327108E+02  0.24117030604E+02  0.51100000000E-03 0.  1.
         12    1    3    3    0    0 -0.97558281840E+01 -0.23198883813E+01  0.18640343314E+02  0.21166493912E+02  0.00000000000E+00 0. -1.
</event>
<event>
 7    1  0.7755875E-012  0.5930194E+02  0.7816164E-02  0.1266605E+00
        -11   -1    0    0    0    0  0.00000000000E+00  0.00000000000E+00  0.45593999997E+02  0.45594000000E+02  0.51100000000E-03 0.  1.
         11   -1    0    0    0    0 -0.00000000000E+00 -0.00000000000E+00 -0.45593999997E+02  0.45594000000E+02  0.51100000000E-03 0. -1.
    9900012    2    1    2    0    0 -0.89163054816E+01 -0.16129744007E+01  0.30571532479E+02  0.59301940539E+02  0.49999993637E+02 0.  0.
         12    1    1    2    0    0  0.89163054816E+01  0.16129744007E+01 -0.30571532479E+02  0.31886059461E+02  0.00000000000E+00 0. -1.
         11    1    3    3    0    0  0.65498388655E+01  0.71778084742E+01  0.98545969834E+01  0.13839595573E+02  0.51100000000E-03 0. -1.
        -11    1    3    3    0    0 -0.44031455370E+01 -0.74123417731E+01 -0.97527299485E+01  0.13017151873E+02  0.51100000000E-03 0.  1.
        -12    1    3    3    0    0 -0.11062998810E+02 -0.13784411018E+01  0.30469665444E+02  0.32445193093E+02  0.00000000000E+00 0.  1.
</event>
<event>
 7    1  0.7755875E-012  0.5930195E+02  0.7816164E-02  0.1266605E+00
        -11   -1    0    0    0    0  0.00000000000E+00  0.00000000000E+00  0.45593999997E+02  0.45594000000E+02  0.51100000000E-03 0.  1.
         11   -1    0    0    0    0 -0.00000000000E+00 -0.00000000000E+00 -0.45593999997E+02  0.45594000000E+02  0.51100000000E-03 0. -1.
    9900012    2    1    2    0    0  0.30088225808E+02 -0.10488880762E+02  0.11842935547E+01  0.59301945005E+02  0.50000001782E+02 0.  0.
         12    1    1    2    0    0 -0.30088225808E+02  0.10488880762E+02 -0.11842935547E+01  0.31886054995E+02  0.00000000000E+00 0. -1.
         11    1    3    3    0    0 -0.10760201021E+01  0.10931609439E+02 -0.15955487308E+00  0.10985597945E+02  0.51100000000E-03 0. -1.
        -11    1    3    3    0    0  0.34138328880E+02 -0.22426853347E+02 -0.50855290386E+01  0.41161290743E+02  0.51100000000E-03 0.  1.
        -12    1    3    3    0    0 -0.29740829699E+01  0.10063631464E+01  0.64293774664E+01  0.71550563170E+01  0.00000000000E+00 0.  1.
</event>
<event>
 7    1  0.7755875E-012  0.5930190E+02  0.7816164E-02  0.1266605E+00
        -11   -1    0    0    0    0  0.00000000000E+00  0.00000000000E+00  0.45593999997E+02  0.45594000000E+02  0.51100000000E-03 0. -1.
         11   -1    0    0    0    0 -0.00000000000E+00 -0.00000000000E+00 -0.45593999997E+02  0.45594000000E+02  0.51100000000E-03 0.  1.
    9900012    2    1    2    0    0 -0.31458207398E+02 -0.65695912322E+00 -0.51645978381E+01  0.59301898344E+02  0.49999916684E+02 0.  0.
         12    1    1    2    0    0  0.31458207398E+02  0.65695912322E+00  0.51645978381E+01  0.31886101656E+02  0.00000000000E+00 0. -1.
         11    1    3    3    0    0 -0.11859927501E+01  0.10327952602E+01  0.15074390318E+02  0.15156202973E+02  0.51100000000E-03 0. -1.
        -11    1    3    3    0    0 -0.33890716375E+02  0.14271148806E+01 -0.19969244383E+02  0.39362266636E+02  0.51100000000E-03 0.  1.
        -12    1    3    3    0    0  0.36185017265E+01 -0.31168692640E+01 -0.26974377329E+00  0.47834287344E+01  0.00000000000E+00 0.  1.
</event>
<event>
 7    1  0.7755875E-012  0.5930195E+02  0.7816164E-02  0.1266605E+00
        -11   -1    0    0    0    0  0.00000000000E+00  0.00000000000E+00  0.45593999997E+02  0.45594000000E+02  0.51100000000E-03 0.  1.
         11   -1    0    0    0    0 -0.00000000000E+00 -0.00000000000E+00 -0.45593999997E+02  0.45594000000E+02  0.51100000000E-03 0. -1.
    9900012    2    1    2    0    0 -0.26986350814E+02 -0.14644852830E+02 -0.86014914646E+01  0.59301945053E+02  0.50000001870E+02 0.  0.
         12    1    1    2    0    0  0.26986350814E+02  0.14644852830E+02  0.86014914646E+01  0.31886054947E+02  0.00000000000E+00 0. -1.
         11    1    3    3    0    0 -0.30645727122E+01 -0.84134855436E+00 -0.97607135571E+01  0.10265037881E+02  0.51100000000E-03 0. -1.
        -11    1    3    3    0    0  0.15728475100E+01 -0.21715364717E+02  0.41885787950E+01  0.22171493109E+02  0.51100000000E-03 0.  1.
        -12    1    3    3    0    0 -0.25494625612E+02  0.79118604415E+01 -0.30293567025E+01  0.26865414063E+02  0.00000000000E+00 0.  1.
</event>
<event>
 7    1  0.7755875E-012  0.5930193E+02  0.7816164E-02  0.1266605E+00
        -11   -1    0    0    0    0  0.00000000000E+00  0.00000000000E+00  0.45593999997E+02  0.45594000000E+02  0.51100000000E-03 0.  1.
         11   -1    0    0    0    0 -0.00000000000E+00 -0.00000000000E+00 -0.45593999997E+02  0.45594000000E+02  0.51100000000E-03 0. -1.
    9900012    2    1    2    0    0 -0.94607079057E+01  0.28009767928E+02  0.11944429256E+02  0.59301929629E+02  0.49999973740E+02 0.  0.
         12    1    1    2    0    0  0.94607079057E+01 -0.28009767928E+02 -0.11944429256E+02  0.31886070371E+02  0.00000000000E+00 0. -1.
         11    1    3    3    0    0  0.50659941165E+01  0.13180282894E+02  0.94088115241E+01  0.16967907594E+02  0.51100000000E-03 0. -1.
        -11    1    3    3    0    0 -0.22353982063E+02  0.84008072511E+01 -0.10279892708E+02  0.25999043654E+02  0.51100000000E-03 0.  1.
        -12    1    3    3    0    0  0.78272800411E+01  0.64286777833E+01  0.12815510440E+02  0.16334978381E+02  0.00000000000E+00 0.  1.
</event>
<event>
 7    1  0.7755875E-012  0.5930193E+02  0.7816164E-02  0.1266605E+00
        -11   -1    0    0    0    0  0.00000000000E+00  0.00000000000E+00  0.45593999997E+02  0.45594000000E+02  0.51100000000E-03 0.  1.
         11   -1    0    0    0    0 -0.00000000000E+00 -0.00000000000E+00 -0.45593999997E+02  0.45594000000E+02  0.51100000000E-03 0. -1.
    9900012    2    1    2    0    0 -0.29432463188E+02 -0.73569222384E+01 -0.98146531474E+01  0.59301927640E+02  0.49999970114E+02 0.  0.
         12    1    1    2    0    0  0.29432463188E+02  0.73569222384E+01  0.98146531474E+01  0.31886072360E+02  0.00000000000E+00 0. -1.
         11    1    3    3    0    0 -0.10152905789E+02  0.14096433268E+01 -0.19826104470E+02  0.22319117568E+02  0.51100000000E-03 0. -1.
        -11    1    3    3    0    0 -0.25043834432E+02 -0.12419625994E+02  0.11090064523E+02  0.30073747426E+02  0.51100000000E-03 0.  1.
         12    1    3    3    0    0  0.57642770335E+01  0.36530604288E+01 -0.10786132001E+01  0.69090626463E+01  0.00000000000E+00 0. -1.
</event>
<event>
 7    1  0.7755875E-012  0.5930196E+02  0.7816164E-02  0.1266605E+00
        -11   -1    0    0    0    0  0.00000000000E+00  0.00000000000E+00  0.45593999997E+02  0.45594000000E+02  0.51100000000E-03 0.  1.
         11   -1    0    0    0    0 -0.00000000000E+00 -0.00000000000E+00 -0.45593999997E+02  0.45594000000E+02  0.51100000000E-03 0. -1.
    9900012    2    1    2    0    0  0.30646414052E+02  0.85411290090E+01 -0.21368160625E+01  0.59301959765E+02  0.50000028701E+02 0.  0.
         12    1    1    2    0    0 -0.30646414052E+02 -0.85411290090E+01  0.21368160625E+01  0.31886040235E+02  0.00000000000E+00 0. -1.
         11    1    3    3    0    0 -0.38861383277E+01  0.11900329244E+02 -0.13332731958E+02  0.18288839464E+02  0.51100000000E-03 0. -1.
        -11    1    3    3    0    0  0.15321542043E+02 -0.10131668270E+02  0.14322352445E+01  0.18424213703E+02  0.51100000000E-03 0.  1.
         12    1    3    3    0    0  0.19211010337E+02  0.67724680351E+01  0.97636806515E+01  0.22588906598E+02  0.00000000000E+00 0. -1.
</event>
<event>
 7    1  0.7755875E-012  0.5930196E+02  0.7816164E-02  0.1266605E+00
        -11   -1    0    0    0    0  0.00000000000E+00  0.00000000000E+00  0.45593999997E+02  0.45594000000E+02  0.51100000000E-03 0.  1.
         11   -1    0    0    0    0 -0.00000000000E+00 -0.00000000000E+00 -0.45593999997E+02  0.45594000000E+02  0.51100000000E-03 0. -1.
    9900012    2    1    2    0    0  0.21580557086E+02  0.74137526139E+00  0.23461657443E+02  0.59301961497E+02  0.50000031860E+02 0.  0.
         12    1    1    2    0    0 -0.21580557086E+02 -0.74137526139E+00 -0.23461657443E+02  0.31886038503E+02  0.00000000000E+00 0. -1.
         11    1    3    3    0    0  0.38482660871E+00 -0.25851460287E+01  0.71189019598E+01  0.75835240412E+01  0.51100000000E-03 0. -1.
        -11    1    3    3    0    0  0.19873839826E+02  0.11904102068E+02 -0.90593336406E+01  0.24874659430E+02  0.51100000000E-03 0.  1.
        -12    1    3    3    0    0  0.13218906516E+01 -0.85775807777E+01  0.25402089124E+02  0.26843778027E+02  0.00000000000E+00 0.  1.
</event>
<event>
 7    1  0.7755875E-012  0.5930189E+02  0.7816164E-02  0.1266605E+00
        -11   -1    0    0    0    0  0.00000000000E+00  0.00000000000E+00  0.45593999997E+02  0.45594000000E+02  0.51100000000E-03 0. -1.
         11   -1    0    0    0    0 -0.00000000000E+00 -0.00000000000E+00 -0.45593999997E+02  0.45594000000E+02  0.51100000000E-03 0.  1.
    9900012    2    1    2    0    0  0.11860545396E+02  0.19242792878E+02 -0.22489246475E+02  0.59301892965E+02  0.49999906875E+02 0.  0.
         12    1    1    2    0    0 -0.11860545396E+02 -0.19242792878E+02  0.22489246475E+02  0.31886107035E+02  0.00000000000E+00 0. -1.
         11    1    3    3    0    0 -0.10316710497E+02  0.16170754903E+02 -0.17775355842E+02  0.26151311730E+02  0.51100000000E-03 0. -1.
        -11    1    3    3    0    0  0.22900855161E+02 -0.28201051011E+01 -0.10050825170E+02  0.25167861386E+02  0.51100000000E-03 0.  1.
         12    1    3    3    0    0 -0.72359926824E+00  0.58921430760E+01  0.53369345379E+01  0.79827198492E+01  0.00000000000E+00 0. -1.
</event>
<event>
 7    1  0.7755875E-012  0.5930197E+02  0.7816164E-02  0.1266605E+00
        -11   -1    0    0    0    0  0.00000000000E+00  0.00000000000E+00  0.45593999997E+02  0.45594000000E+02  0.51100000000E-03 0.  1.
         11   -1    0    0    0    0 -0.00000000000E+00 -0.00000000000E+00 -0.45593999997E+02  0.45594000000E+02  0.51100000000E-03 0. -1.
    9900012    2    1    2    0    0 -0.23881355113E+02  0.10848833582E+02  0.18130158548E+02  0.59301969186E+02  0.50000045882E+02 0.  0.
         12    1    1    2    0    0  0.23881355113E+02 -0.10848833582E+02 -0.18130158548E+02  0.31886030814E+02  0.00000000000E+00 0. -1.
         11    1    3    3    0    0  0.73462712928E+01  0.76233502742E+00 -0.10586682014E+02  0.12908396218E+02  0.51100000000E-03 0. -1.
        -11    1    3    3    0    0 -0.17654911188E+02  0.32497346590E+01  0.24948953792E+02  0.30736085632E+02  0.51100000000E-03 0.  1.
         12    1    3    3    0    0 -0.13572715218E+02  0.68367638954E+01  0.37678867700E+01  0.15657487335E+02  0.00000000000E+00 0. -1.
</event>
<event>
 7    1  0.7755875E-012  0.5930195E+02  0.7816164E-02  0.1266605E+00
        -11   -1    0    0    0    0  0.00000000000E+00  0.00000000000E+00  0.45593999997E+02  0.45594000000E+02  0.51100000000E-03 0. -1.
         11   -1    0    0    0    0 -0.00000000000E+00 -0.00000000000E+00 -0.45593999997E+02  0.45594000000E+02  0.51100000000E-03 0.  1.
    9900012    2    1    2    0    0 -0.18863871706E+02 -0.14828945401E+02 -0.20999456443E+02  0.59301945865E+02  0.50000003351E+02 0.  0.
         12    1    1    2    0    0  0.18863871706E+02  0.14828945401E+02  0.20999456443E+02  0.31886054135E+02  0.00000000000E+00 0. -1.
         11    1    3    3    0    0  0.11446244105E+02  0.42324594642E+01  0.41785802618E+01  0.12899253874E+02  0.51100000000E-03 0. -1.
        -11    1    3    3    0    0 -0.26546375915E+02 -0.21777503793E+02 -0.22117866806E+02  0.40843234176E+02  0.51100000000E-03 0.  1.
        -12    1    3    3    0    0 -0.37637398959E+01  0.27160989275E+01 -0.30601698985E+01  0.55594578149E+01  0.00000000000E+00 0.  1.
</event>
<event>
 7    1  0.7755875E-012  0.5930196E+02  0.7816164E-02  0.1266605E+00
        -11   -1    0    0    0    0  0.00000000000E+00  0.00000000000E+00  0.45593999997E+02  0.45594000000E+02  0.51100000000E-03 0.  1.
         11   -1    0    0    0    0 -0.00000000000E+00 -0.00000000000E+00 -0.45593999997E+02  0.45594000000E+02  0.51100000000E-03 0. -1.
    9900012    2    1    2    0    0  0.18307564802E+02  0.17096789210E+02  0.19729482068E+02  0.59301959278E+02  0.50000027813E+02 0.  0.
         12    1    1    2    0    0 -0.18307564802E+02 -0.17096789210E+02 -0.19729482068E+02  0.31886040722E+02  0.00000000000E+00 0. -1.
         11    1    3    3    0    0 -0.37423232900E+01 -0.51533832619E+01 -0.11710429677E+02  0.13330285298E+02  0.51100000000E-03 0. -1.
        -11    1    3    3    0    0  0.51806434040E+01  0.86831201421E+01  0.17539004333E+02  0.20244809575E+02  0.51100000000E-03 0.  1.
         12    1    3    3    0    0  0.16869244688E+02  0.13567052330E+02  0.13900907411E+02  0.25726864405E+02  0.00000000000E+00 0. -1.
</event>
<event>
 7    1  0.7755875E-012  0.5930201E+02  0.7816164E-02  0.1266605E+00
        -11   -1    0    0    0    0  0.00000000000E+00  0.00000000000E+00  0.45593999997E+02  0.45594000000E+02  0.51100000000E-03 0. -1.
         11   -1    0    0    0    0 -0.00000000000E+00 -0.00000000000E+00 -0.45593999997E+02  0.45594000000E+02  0.51100000000E-03 0.  1.
    9900012    2    1    2    0    0  0.14274511361E+02 -0.23321586435E+02 -0.16402986868E+02  0.59302014887E+02  0.50000129231E+02 0.  0.
         12    1    1    2    0    0 -0.14274511361E+02  0.23321586435E+02  0.16402986868E+02  0.31885985113E+02  0.00000000000E+00 0. -1.
         11    1    3    3    0    0  0.15708134689E+02  0.79551341483E+00  0.10135527331E+02  0.18711153132E+02  0.51100000000E-03 0. -1.
        -11    1    3    3    0    0 -0.60143418217E+01 -0.21146262197E+02 -0.27328806461E+02  0.35074212397E+02  0.51100000000E-03 0.  1.
        -12    1    3    3    0    0  0.45807184940E+01 -0.29708376526E+01  0.79029226237E+00  0.55166493580E+01  0.00000000000E+00 0.  1.
</event>
<event>
 7    1  0.7755875E-012  0.5930197E+02  0.7816164E-02  0.1266605E+00
        -11   -1    0    0    0    0  0.00000000000E+00  0.00000000000E+00  0.45593999997E+02  0.45594000000E+02  0.51100000000E-03 0. -1.
         11   -1    0    0    0    0 -0.00000000000E+00 -0.00000000000E+00 -0.45593999997E+02  0.45594000000E+02  0.51100000000E-03 0.  1.
    9900012    2    1    2    0    0  0.25461511529E+02 -0.18287051855E+02  0.58321556921E+01  0.59301970537E+02  0.50000048346E+02 0.  0.
         12    1    1    2    0    0 -0.25461511529E+02  0.18287051855E+02 -0.58321556921E+01  0.31886029463E+02  0.00000000000E+00 0. -1.
         11    1    3    3    0    0  0.37095595151E+01 -0.21502768928E+02  0.14128365248E+02  0.25995011217E+02  0.51100000000E-03 0. -1.
        -11    1    3    3    0    0  0.33196725514E+01  0.10831302581E+02 -0.70097593768E+01  0.13321939357E+02  0.51100000000E-03 0.  1.
        -12    1    3    3    0    0  0.18432279463E+02 -0.76155855087E+01 -0.12864501786E+01  0.19985019962E+02  0.00000000000E+00 0.  1.
</event>
<event>
 7    1  0.7755875E-012  0.5930194E+02  0.7816164E-02  0.1266605E+00
        -11   -1    0    0    0    0  0.00000000000E+00  0.00000000000E+00  0.45593999997E+02  0.45594000000E+02  0.51100000000E-03 0.  1.
         11   -1    0    0    0    0 -0.00000000000E+00 -0.00000000000E+00 -0.45593999997E+02  0.45594000000E+02  0.51100000000E-03 0. -1.
    9900012    2    1    2    0    0 -0.24766006206E+02  0.13630238161E+02  0.14750669731E+02  0.59301941711E+02  0.49999995774E+02 0.  0.
         12    1    1    2    0    0  0.24766006206E+02 -0.13630238161E+02 -0.14750669731E+02  0.31886058289E+02  0.00000000000E+00 0. -1.
         11    1    3    3    0    0 -0.33730403617E+02 -0.85101840269E+00  0.23546763808E+01  0.33823200050E+02  0.51100000000E-03 0. -1.
        -11    1    3    3    0    0  0.25868096786E+01  0.15527907297E+01  0.10516603742E+02  0.10940827112E+02  0.51100000000E-03 0.  1.
         12    1    3    3    0    0  0.63775877329E+01  0.12928465834E+02  0.18793896082E+01  0.14537914548E+02  0.00000000000E+00 0. -1.
</event>
<event>
 7    1  0.7755875E-012  0.5930186E+02  0.7816164E-02  0.1266605E+00
        -11   -1    0    0    0    0  0.00000000000E+00  0.00000000000E+00  0.45593999997E+02  0.45594000000E+02  0.51100000000E-03 0.  1.
         11   -1    0    0    0    0 -0.00000000000E+00 -0.00000000000E+00 -0.45593999997E+02  0.45594000000E+02  0.51100000000E-03 0. -1.
    9900012    2    1    2    0    0  0.23386804807E+02 -0.14330765522E+02  0.16260754892E+02  0.59301864624E+02  0.49999855187E+02 0.  0.
         12    1    1    2    0    0 -0.23386804807E+02  0.14330765522E+02 -0.16260754892E+02  0.31886135376E+02  0.00000000000E+00 0. -1.
         11    1    3    3    0    0  0.81689600540E+01 -0.68899224434E+01  0.27744865834E+02  0.29731809902E+02  0.51100000000E-03 0. -1.
        -11    1    3    3    0    0  0.17507902972E+02 -0.12389009999E+02 -0.71612133187E+01  0.22611882091E+02  0.51100000000E-03 0.  1.
         12    1    3    3    0    0 -0.22900582187E+01  0.49481669200E+01 -0.43228976235E+01  0.69581726320E+01  0.00000000000E+00 0. -1.
</event>
<event>
 7    1  0.7755875E-012  0.5930195E+02  0.7816164E-02  0.1266605E+00
        -11   -1    0    0    0    0  0.00000000000E+00  0.00000000000E+00  0.45593999997E+02  0.45594000000E+02  0.51100000000E-03 0. -1.
         11   -1    0    0    0    0 -0.00000000000E+00 -0.00000000000E+00 -0.45593999997E+02  0.45594000000E+02  0.51100000000E-03 0.  1.
    9900012    2    1    2    0    0 -0.22242704050E+02  0.18825811398E+02 -0.12944917640E+02  0.59301953663E+02  0.50000017573E+02 0.  0.
         12    1    1    2    0    0  0.22242704050E+02 -0.18825811398E+02  0.12944917640E+02  0.31886046337E+02  0.00000000000E+00 0. -1.
         11    1    3    3    0    0 -0.12233713460E+02 -0.55204515983E+01  0.68443691761E+01  0.15066005461E+02  0.51100000000E-03 0. -1.
        -11    1    3    3    0    0 -0.82716862682E+01  0.31230831903E+02 -0.17679903435E+02  0.36828856089E+02  0.51100000000E-03 0.  1.
        -12    1    3    3    0    0 -0.17373043221E+01 -0.68845689062E+01 -0.21093833813E+01  0.74070921137E+01  0.00000000000E+00 0.  1.
</event>
<event>
 7    1  0.7755875E-012  0.5930193E+02  0.7816164E-02  0.1266605E+00
        -11   -1    0    0    0    0  0.00000000000E+00  0.00000000000E+00  0.45593999997E+02  0.45594000000E+02  0.51100000000E-03 0. -1.
         11   -1    0    0    0    0 -0.00000000000E+00 -0.00000000000E+00 -0.45593999997E+02  0.45594000000E+02  0.51100000000E-03 0.  1.
    9900012    2    1    2    0    0 -0.25341456430E+02  0.29056859088E+01 -0.19133455626E+02  0.59301928609E+02  0.49999971879E+02 0.  0.
         12    1    1    2    0    0  0.25341456430E+02 -0.29056859088E+01  0.19133455626E+02  0.31886071391E+02  0.00000000000E+00 0. -1.
         11    1    3    3    0    0  0.12306679096E+02  0.28094679371E+01  0.36768371028E+01  0.13147874041E+02  0.51100000000E-03 0. -1.
        -11    1    3    3    0    0 -0.18378220767E+02  0.69736260121E+01 -0.11581508281E+02  0.22814946694E+02  0.51100000000E-03 0.  1.
         12    1    3    3    0    0 -0.19269914759E+02 -0.68774080405E+01 -0.11228784448E+02  0.23339107874E+02  0.00000000000E+00 0. -1.
</event>
<event>
 7    1  0.7755875E-012  0.5930195E+02  0.7816164E-02  0.1266605E+00
        -11   -1    0    0    0    0  0.00000000000E+00  0.00000000000E+00  0.45593999997E+02  0.45594000000E+02  0.51100000000E-03 0.  1.
         11   -1    0    0    0    0 -0.00000000000E+00 -0.00000000000E+00 -0.45593999997E+02  0.45594000000E+02  0.51100000000E-03 0. -1.
    9900012    2    1    2    0    0  0.21178961149E+02 -0.11676992434E+02  0.20780274848E+02  0.59301947086E+02  0.50000005578E+02 0.  0.
         12    1    1    2    0    0 -0.21178961149E+02  0.11676992434E+02 -0.20780274848E+02  0.31886052914E+02  0.00000000000E+00 0. -1.
         11    1    3    3    0    0  0.17376031752E+02  0.89557257699E+00  0.96555704636E+01  0.19898707770E+02  0.51100000000E-03 0. -1.
        -11    1    3    3    0    0  0.62113130370E+01 -0.19774868391E+02  0.19245650061E+02  0.28284640285E+02  0.51100000000E-03 0.  1.
        -12    1    3    3    0    0 -0.24083836397E+01  0.72023033801E+01 -0.81209456760E+01  0.11118599031E+02  0.00000000000E+00 0.  1.
</event>
<event>
 7    1  0.7755875E-012  0.5930196E+02  0.7816164E-02  0.1266605E+00
        -11   -1    0    0    0    0  0.00000000000E+00  0.00000000000E+00  0.45593999997E+02  0.45594000000E+02  0.51100000000E-03 0.  1.
         11   -1    0    0    0    0 -0.00000000000E+00 -0.00000000000E+00 -0.45593999997E+02  0.45594000000E+02  0.51100000000E-03 0. -1.
    9900012    2    1    2    0    0 -0.15115251816E+02 -0.20110028863E+02  0.19591725298E+02  0.59301956054E+02  0.50000021934E+02 0.  0.
         12    1    1    2    0    0  0.15115251816E+02  0.20110028863E+02 -0.19591725298E+02  0.31886043946E+02  0.00000000000E+00 0. -1.
         11    1    3    3    0    0 -0.79636534054E+01  0.77416213494E+01 -0.12103327751E+02  0.16426899269E+02  0.51100000000E-03 0. -1.
        -11    1    3    3    0    0 -0.49797808979E+01 -0.21436618811E+02  0.22716660608E+02  0.31628681814E+02  0.51100000000E-03 0.  1.
         12    1    3    3    0    0 -0.21718175128E+01 -0.64150314009E+01  0.89783924407E+01  0.11246374972E+02  0.00000000000E+00 0. -1.
</event>
<event>
 7    1  0.7755875E-012  0.5930194E+02  0.7816164E-02  0.1266605E+00
        -11   -1    0    0    0    0  0.00000000000E+00  0.00000000000E+00  0.45593999997E+02  0.45594000000E+02  0.51100000000E-03 0. -1.
         11   -1    0    0    0    0 -0.00000000000E+00 -0.00000000000E+00 -0.45593999997E+02  0.45594000000E+02  0.51100000000E-03 0.  1.
    9900012    2    1    2    0    0  0.14758558460E+02 -0.26544416525E+02 -0.97108123626E+01  0.59301937634E+02  0.49999988339E+02 0.  0.
         12    1    1    2    0    0 -0.14758558460E+02  0.26544416525E+02  0.97108123626E+01  0.31886062366E+02  0.00000000000E+00 0. -1.
         11    1    3    3    0    0  0.49551956729E+01  0.29382649534E+01  0.13471392196E+02  0.14651476822E+02  0.51100000000E-03 0. -1.
        -11    1    3    3    0    0  0.15006374337E+00 -0.25735703642E+02 -0.22646884819E+02  0.34281632886E+02  0.51100000000E-03 0.  1.
        -12    1    3    3    0    0  0.96532990438E+01 -0.37469778365E+01 -0.53531973949E+00  0.10368827926E+02  0.00000000000E+00 0.  1.
</event>
<event>
 7    1  0.7755875E-012  0.5930210E+02  0.7816164E-02  0.1266604E+00
        -11   -1    0    0    0    0  0.00000000000E+00  0.00000000000E+00  0.45593999997E+02  0.45594000000E+02  0.51100000000E-03 0. -1.
         11   -1    0    0    0    0 -0.00000000000E+00 -0.00000000000E+00 -0.45593999997E+02  0.45594000000E+02  0.51100000000E-03 0.  1.
    9900012    2    1    2    0    0 -0.23960792091E+02  0.17966641318E+01 -0.20960991614E+02  0.59302098271E+02  0.50000281302E+02 0.  0.
         12    1    1    2    0    0  0.23960792091E+02 -0.17966641318E+01  0.20960991614E+02  0.31885901729E+02  0.00000000000E+00 0. -1.
         11    1    3    3    0    0 -0.17603283608E+02  0.12976580484E+02 -0.17663657309E+02  0.28111777330E+02  0.51100000000E-03 0. -1.
        -11    1    3    3    0    0  0.93721290012E+01 -0.11101274423E+02 -0.50089207009E+01  0.15367640765E+02  0.51100000000E-03 0.  1.
        -12    1    3    3    0    0 -0.15729637485E+02 -0.78641929433E-01  0.17115863964E+01  0.15822680176E+02  0.00000000000E+00 0.  1.
</event>
<event>
 7    1  0.7755875E-012  0.5930193E+02  0.7816164E-02  0.1266605E+00
        -11   -1    0    0    0    0  0.00000000000E+00  0.00000000000E+00  0.45593999997E+02  0.45594000000E+02  0.51100000000E-03 0. -1.
         11   -1    0    0    0    0 -0.00000000000E+00 -0.00000000000E+00 -0.45593999997E+02  0.45594000000E+02  0.51100000000E-03 0.  1.
    9900012    2    1    2    0    0 -0.10889937114E+02  0.18460806825E+02 -0.23607823355E+02  0.59301930275E+02  0.49999974918E+02 0.  0.
         12    1    1    2    0    0  0.10889937114E+02 -0.18460806825E+02  0.23607823355E+02  0.31886069725E+02  0.00000000000E+00 0. -1.
         11    1    3    3    0    0 -0.10720637010E+02 -0.15882420398E+01 -0.12738444117E+02  0.16724907458E+02  0.51100000000E-03 0. -1.
        -11    1    3    3    0    0 -0.37809091822E+01  0.29050330352E+02 -0.13886278195E+02  0.32419834826E+02  0.51100000000E-03 0.  1.
        -12    1    3    3    0    0  0.36116090787E+01 -0.90012814870E+01  0.30168989577E+01  0.10157187990E+02  0.00000000000E+00 0.  1.
</event>
<event>
 7    1  0.8909499E-012  0.5930195E+02  0.7816164E-02  0.1266605E+00
        -11   -1    0    0    0    0  0.00000000000E+00  0.00000000000E+00  0.45593999997E+02  0.45594000000E+02  0.51100000000E-03 0. -1.
         11   -1    0    0    0    0 -0.00000000000E+00 -0.00000000000E+00 -0.45593999997E+02  0.45594000000E+02  0.51100000000E-03 0.  1.
    9900012    2    1    2    0    0  0.80975365284E+01 -0.28828137752E+02 -0.10958505690E+02  0.59301945509E+02  0.50000002701E+02 0.  0.
         12    1    1    2    0    0 -0.80975365284E+01  0.28828137752E+02  0.10958505690E+02  0.31886054491E+02  0.00000000000E+00 0. -1.
         11    1    3    3    0    0 -0.10279828092E+02 -0.15344318767E+01  0.82676523633E+01  0.13280942084E+02  0.51100000000E-03 0. -1.
        -11    1    3    3    0    0  0.16378017790E+02 -0.38823204083E+01 -0.14133594806E+02  0.21978862138E+02  0.51100000000E-03 0.  1.
        -12    1    3    3    0    0  0.19993468307E+01 -0.23411385467E+02 -0.50925632476E+01  0.24042141287E+02  0.00000000000E+00 0.  1.
</event>
<event>
 7    1  0.7755875E-012  0.5930193E+02  0.7816164E-02  0.1266605E+00
        -11   -1    0    0    0    0  0.00000000000E+00  0.00000000000E+00  0.45593999997E+02  0.45594000000E+02  0.51100000000E-03 0.  1.
         11   -1    0    0    0    0 -0.00000000000E+00 -0.00000000000E+00 -0.45593999997E+02  0.45594000000E+02  0.51100000000E-03 0. -1.
    9900012    2    1    2    0    0  0.28721094954E+02 -0.98673402540E+01  0.97188229013E+01  0.59301933801E+02  0.49999981349E+02 0.  0.
         12    1    1    2    0    0 -0.28721094954E+02  0.98673402540E+01 -0.97188229013E+01  0.31886066199E+02  0.00000000000E+00 0. -1.
         11    1    3    3    0    0 -0.66495338492E+01 -0.12547449094E+02  0.62986093641E+01  0.15534711435E+02  0.51100000000E-03 0. -1.
        -11    1    3    3    0    0  0.28978370429E+02 -0.89404173592E+01  0.14681366670E+01  0.30361693642E+02  0.51100000000E-03 0.  1.
         12    1    3    3    0    0  0.63922583749E+01  0.11620526199E+02  0.19520768703E+01  0.13405528725E+02  0.00000000000E+00 0. -1.
</event>
<event>
 7    1  0.7755875E-012  0.5930193E+02  0.7816164E-02  0.1266605E+00
        -11   -1    0    0    0    0  0.00000000000E+00  0.00000000000E+00  0.45593999997E+02  0.45594000000E+02  0.51100000000E-03 0.  1.
         11   -1    0    0    0    0 -0.00000000000E+00 -0.00000000000E+00 -0.45593999997E+02  0.45594000000E+02  0.51100000000E-03 0. -1.
    9900012    2    1    2    0    0 -0.14555564946E+02  0.45411226594E+01  0.28004202614E+02  0.59301927336E+02  0.49999969558E+02 0.  0.
         12    1    1    2    0    0  0.14555564946E+02 -0.45411226594E+01 -0.28004202614E+02  0.31886072664E+02  0.00000000000E+00 0. -1.
         11    1    3    3    0    0 -0.47510130024E+01 -0.21200563103E+02  0.10705955838E+02  0.24220930847E+02  0.51100000000E-03 0. -1.
        -11    1    3    3    0    0 -0.75592402781E+01  0.11997138569E+02  0.15550553812E+02  0.21045027240E+02  0.51100000000E-03 0.  1.
         12    1    3    3    0    0 -0.22453116651E+01  0.13744547194E+02  0.17476929642E+01  0.14035969248E+02  0.00000000000E+00 0. -1.
</event>
<event>
 7    1  0.7755875E-012  0.5930193E+02  0.7816164E-02  0.1266605E+00
        -11   -1    0    0    0    0  0.00000000000E+00  0.00000000000E+00  0.45593999997E+02  0.45594000000E+02  0.51100000000E-03 0. -1.
         11   -1    0    0    0    0 -0.00000000000E+00 -0.00000000000E+00 -0.45593999997E+02  0.45594000000E+02  0.51100000000E-03 0.  1.
    9900012    2    1    2    0    0 -0.29832223970E+02  0.15239870438E+00 -0.11257729516E+02  0.59301932726E+02  0.49999979388E+02 0.  0.
         12    1    1    2    0    0  0.29832223970E+02 -0.15239870438E+00  0.11257729516E+02  0.31886067274E+02  0.00000000000E+00 0. -1.
         11    1    3    3    0    0  0.10873171676E+01 -0.11571356363E+01 -0.40641904434E+01  0.43633548704E+01  0.51100000000E-03 0. -1.
        -11    1    3    3    0    0 -0.24072686807E+02 -0.30039716384E+01  0.16871496487E+02  0.29549373761E+02  0.51100000000E-03 0.  1.
        -12    1    3    3    0    0 -0.68468543303E+01  0.43135059791E+01 -0.24065035559E+02  0.25389204094E+02  0.00000000000E+00 0.  1.
</event>
<event>
 7    1  0.7755875E-012  0.5930193E+02  0.7816164E-02  0.1266605E+00
        -11   -1    0    0    0    0  0.00000000000E+00  0.00000000000E+00  0.45593999997E+02  0.45594000000E+02  0.51100000000E-03 0.  1.
         11   -1    0    0    0    0 -0.00000000000E+00 -0.00000000000E+00 -0.45593999997E+02  0.45594000000E+02  0.51100000000E-03 0. -1.
    9900012    2    1    2    0    0  0.31586195108E+02  0.34273432675E+01 -0.26994822616E+01  0.59301927684E+02  0.49999970193E+02 0.  0.
         12    1    1    2    0    0 -0.31586195108E+02 -0.34273432675E+01  0.26994822616E+01  0.31886072316E+02  0.00000000000E+00 0. -1.
         11    1    3    3    0    0  0.32568810337E+02  0.98789379468E+00  0.92307322047E+01  0.33866056137E+02  0.51100000000E-03 0. -1.
        -11    1    3    3    0    0  0.54869204431E+01  0.10472445948E+02 -0.42011863866E+01  0.12547046960E+02  0.51100000000E-03 0.  1.
         12    1    3    3    0    0 -0.64695356726E+01 -0.80329964755E+01 -0.77290280797E+01  0.12888824588E+02  0.00000000000E+00 0. -1.
</event>
<event>
 7    1  0.7755875E-012  0.5930192E+02  0.7816164E-02  0.1266605E+00
        -11   -1    0    0    0    0  0.00000000000E+00  0.00000000000E+00  0.45593999997E+02  0.45594000000E+02  0.51100000000E-03 0.  1.
         11   -1    0    0    0    0 -0.00000000000E+00 -0.00000000000E+00 -0.45593999997E+02  0.45594000000E+02  0.51100000000E-03 0. -1.
    9900012    2    1    2    0    0 -0.29763262362E+02  0.11433547852E+02 -0.37975641088E+00  0.59301921254E+02  0.49999958465E+02 0.  0.
         12    1    1    2    0    0  0.29763262362E+02 -0.11433547852E+02  0.37975641088E+00  0.31886078746E+02  0.00000000000E+00 0. -1.
         11    1    3    3    0    0 -0.10009985624E+02 -0.16223991944E+01 -0.16582082533E+01  0.10275292998E+02  0.51100000000E-03 0. -1.
        -11    1    3    3    0    0 -0.15186190609E+02  0.28729707344E+02  0.28740089531E+01  0.32623249332E+02  0.51100000000E-03 0.  1.
        -12    1    3    3    0    0 -0.45670861290E+01 -0.15673760298E+02 -0.15955571107E+01  0.16403378923E+02  0.00000000000E+00 0.  1.
</event>
<event>
 7    1  0.7755875E-012  0.5930198E+02  0.7816164E-02  0.1266605E+00
        -11   -1    0    0    0    0  0.00000000000E+00  0.00000000000E+00  0.45593999997E+02  0.45594000000E+02  0.51100000000E-03 0.  1.
         11   -1    0    0    0    0 -0.00000000000E+00 -0.00000000000E+00 -0.45593999997E+02  0.45594000000E+02  0.51100000000E-03 0. -1.
    9900012    2    1    2    0    0 -0.27101049622E+02  0.14549229016E+02  0.84006739276E+01  0.59301979897E+02  0.50000065417E+02 0.  0.
         12    1    1    2    0    0  0.27101049622E+02 -0.14549229016E+02 -0.84006739276E+01  0.31886020103E+02  0.00000000000E+00 0. -1.
         11    1    3    3    0    0  0.67241465454E+01  0.90933509974E+01  0.46971981339E+01  0.12246095284E+02  0.51100000000E-03 0.  1.
        -11    1    3    3    0    0 -0.35764509320E+02  0.96652475473E+01 -0.48141672442E+01  0.37358979424E+02  0.51100000000E-03 0. -1.
        -12    1    3    3    0    0  0.19393131534E+01 -0.42093695284E+01  0.85176430379E+01  0.96969051895E+01  0.00000000000E+00 0.  1.
</event>
<event>
 7    1  0.7755875E-012  0.5930192E+02  0.7816164E-02  0.1266605E+00
        -11   -1    0    0    0    0  0.00000000000E+00  0.00000000000E+00  0.45593999997E+02  0.45594000000E+02  0.51100000000E-03 0. -1.
         11   -1    0    0    0    0 -0.00000000000E+00 -0.00000000000E+00 -0.45593999997E+02  0.45594000000E+02  0.51100000000E-03 0.  1.
    9900012    2    1    2    0    0 -0.20210548823E+02 -0.23526521384E+02 -0.73998943983E+01  0.59301922642E+02  0.49999960998E+02 0.  0.
         12    1    1    2    0    0  0.20210548823E+02  0.23526521384E+02  0.73998943983E+01  0.31886077358E+02  0.00000000000E+00 0. -1.
         11    1    3    3    0    0 -0.18117158151E+02 -0.23544333466E+01  0.78532472877E+01  0.19885881149E+02  0.51100000000E-03 0. -1.
        -11    1    3    3    0    0  0.12250696541E+02 -0.22674989382E+01 -0.70046028943E+01  0.14292850630E+02  0.51100000000E-03 0.  1.
        -12    1    3    3    0    0 -0.14344087213E+02 -0.18904589099E+02 -0.82485387918E+01  0.25123190864E+02  0.00000000000E+00 0.  1.
</event>
<event>
 7    1  0.7755875E-012  0.5930194E+02  0.7816164E-02  0.1266605E+00
        -11   -1    0    0    0    0  0.00000000000E+00  0.00000000000E+00  0.45593999997E+02  0.45594000000E+02  0.51100000000E-03 0. -1.
         11   -1    0    0    0    0 -0.00000000000E+00 -0.00000000000E+00 -0.45593999997E+02  0.45594000000E+02  0.51100000000E-03 0.  1.
    9900012    2    1    2    0    0  0.63652426695E+01 -0.86047598062E+01 -0.30036021469E+02  0.59301940487E+02  0.49999993543E+02 0.  0.
         12    1    1    2    0    0 -0.63652426695E+01  0.86047598062E+01  0.30036021469E+02  0.31886059513E+02  0.00000000000E+00 0. -1.
         11    1    3    3    0    0  0.29927279660E+00  0.27494994548E+01 -0.20893521378E+01  0.34662233159E+01  0.51100000000E-03 0. -1.
        -11    1    3    3    0    0  0.17119935550E+02 -0.25173662667E+02 -0.20081157467E+02  0.36469965325E+02  0.51100000000E-03 0.  1.
        -12    1    3    3    0    0 -0.11053965677E+02  0.13819403406E+02 -0.78655118639E+01  0.19365751846E+02  0.00000000000E+00 0.  1.
</event>
<event>
 7    1  0.7755875E-012  0.5930194E+02  0.7816164E-02  0.1266605E+00
        -11   -1    0    0    0    0  0.00000000000E+00  0.00000000000E+00  0.45593999997E+02  0.45594000000E+02  0.51100000000E-03 0.  1.
         11   -1    0    0    0    0 -0.00000000000E+00 -0.00000000000E+00 -0.45593999997E+02  0.45594000000E+02  0.51100000000E-03 0. -1.
    9900012    2    1    2    0    0 -0.60031323002E+01  0.21397494195E+02  0.22865489084E+02  0.59301938056E+02  0.49999989110E+02 0.  0.
         12    1    1    2    0    0  0.60031323002E+01 -0.21397494195E+02 -0.22865489084E+02  0.31886061944E+02  0.00000000000E+00 0. -1.
         11    1    3    3    0    0 -0.20415608300E+02  0.94747451241E+01 -0.57924944513E+01  0.23240500203E+02  0.51100000000E-03 0. -1.
        -11    1    3    3    0    0  0.74393525956E+01 -0.63891905605E+00  0.86069125594E+01  0.11394346347E+02  0.51100000000E-03 0.  1.
         12    1    3    3    0    0  0.69731234045E+01  0.12561668127E+02  0.20051070976E+02  0.24667091507E+02  0.00000000000E+00 0. -1.
</event>
<event>
 7    1  0.7755875E-012  0.5930194E+02  0.7816164E-02  0.1266605E+00
        -11   -1    0    0    0    0  0.00000000000E+00  0.00000000000E+00  0.45593999997E+02  0.45594000000E+02  0.51100000000E-03 0. -1.
         11   -1    0    0    0    0 -0.00000000000E+00 -0.00000000000E+00 -0.45593999997E+02  0.45594000000E+02  0.51100000000E-03 0.  1.
    9900012    2    1    2    0    0 -0.17123446175E+02  0.21365349269E+02 -0.16341057277E+02  0.59301941742E+02  0.49999995831E+02 0.  0.
         12    1    1    2    0    0  0.17123446175E+02 -0.21365349269E+02  0.16341057277E+02  0.31886058258E+02  0.00000000000E+00 0. -1.
         11    1    3    3    0    0 -0.87954616769E+01  0.28605449111E+02 -0.16741719528E+00  0.29927577478E+02  0.51100000000E-03 0. -1.
        -11    1    3    3    0    0 -0.90180565683E+01 -0.12934224257E+00 -0.19506824654E+02  0.21490888349E+02  0.51100000000E-03 0.  1.
         12    1    3    3    0    0  0.69007207042E+00 -0.71107575991E+01  0.33331845723E+01  0.78834759141E+01  0.00000000000E+00 0. -1.
</event>
<event>
 7    1  0.7755875E-012  0.5930194E+02  0.7816164E-02  0.1266605E+00
        -11   -1    0    0    0    0  0.00000000000E+00  0.00000000000E+00  0.45593999997E+02  0.45594000000E+02  0.51100000000E-03 0. -1.
         11   -1    0    0    0    0 -0.00000000000E+00 -0.00000000000E+00 -0.45593999997E+02  0.45594000000E+02  0.51100000000E-03 0.  1.
    9900012    2    1    2    0    0  0.20592761412E+02 -0.22985577683E+02 -0.80201015439E+01  0.59301942972E+02  0.49999998074E+02 0.  0.
         12    1    1    2    0    0 -0.20592761412E+02  0.22985577683E+02  0.80201015439E+01  0.31886057028E+02  0.00000000000E+00 0. -1.
         11    1    3    3    0    0  0.31864834940E+02 -0.25466714641E+02 -0.91347899767E-01  0.40791293250E+02  0.51100000000E-03 0. -1.
        -11    1    3    3    0    0 -0.26283574812E+01 -0.47676545214E+01 -0.26988104628E+01  0.60763781037E+01  0.51100000000E-03 0.  1.
         12    1    3    3    0    0 -0.86437160463E+01  0.72487914787E+01 -0.52299431814E+01  0.12434271618E+02  0.00000000000E+00 0. -1.
</event>
<event>
 7    1  0.7755875E-012  0.5930194E+02  0.7816164E-02  0.1266605E+00
        -11   -1    0    0    0    0  0.00000000000E+00  0.00000000000E+00  0.45593999997E+02  0.45594000000E+02  0.51100000000E-03 0.  1.
         11   -1    0    0    0    0 -0.00000000000E+00 -0.00000000000E+00 -0.45593999997E+02  0.45594000000E+02  0.51100000000E-03 0. -1.
    9900012    2    1    2    0    0 -0.13758802470E+02  0.22780223450E+02  0.17563533000E+02  0.59301938511E+02  0.49999989938E+02 0.  0.
         12    1    1    2    0    0  0.13758802470E+02 -0.22780223450E+02 -0.17563533000E+02  0.31886061489E+02  0.00000000000E+00 0. -1.
         11    1    3    3    0    0 -0.14026122610E+02  0.32878811356E+02  0.13290957984E+02  0.38136569275E+02  0.51100000000E-03 0. -1.
        -11    1    3    3    0    0 -0.83322393916E+01 -0.85513751790E+01  0.32089374842E+01  0.12363232214E+02  0.51100000000E-03 0.  1.
         12    1    3    3    0    0  0.85995595314E+01 -0.15472127272E+01  0.10636375318E+01  0.88021370221E+01  0.00000000000E+00 0. -1.
</event>
<event>
 7    1  0.7755875E-012  0.5930194E+02  0.7816164E-02  0.1266605E+00
        -11   -1    0    0    0    0  0.00000000000E+00  0.00000000000E+00  0.45593999997E+02  0.45594000000E+02  0.51100000000E-03 0. -1.
         11   -1    0    0    0    0 -0.00000000000E+00 -0.00000000000E+00 -0.45593999997E+02  0.45594000000E+02  0.51100000000E-03 0.  1.
    9900012    2    1    2    0    0 -0.24185441198E+02  0.20194273221E+02 -0.48965633345E+01  0.59301943966E+02  0.49999999888E+02 0.  0.
         12    1    1    2    0    0  0.24185441198E+02 -0.20194273221E+02  0.48965633345E+01  0.31886056034E+02  0.00000000000E+00 0. -1.
         11    1    3    3    0    0  0.15642906934E+01 -0.11894180378E+02 -0.97252743640E+01  0.15443428828E+02  0.51100000000E-03 0.  1.
        -11    1    3    3    0    0 -0.13773588479E+02  0.24998349908E+02  0.78818944862E+01  0.29610023618E+02  0.51100000000E-03 0. -1.
        -12    1    3    3    0    0 -0.11976143413E+02  0.70901036917E+01 -0.30531834567E+01  0.14248491521E+02  0.00000000000E+00 0.  1.
</event>
<event>
 7    1  0.7755875E-012  0.5930195E+02  0.7816164E-02  0.1266605E+00
        -11   -1    0    0    0    0  0.00000000000E+00  0.00000000000E+00  0.45593999997E+02  0.45594000000E+02  0.51100000000E-03 0.  1.
         11   -1    0    0    0    0 -0.00000000000E+00 -0.00000000000E+00 -0.45593999997E+02  0.45594000000E+02  0.51100000000E-03 0. -1.
    9900012    2    1    2    0    0 -0.31181502747E+02  0.31096779237E+01  0.58961133247E+01  0.59301947207E+02  0.50000005799E+02 0.  0.
         12    1    1    2    0    0  0.31181502747E+02 -0.31096779237E+01 -0.58961133247E+01  0.31886052793E+02  0.00000000000E+00 0. -1.
         11    1    3    3    0    0 -0.28623647957E+02  0.78198913371E+01 -0.13322882282E+02  0.32526344945E+02  0.51100000000E-03 0. -1.
        -11    1    3    3    0    0 -0.77978843836E+01  0.28656926976E+01  0.13744118264E+02  0.16059887379E+02  0.51100000000E-03 0.  1.
         12    1    3    3    0    0  0.52400295939E+01 -0.75759061110E+01  0.54748773430E+01  0.10715714884E+02  0.00000000000E+00 0. -1.
</event>
<event>
 7    1  0.7755875E-012  0.5930181E+02  0.7816164E-02  0.1266605E+00
        -11   -1    0    0    0    0  0.00000000000E+00  0.00000000000E+00  0.45593999997E+02  0.45594000000E+02  0.51100000000E-03 0.  1.
         11   -1    0    0    0    0 -0.00000000000E+00 -0.00000000000E+00 -0.45593999997E+02  0.45594000000E+02  0.51100000000E-03 0. -1.
    9900012    2    1    2    0    0  0.15860641780E+02 -0.10817870350E+02  0.25458644005E+02  0.59301814415E+02  0.49999763617E+02 0.  0.
         12    1    1    2    0    0 -0.15860641780E+02  0.10817870350E+02 -0.25458644005E+02  0.31886185585E+02  0.00000000000E+00 0. -1.
         11    1    3    3    0    0 -0.39716332823E+01  0.21552536631E+01 -0.11996192640E+02  0.12819033793E+02  0.51100000000E-03 0. -1.
        -11    1    3    3    0    0  0.19383832523E+01 -0.86592597956E+01  0.93816712677E+01  0.12913398696E+02  0.51100000000E-03 0.  1.
         12    1    3    3    0    0  0.17893891810E+02 -0.43138642171E+01  0.28073165377E+02  0.33569381926E+02  0.00000000000E+00 0. -1.
</event>
<event>
 7    1  0.7755875E-012  0.5930195E+02  0.7816164E-02  0.1266605E+00
        -11   -1    0    0    0    0  0.00000000000E+00  0.00000000000E+00  0.45593999997E+02  0.45594000000E+02  0.51100000000E-03 0. -1.
         11   -1    0    0    0    0 -0.00000000000E+00 -0.00000000000E+00 -0.45593999997E+02  0.45594000000E+02  0.51100000000E-03 0.  1.
    9900012    2    1    2    0    0 -0.30927636646E+02  0.52342195623E+01  0.57275217294E+01  0.59301948691E+02  0.50000008505E+02 0.  0.
         12    1    1    2    0    0  0.30927636646E+02 -0.52342195623E+01 -0.57275217294E+01  0.31886051309E+02  0.00000000000E+00 0. -1.
         11    1    3    3    0    0 -0.14841031689E+02 -0.41969259329E+01  0.73895819213E+01  0.17101939367E+02  0.51100000000E-03 0. -1.
        -11    1    3    3    0    0  0.31530267958E+01  0.16356868880E+02  0.92170011704E+01  0.19037905566E+02  0.51100000000E-03 0.  1.
        -12    1    3    3    0    0 -0.19239631752E+02 -0.69257233844E+01 -0.10879061362E+02  0.23162103758E+02  0.00000000000E+00 0.  1.
</event>
<event>
 7    1  0.7755875E-012  0.5930199E+02  0.7816164E-02  0.1266605E+00
        -11   -1    0    0    0    0  0.00000000000E+00  0.00000000000E+00  0.45593999997E+02  0.45594000000E+02  0.51100000000E-03 0.  1.
         11   -1    0    0    0    0 -0.00000000000E+00 -0.00000000000E+00 -0.45593999997E+02  0.45594000000E+02  0.51100000000E-03 0. -1.
    9900012    2    1    2    0    0 -0.36879026940E+01  0.76439118528E+01  0.30735770258E+02  0.59301990716E+02  0.50000085149E+02 0.  0.
         12    1    1    2    0    0  0.36879026940E+01 -0.76439118528E+01 -0.30735770258E+02  0.31886009284E+02  0.00000000000E+00 0. -1.
         11    1    3    3    0    0 -0.13426247999E+02  0.19127666478E+02  0.62032800987E+01  0.24178760193E+02  0.51100000000E-03 0. -1.
        -11    1    3    3    0    0  0.28743840998E+01 -0.15229272194E+02  0.21986494297E+02  0.26899790841E+02  0.51100000000E-03 0.  1.
        -12    1    3    3    0    0  0.68639612051E+01  0.37455175687E+01  0.25459958618E+01  0.82234396825E+01  0.00000000000E+00 0.  1.
</event>
<event>
 7    1  0.7755875E-012  0.5930193E+02  0.7816164E-02  0.1266605E+00
        -11   -1    0    0    0    0  0.00000000000E+00  0.00000000000E+00  0.45593999997E+02  0.45594000000E+02  0.51100000000E-03 0. -1.
         11   -1    0    0    0    0 -0.00000000000E+00 -0.00000000000E+00 -0.45593999997E+02  0.45594000000E+02  0.51100000000E-03 0.  1.
    9900012    2    1    2    0    0  0.30309300317E+02  0.88669510036E+01  0.44096124112E+01  0.59301934274E+02  0.49999982212E+02 0.  0.
         12    1    1    2    0    0 -0.30309300317E+02 -0.88669510036E+01 -0.44096124112E+01  0.31886065726E+02  0.00000000000E+00 0. -1.
         11    1    3    3    0    0  0.37252121388E+02  0.73458334965E+01  0.68251125830E+01  0.38578024570E+02  0.51100000000E-03 0. -1.
        -11    1    3    3    0    0 -0.10967917121E+01  0.87201630656E+01  0.37839662066E+01  0.95688346451E+01  0.51100000000E-03 0.  1.
         12    1    3    3    0    0 -0.58460293584E+01 -0.71990455585E+01 -0.61994663784E+01  0.11155075060E+02  0.00000000000E+00 0. -1.
</event>
<event>
 7    1  0.7755875E-012  0.5930193E+02  0.7816164E-02  0.1266605E+00
        -11   -1    0    0    0    0  0.00000000000E+00  0.00000000000E+00  0.45593999997E+02  0.45594000000E+02  0.51100000000E-03 0.  1.
         11   -1    0    0    0    0 -0.00000000000E+00 -0.00000000000E+00 -0.45593999997E+02  0.45594000000E+02  0.51100000000E-03 0. -1.
    9900012    2    1    2    0    0  0.28798846151E+02 -0.36542785171E+00 -0.13682621719E+02  0.59301933854E+02  0.49999981446E+02 0.  0.
         12    1    1    2    0    0 -0.28798846151E+02  0.36542785171E+00  0.13682621719E+02  0.31886066146E+02  0.00000000000E+00 0. -1.
         11    1    3    3    0    0  0.61112266594E+01 -0.82984233621E+01  0.13181007762E+02  0.16731703065E+02  0.51100000000E-03 0.  1.
        -11    1    3    3    0    0  0.14893716721E+02  0.15552661934E+02 -0.21472406258E+02  0.30410069414E+02  0.51100000000E-03 0. -1.
         12    1    3    3    0    0  0.77939027709E+01 -0.76196664239E+01 -0.53912232229E+01  0.12160161374E+02  0.00000000000E+00 0. -1.
</event>
<event>
 7    1  0.7755875E-012  0.5930195E+02  0.7816164E-02  0.1266605E+00
        -11   -1    0    0    0    0  0.00000000000E+00  0.00000000000E+00  0.45593999997E+02  0.45594000000E+02  0.51100000000E-03 0. -1.
         11   -1    0    0    0    0 -0.00000000000E+00 -0.00000000000E+00 -0.45593999997E+02  0.45594000000E+02  0.51100000000E-03 0.  1.
    9900012    2    1    2    0    0 -0.10520199127E+02 -0.18031882924E+02 -0.24101798962E+02  0.59301951254E+02  0.50000013178E+02 0.  0.
         12    1    1    2    0    0  0.10520199127E+02  0.18031882924E+02  0.24101798962E+02  0.31886048746E+02  0.00000000000E+00 0. -1.
         11    1    3    3    0    0  0.84335160722E+01  0.12906483525E+02 -0.12720604317E+00  0.15418096249E+02  0.51100000000E-03 0. -1.
        -11    1    3    3    0    0 -0.17555072307E+02 -0.25161664491E+02 -0.18651302408E+02  0.35904888322E+02  0.51100000000E-03 0.  1.
         12    1    3    3    0    0 -0.13986428925E+01 -0.57767019578E+01 -0.53232905105E+01  0.79789666818E+01  0.00000000000E+00 0. -1.
</event>
<event>
 7    1  0.7755875E-012  0.5930193E+02  0.7816164E-02  0.1266605E+00
        -11   -1    0    0    0    0  0.00000000000E+00  0.00000000000E+00  0.45593999997E+02  0.45594000000E+02  0.51100000000E-03 0. -1.
         11   -1    0    0    0    0 -0.00000000000E+00 -0.00000000000E+00 -0.45593999997E+02  0.45594000000E+02  0.51100000000E-03 0.  1.
    9900012    2    1    2    0    0  0.11291308142E+02  0.20369729979E+02 -0.21778472274E+02  0.59301931042E+02  0.49999976318E+02 0.  0.
         12    1    1    2    0    0 -0.11291308142E+02 -0.20369729979E+02  0.21778472274E+02  0.31886068958E+02  0.00000000000E+00 0. -1.
         11    1    3    3    0    0  0.97868459907E+00 -0.11123996114E+02 -0.16998710412E+02  0.20338566051E+02  0.51100000000E-03 0. -1.
        -11    1    3    3    0    0  0.97112774393E+01  0.32676190214E+02 -0.83993957412E+01  0.35108291976E+02  0.51100000000E-03 0.  1.
         12    1    3    3    0    0  0.60134610349E+00 -0.11824641207E+01  0.36196338792E+01  0.38550730151E+01  0.00000000000E+00 0. -1.
</event>
<event>
 7    1  0.7755875E-012  0.5930196E+02  0.7816164E-02  0.1266605E+00
        -11   -1    0    0    0    0  0.00000000000E+00  0.00000000000E+00  0.45593999997E+02  0.45594000000E+02  0.51100000000E-03 0. -1.
         11   -1    0    0    0    0 -0.00000000000E+00 -0.00000000000E+00 -0.45593999997E+02  0.45594000000E+02  0.51100000000E-03 0.  1.
    9900012    2    1    2    0    0 -0.28653943598E+02  0.92363600741E+01  0.10505285061E+02  0.59301955320E+02  0.50000020594E+02 0.  0.
         12    1    1    2    0    0  0.28653943598E+02 -0.92363600741E+01 -0.10505285061E+02  0.31886044680E+02  0.00000000000E+00 0. -1.
         11    1    3    3    0    0  0.45268779632E-01  0.53176394254E+01  0.15094403915E+02  0.16003761062E+02  0.51100000000E-03 0. -1.
        -11    1    3    3    0    0 -0.24198998471E+02 -0.10233631868E+02 -0.90551862092E+01  0.27790558572E+02  0.51100000000E-03 0.  1.
        -12    1    3    3    0    0 -0.45002139063E+01  0.14152352516E+02  0.44660673554E+01  0.15507635686E+02  0.00000000000E+00 0.  1.
</event>
<event>
 7    1  0.7755875E-012  0.5930192E+02  0.7816164E-02  0.1266605E+00
        -11   -1    0    0    0    0  0.00000000000E+00  0.00000000000E+00  0.45593999997E+02  0.45594000000E+02  0.51100000000E-03 0.  1.
         11   -1    0    0    0    0 -0.00000000000E+00 -0.00000000000E+00 -0.45593999997E+02  0.45594000000E+02  0.51100000000E-03 0. -1.
    9900012    2    1    2    0    0 -0.11201255224E+01 -0.27451697658E+02  0.16182456453E+02  0.59301917105E+02  0.49999950900E+02 0.  0.
         12    1    1    2    0    0  0.11201255224E+01  0.27451697658E+02 -0.16182456453E+02  0.31886082895E+02  0.00000000000E+00 0. -1.
         11    1    3    3    0    0 -0.95121325987E+01 -0.24566012617E+02  0.11441476878E+02  0.28720672623E+02  0.51100000000E-03 0. -1.
        -11    1    3    3    0    0  0.16441794119E+02  0.17680954576E+01  0.10552125461E+02  0.19616475407E+02  0.51100000000E-03 0.  1.
        -12    1    3    3    0    0 -0.80497870427E+01 -0.46537804984E+01 -0.58111458863E+01  0.10964769075E+02  0.00000000000E+00 0.  1.
</event>
<event>
 7    1  0.7755875E-012  0.5930190E+02  0.7816164E-02  0.1266605E+00
        -11   -1    0    0    0    0  0.00000000000E+00  0.00000000000E+00  0.45593999997E+02  0.45594000000E+02  0.51100000000E-03 0.  1.
         11   -1    0    0    0    0 -0.00000000000E+00 -0.00000000000E+00 -0.45593999997E+02  0.45594000000E+02  0.51100000000E-03 0. -1.
    9900012    2    1    2    0    0 -0.16334250567E+02  0.14774717235E+02  0.23056961561E+02  0.59301898209E+02  0.49999916438E+02 0.  0.
         12    1    1    2    0    0  0.16334250567E+02 -0.14774717235E+02 -0.23056961561E+02  0.31886101791E+02  0.00000000000E+00 0. -1.
         11    1    3    3    0    0  0.99526864459E+01  0.13521023018E+02  0.12216578332E+02  0.20763400910E+02  0.51100000000E-03 0. -1.
        -11    1    3    3    0    0 -0.14699601752E+02 -0.11957628858E+01  0.19076617369E+02  0.24112765728E+02  0.51100000000E-03 0.  1.
         12    1    3    3    0    0 -0.11587335262E+02  0.24494571033E+01 -0.82362341398E+01  0.14425731572E+02  0.00000000000E+00 0. -1.
</event>
<event>
 7    1  0.7755875E-012  0.5930193E+02  0.7816164E-02  0.1266605E+00
        -11   -1    0    0    0    0  0.00000000000E+00  0.00000000000E+00  0.45593999997E+02  0.45594000000E+02  0.51100000000E-03 0.  1.
         11   -1    0    0    0    0 -0.00000000000E+00 -0.00000000000E+00 -0.45593999997E+02  0.45594000000E+02  0.51100000000E-03 0. -1.
    9900012    2    1    2    0    0 -0.42134202372E+01 -0.23976363029E+02  0.20593743003E+02  0.59301934939E+02  0.49999983425E+02 0.  0.
         12    1    1    2    0    0  0.42134202372E+01  0.23976363029E+02 -0.20593743003E+02  0.31886065061E+02  0.00000000000E+00 0. -1.
         11    1    3    3    0    0  0.89538381725E+00  0.63158551896E+01 -0.31793264342E+01  0.71274017561E+01  0.51100000000E-03 0.  1.
        -11    1    3    3    0    0 -0.29228843163E+01 -0.35480850320E+02  0.95232946906E+01  0.36852776479E+02  0.51100000000E-03 0. -1.
        -12    1    3    3    0    0 -0.21859197381E+01  0.51886321018E+01  0.14249774746E+02  0.15321756704E+02  0.00000000000E+00 0.  1.
</event>
<event>
 7    1  0.7755875E-012  0.5930192E+02  0.7816164E-02  0.1266605E+00
        -11   -1    0    0    0    0  0.00000000000E+00  0.00000000000E+00  0.45593999997E+02  0.45594000000E+02  0.51100000000E-03 0.  1.
         11   -1    0    0    0    0 -0.00000000000E+00 -0.00000000000E+00 -0.45593999997E+02  0.45594000000E+02  0.51100000000E-03 0. -1.
    9900012    2    1    2    0    0 -0.11972070952E+02 -0.23653351613E+02  0.17717514637E+02  0.59301923881E+02  0.49999963257E+02 0.  0.
         12    1    1    2    0    0  0.11972070952E+02  0.23653351613E+02 -0.17717514637E+02  0.31886076119E+02  0.00000000000E+00 0. -1.
         11    1    3    3    0    0  0.85577019023E+00  0.96394460373E+01  0.11496790432E+02  0.15027556456E+02  0.51100000000E-03 0. -1.
        -11    1    3    3    0    0 -0.10109792422E+02 -0.29609222600E+02  0.14753142473E+02  0.34591461069E+02  0.51100000000E-03 0.  1.
         12    1    3    3    0    0 -0.27180487203E+01 -0.36835750497E+01 -0.85324182684E+01  0.96829063561E+01  0.00000000000E+00 0. -1.
</event>
<event>
 7    1  0.7755875E-012  0.5930195E+02  0.7816164E-02  0.1266605E+00
        -11   -1    0    0    0    0  0.00000000000E+00  0.00000000000E+00  0.45593999997E+02  0.45594000000E+02  0.51100000000E-03 0.  1.
         11   -1    0    0    0    0 -0.00000000000E+00 -0.00000000000E+00 -0.45593999997E+02  0.45594000000E+02  0.51100000000E-03 0. -1.
    9900012    2    1    2    0    0 -0.87073127069E+01 -0.68880899742E+00  0.30666405882E+02  0.59301949725E+02  0.50000010391E+02 0.  0.
         12    1    1    2    0    0  0.87073127069E+01  0.68880899742E+00 -0.30666405882E+02  0.31886050275E+02  0.00000000000E+00 0. -1.
         11    1    3    3    0    0 -0.16872443303E+02  0.12663846999E+02  0.28354328170E+01  0.21285958831E+02  0.51100000000E-03 0. -1.
        -11    1    3    3    0    0  0.10553723220E+02 -0.12035806458E+02  0.78119750361E+01  0.17812037086E+02  0.51100000000E-03 0.  1.
         12    1    3    3    0    0 -0.23885926239E+01 -0.13168495384E+01  0.20018998029E+02  0.20203953809E+02  0.00000000000E+00 0. -1.
</event>
<event>
 7    1  0.7755875E-012  0.5930194E+02  0.7816164E-02  0.1266605E+00
        -11   -1    0    0    0    0  0.00000000000E+00  0.00000000000E+00  0.45593999997E+02  0.45594000000E+02  0.51100000000E-03 0.  1.
         11   -1    0    0    0    0 -0.00000000000E+00 -0.00000000000E+00 -0.45593999997E+02  0.45594000000E+02  0.51100000000E-03 0. -1.
    9900012    2    1    2    0    0 -0.10669513532E+02  0.92683636763E+01  0.28582855504E+02  0.59301941715E+02  0.49999995781E+02 0.  0.
         12    1    1    2    0    0  0.10669513532E+02 -0.92683636763E+01 -0.28582855504E+02  0.31886058285E+02  0.00000000000E+00 0. -1.
         11    1    3    3    0    0 -0.15323916658E+02 -0.11710965772E+01  0.25765145235E+02  0.30000609964E+02  0.51100000000E-03 0.  1.
        -11    1    3    3    0    0 -0.86772024912E+01  0.18227344182E+01 -0.64093356608E+01  0.10940557011E+02  0.51100000000E-03 0. -1.
        -12    1    3    3    0    0  0.13331605618E+02  0.86167258353E+01  0.92270459290E+01  0.18360774740E+02  0.00000000000E+00 0.  1.
</event>
<event>
 7    1  0.7755875E-012  0.5930170E+02  0.7816164E-02  0.1266606E+00
        -11   -1    0    0    0    0  0.00000000000E+00  0.00000000000E+00  0.45593999997E+02  0.45594000000E+02  0.51100000000E-03 0.  1.
         11   -1    0    0    0    0 -0.00000000000E+00 -0.00000000000E+00 -0.45593999997E+02  0.45594000000E+02  0.51100000000E-03 0. -1.
    9900012    2    1    2    0    0  0.14240213712E+02  0.28494975664E+02 -0.14103139475E+01  0.59301697140E+02  0.49999549733E+02 0.  0.
         12    1    1    2    0    0 -0.14240213712E+02 -0.28494975664E+02  0.14103139475E+01  0.31886302860E+02  0.00000000000E+00 0. -1.
         11    1    3    3    0    0 -0.19465120568E+01  0.13504897318E+02 -0.57195840564E+01  0.14794755923E+02  0.51100000000E-03 0. -1.
        -11    1    3    3    0    0 -0.33398643928E+01 -0.80741450816E+01 -0.80279273905E+01  0.11865670289E+02  0.51100000000E-03 0.  1.
        -12    1    3    3    0    0  0.19526590161E+02  0.23064223428E+02  0.12337197499E+02  0.32641270928E+02  0.00000000000E+00 0.  1.
</event>
<event>
 7    1  0.7755875E-012  0.5930190E+02  0.7816164E-02  0.1266605E+00
        -11   -1    0    0    0    0  0.00000000000E+00  0.00000000000E+00  0.45593999997E+02  0.45594000000E+02  0.51100000000E-03 0.  1.
         11   -1    0    0    0    0 -0.00000000000E+00 -0.00000000000E+00 -0.45593999997E+02  0.45594000000E+02  0.51100000000E-03 0. -1.
    9900012    2    1    2    0    0 -0.20633127297E+01  0.30664161301E+02  0.84956022575E+01  0.59301901062E+02  0.49999921641E+02 0.  0.
         12    1    1    2    0    0  0.20633127297E+01 -0.30664161301E+02 -0.84956022575E+01  0.31886098938E+02  0.00000000000E+00 0. -1.
         11    1    3    3    0    0 -0.16772932365E+02  0.11592799561E+00 -0.89798912707E+00  0.16797353486E+02  0.51100000000E-03 0. -1.
        -11    1    3    3    0    0  0.35532862789E+01  0.29181164370E+02  0.10488015392E+02  0.31211611052E+02  0.51100000000E-03 0.  1.
         12    1    3    3    0    0  0.11156333356E+02  0.13670689363E+01 -0.10944240074E+01  0.11292936524E+02  0.00000000000E+00 0. -1.
</event>
<event>
 7    1  0.7755875E-012  0.5930193E+02  0.7816164E-02  0.1266605E+00
        -11   -1    0    0    0    0  0.00000000000E+00  0.00000000000E+00  0.45593999997E+02  0.45594000000E+02  0.51100000000E-03 0. -1.
         11   -1    0    0    0    0 -0.00000000000E+00 -0.00000000000E+00 -0.45593999997E+02  0.45594000000E+02  0.51100000000E-03 0.  1.
    9900012    2    1    2    0    0  0.40708234549E+01  0.11344171577E+02 -0.29520490468E+02  0.59301934237E+02  0.49999982144E+02 0.  0.
         12    1    1    2    0    0 -0.40708234549E+01 -0.11344171577E+02  0.29520490468E+02  0.31886065763E+02  0.00000000000E+00 0. -1.
         11    1    3    3    0    0 -0.93715223328E+01  0.95237894808E+01 -0.20085959300E+01  0.13511567443E+02  0.51100000000E-03 0. -1.
        -11    1    3    3    0    0  0.14464249225E+01  0.24895874646E+01 -0.32611472073E+02  0.32738330773E+02  0.51100000000E-03 0.  1.
         12    1    3    3    0    0  0.11995920865E+02 -0.66920536802E+00  0.50995775352E+01  0.13052036020E+02  0.00000000000E+00 0. -1.
</event>
<event>
 7    1  0.7755875E-012  0.5930194E+02  0.7816164E-02  0.1266605E+00
        -11   -1    0    0    0    0  0.00000000000E+00  0.00000000000E+00  0.45593999997E+02  0.45594000000E+02  0.51100000000E-03 0.  1.
         11   -1    0    0    0    0 -0.00000000000E+00 -0.00000000000E+00 -0.45593999997E+02  0.45594000000E+02  0.51100000000E-03 0. -1.
    9900012    2    1    2    0    0  0.18456698931E+02  0.22017151014E+02  0.13831696639E+02  0.59301944959E+02  0.50000001698E+02 0.  0.
         12    1    1    2    0    0 -0.18456698931E+02 -0.22017151014E+02 -0.13831696639E+02  0.31886055041E+02  0.00000000000E+00 0. -1.
         11    1    3    3    0    0  0.16329833193E+02  0.16949110345E+02 -0.78746818926E+01  0.24818267642E+02  0.51100000000E-03 0. -1.
        -11    1    3    3    0    0  0.26797979582E+01  0.69563854184E+01  0.27433319282E+02  0.28428148414E+02  0.51100000000E-03 0.  1.
        -12    1    3    3    0    0 -0.55293222032E+00 -0.18883447489E+01 -0.57269407503E+01  0.60555289024E+01  0.00000000000E+00 0.  1.
</event>
<event>
 7    1  0.7755875E-012  0.5930195E+02  0.7816164E-02  0.1266605E+00
        -11   -1    0    0    0    0  0.00000000000E+00  0.00000000000E+00  0.45593999997E+02  0.45594000000E+02  0.51100000000E-03 0.  1.
         11   -1    0    0    0    0 -0.00000000000E+00 -0.00000000000E+00 -0.45593999997E+02  0.45594000000E+02  0.51100000000E-03 0. -1.
    9900012    2    1    2    0    0 -0.18060359916E+02 -0.20298555919E+02  0.16688681164E+02  0.59301952084E+02  0.50000014693E+02 0.  0.
         12    1    1    2    0    0  0.18060359916E+02  0.20298555919E+02 -0.16688681164E+02  0.31886047916E+02  0.00000000000E+00 0. -1.
         11    1    3    3    0    0 -0.57507330337E+01 -0.72898909669E+01 -0.17919695650E+02  0.20182391662E+02  0.51100000000E-03 0. -1.
        -11    1    3    3    0    0 -0.42376626622E+01 -0.37811847684E+01  0.78773990754E+01  0.97112594212E+01  0.51100000000E-03 0.  1.
         12    1    3    3    0    0 -0.80719642202E+01 -0.92274801831E+01  0.26730977739E+02  0.29408301001E+02  0.00000000000E+00 0. -1.
</event>
<event>
 7    1  0.7755875E-012  0.5930231E+02  0.7816164E-02  0.1266603E+00
        -11   -1    0    0    0    0  0.00000000000E+00  0.00000000000E+00  0.45593999997E+02  0.45594000000E+02  0.51100000000E-03 0.  1.
         11   -1    0    0    0    0 -0.00000000000E+00 -0.00000000000E+00 -0.45593999997E+02  0.45594000000E+02  0.51100000000E-03 0. -1.
    9900012    2    1    2    0    0 -0.73828435470E+01 -0.29618146144E+02  0.92171634217E+01  0.59302312593E+02  0.50000672170E+02 0.  0.
         12    1    1    2    0    0  0.73828435470E+01  0.29618146144E+02 -0.92171634217E+01  0.31885687407E+02  0.00000000000E+00 0. -1.
         11    1    3    3    0    0  0.17763728330E+02 -0.65650904686E+01 -0.28240585602E+01  0.19147474091E+02  0.51100000000E-03 0. -1.
        -11    1    3    3    0    0 -0.15876279498E+02 -0.23785043102E+02  0.11554367854E+02  0.30842956130E+02  0.51100000000E-03 0.  1.
         12    1    3    3    0    0 -0.92702923788E+01  0.73198742576E+00  0.48685412792E+00  0.93118823727E+01  0.00000000000E+00 0. -1.
</event>
<event>
 7    1  0.7755875E-012  0.5930193E+02  0.7816164E-02  0.1266605E+00
        -11   -1    0    0    0    0  0.00000000000E+00  0.00000000000E+00  0.45593999997E+02  0.45594000000E+02  0.51100000000E-03 0. -1.
         11   -1    0    0    0    0 -0.00000000000E+00 -0.00000000000E+00 -0.45593999997E+02  0.45594000000E+02  0.51100000000E-03 0.  1.
    9900012    2    1    2    0    0 -0.84277843687E+01 -0.11262040893E+02 -0.28615734016E+02  0.59301931761E+02  0.49999977629E+02 0.  0.
         12    1    1    2    0    0  0.84277843687E+01  0.11262040893E+02  0.28615734016E+02  0.31886068239E+02  0.00000000000E+00 0. -1.
         11    1    3    3    0    0  0.22650264811E+01 -0.18679039720E+02 -0.32777440073E+02  0.37794145681E+02  0.51100000000E-03 0.  1.
        -11    1    3    3    0    0 -0.11241538527E+02 -0.21452769839E+01  0.31896226699E+01  0.11880576367E+02  0.51100000000E-03 0. -1.
        -12    1    3    3    0    0  0.54872767695E+00  0.95622758104E+01  0.97208338684E+00  0.96272097125E+01  0.00000000000E+00 0.  1.
</event>
<event>
 7    1  0.7755875E-012  0.5930195E+02  0.7816164E-02  0.1266605E+00
        -11   -1    0    0    0    0  0.00000000000E+00  0.00000000000E+00  0.45593999997E+02  0.45594000000E+02  0.51100000000E-03 0. -1.
         11   -1    0    0    0    0 -0.00000000000E+00 -0.00000000000E+00 -0.45593999997E+02  0.45594000000E+02  0.51100000000E-03 0.  1.
    9900012    2    1    2    0    0  0.85735032273E+01 -0.30336177030E+02  0.47887223937E+01  0.59301945736E+02  0.50000003115E+02 0.  0.
         12    1    1    2    0    0 -0.85735032273E+01  0.30336177030E+02 -0.47887223937E+01  0.31886054264E+02  0.00000000000E+00 0. -1.
         11    1    3    3    0    0 -0.10298150489E+00 -0.15440671807E+00  0.97105551748E+01  0.97123286954E+01  0.51100000000E-03 0. -1.
        -11    1    3    3    0    0  0.55781812790E+01 -0.38591071452E+02  0.72167827399E+00  0.38998816930E+02  0.51100000000E-03 0.  1.
        -12    1    3    3    0    0  0.30983034531E+01  0.84093011394E+01 -0.56435110550E+01  0.10590800110E+02  0.00000000000E+00 0.  1.
</event>
<event>
 7    1  0.7755875E-012  0.5930203E+02  0.7816164E-02  0.1266604E+00
        -11   -1    0    0    0    0  0.00000000000E+00  0.00000000000E+00  0.45593999997E+02  0.45594000000E+02  0.51100000000E-03 0.  1.
         11   -1    0    0    0    0 -0.00000000000E+00 -0.00000000000E+00 -0.45593999997E+02  0.45594000000E+02  0.51100000000E-03 0. -1.
    9900012    2    1    2    0    0  0.27502230159E+02  0.15770622799E+02  0.34102987429E+01  0.59302025893E+02  0.50000149303E+02 0.  0.
         12    1    1    2    0    0 -0.27502230159E+02 -0.15770622799E+02 -0.34102987429E+01  0.31885974107E+02  0.00000000000E+00 0. -1.
         11    1    3    3    0    0 -0.16951948770E+01 -0.11653636032E+01 -0.24181089421E+01  0.31747455198E+01  0.51100000000E-03 0. -1.
        -11    1    3    3    0    0  0.36947551309E+02 -0.19875690053E+00  0.51869141571E+01  0.37310389046E+02  0.51100000000E-03 0.  1.
        -12    1    3    3    0    0 -0.77501262723E+01  0.17134743303E+02  0.64149352789E+00  0.18816891328E+02  0.00000000000E+00 0.  1.
</event>
<event>
 7    1  0.7755875E-012  0.5930195E+02  0.7816164E-02  0.1266605E+00
        -11   -1    0    0    0    0  0.00000000000E+00  0.00000000000E+00  0.45593999997E+02  0.45594000000E+02  0.51100000000E-03 0.  1.
         11   -1    0    0    0    0 -0.00000000000E+00 -0.00000000000E+00 -0.45593999997E+02  0.45594000000E+02  0.51100000000E-03 0. -1.
    9900012    2    1    2    0    0  0.17758088378E+02 -0.62038328408E+01  0.25746516893E+02  0.59301946985E+02  0.50000005393E+02 0.  0.
         12    1    1    2    0    0 -0.17758088378E+02  0.62038328408E+01 -0.25746516893E+02  0.31886053015E+02  0.00000000000E+00 0. -1.
         11    1    3    3    0    0  0.17248767703E+02  0.13162319049E+01  0.18636956777E+01  0.17399017660E+02  0.51100000000E-03 0. -1.
        -11    1    3    3    0    0  0.18194450498E+01  0.12437802810E+02  0.16135785335E+02  0.20454165533E+02  0.51100000000E-03 0.  1.
        -12    1    3    3    0    0 -0.13101243749E+01 -0.19957867556E+02  0.77470358809E+01  0.21448763792E+02  0.00000000000E+00 0.  1.
</event>
<event>
 7    1  0.7755875E-012  0.5930190E+02  0.7816164E-02  0.1266605E+00
        -11   -1    0    0    0    0  0.00000000000E+00  0.00000000000E+00  0.45593999997E+02  0.45594000000E+02  0.51100000000E-03 0. -1.
         11   -1    0    0    0    0 -0.00000000000E+00 -0.00000000000E+00 -0.45593999997E+02  0.45594000000E+02  0.51100000000E-03 0.  1.
    9900012    2    1    2    0    0 -0.29140709675E+02  0.97473745079E+01 -0.85165162638E+01  0.59301900843E+02  0.49999921241E+02 0.  0.
         12    1    1    2    0    0  0.29140709675E+02 -0.97473745079E+01  0.85165162638E+01  0.31886099157E+02  0.00000000000E+00 0. -1.
         11    1    3    3    0    0 -0.23557170429E+02 -0.24122365240E+01  0.17740543757E+02  0.29588613633E+02  0.51100000000E-03 0. -1.
        -11    1    3    3    0    0 -0.24505251060E+01  0.94525189486E+01 -0.18156582141E+02  0.20615932263E+02  0.51100000000E-03 0.  1.
         12    1    3    3    0    0 -0.31330141399E+01  0.27070920833E+01 -0.81004778799E+01  0.90973549470E+01  0.00000000000E+00 0. -1.
</event>
<event>
 7    1  0.7755875E-012  0.5930196E+02  0.7816164E-02  0.1266605E+00
        -11   -1    0    0    0    0  0.00000000000E+00  0.00000000000E+00  0.45593999997E+02  0.45594000000E+02  0.51100000000E-03 0.  1.
         11   -1    0    0    0    0 -0.00000000000E+00 -0.00000000000E+00 -0.45593999997E+02  0.45594000000E+02  0.51100000000E-03 0. -1.
    9900012    2    1    2    0    0 -0.22546388031E+02  0.26548492862E+01  0.22390430903E+02  0.59301964906E+02  0.50000038078E+02 0.  0.
         12    1    1    2    0    0  0.22546388031E+02 -0.26548492862E+01 -0.22390430903E+02  0.31886035094E+02  0.00000000000E+00 0. -1.
         11    1    3    3    0    0 -0.11900253376E+02 -0.21556379520E+02  0.18021730487E+02  0.30513542870E+02  0.51100000000E-03 0. -1.
        -11    1    3    3    0    0  0.15990054194E+01  0.72286309124E+01  0.13504337719E-01  0.74033847548E+01  0.51100000000E-03 0.  1.
         12    1    3    3    0    0 -0.12245140074E+02  0.16982597894E+02  0.43551960778E+01  0.21385037282E+02  0.00000000000E+00 0. -1.
</event>
<event>
 7    1  0.7755875E-012  0.5930193E+02  0.7816164E-02  0.1266605E+00
        -11   -1    0    0    0    0  0.00000000000E+00  0.00000000000E+00  0.45593999997E+02  0.45594000000E+02  0.51100000000E-03 0. -1.
         11   -1    0    0    0    0 -0.00000000000E+00 -0.00000000000E+00 -0.45593999997E+02  0.45594000000E+02  0.51100000000E-03 0.  1.
    9900012    2    1    2    0    0 -0.23419695573E+02  0.10012657586E+02 -0.19182963094E+02  0.59301928970E+02  0.49999972538E+02 0.  0.
         12    1    1    2    0    0  0.23419695573E+02 -0.10012657586E+02  0.19182963094E+02  0.31886071030E+02  0.00000000000E+00 0. -1.
         11    1    3    3    0    0 -0.13438509048E+01  0.17346528894E+02  0.43974036901E+00  0.17404061933E+02  0.51100000000E-03 0. -1.
        -11    1    3    3    0    0 -0.59857692603E+01 -0.16871015561E+02 -0.64810680814E+01  0.19038509485E+02  0.51100000000E-03 0.  1.
        -12    1    3    3    0    0 -0.16090075408E+02  0.95371442523E+01 -0.13141635382E+02  0.22859357551E+02  0.00000000000E+00 0.  1.
</event>
<event>
 7    1  0.7755875E-012  0.5930196E+02  0.7816164E-02  0.1266605E+00
        -11   -1    0    0    0    0  0.00000000000E+00  0.00000000000E+00  0.45593999997E+02  0.45594000000E+02  0.51100000000E-03 0. -1.
         11   -1    0    0    0    0 -0.00000000000E+00 -0.00000000000E+00 -0.45593999997E+02  0.45594000000E+02  0.51100000000E-03 0.  1.
    9900012    2    1    2    0    0  0.12949500458E+02 -0.19609081932E+02 -0.21552577378E+02  0.59301964687E+02  0.50000037677E+02 0.  0.
         12    1    1    2    0    0 -0.12949500458E+02  0.19609081932E+02  0.21552577378E+02  0.31886035313E+02  0.00000000000E+00 0. -1.
         11    1    3    3    0    0 -0.65574758432E+01  0.47808898453E+00 -0.19584216340E+01  0.68603552437E+01  0.51100000000E-03 0. -1.
        -11    1    3    3    0    0  0.28691572735E+02 -0.84402101733E+01 -0.22374584538E+02  0.37350575997E+02  0.51100000000E-03 0.  1.
        -12    1    3    3    0    0 -0.91845964334E+01 -0.11646960744E+02  0.27804287940E+01  0.15091033447E+02  0.00000000000E+00 0.  1.
</event>
<event>
 7    1  0.7755875E-012  0.5930193E+02  0.7816164E-02  0.1266605E+00
        -11   -1    0    0    0    0  0.00000000000E+00  0.00000000000E+00  0.45593999997E+02  0.45594000000E+02  0.51100000000E-03 0.  1.
         11   -1    0    0    0    0 -0.00000000000E+00 -0.00000000000E+00 -0.45593999997E+02  0.45594000000E+02  0.51100000000E-03 0. -1.
    9900012    2    1    2    0    0 -0.27085156741E+02  0.21669518619E+01  0.16685921776E+02  0.59301931231E+02  0.49999976661E+02 0.  0.
         12    1    1    2    0    0  0.27085156741E+02 -0.21669518619E+01 -0.16685921776E+02  0.31886068769E+02  0.00000000000E+00 0. -1.
         11    1    3    3    0    0 -0.15795002743E+02 -0.58190357091E+01  0.24869598363E+02  0.30030654526E+02  0.51100000000E-03 0.  1.
        -11    1    3    3    0    0 -0.33408480304E+01  0.51065187443E+01 -0.16389799332E+02  0.17488948557E+02  0.51100000000E-03 0. -1.
         12    1    3    3    0    0 -0.79493059673E+01  0.28794688267E+01  0.82061227440E+01  0.11782328147E+02  0.00000000000E+00 0. -1.
</event>
<event>
 7    1  0.7755875E-012  0.5930192E+02  0.7816164E-02  0.1266605E+00
        -11   -1    0    0    0    0  0.00000000000E+00  0.00000000000E+00  0.45593999997E+02  0.45594000000E+02  0.51100000000E-03 0. -1.
         11   -1    0    0    0    0 -0.00000000000E+00 -0.00000000000E+00 -0.45593999997E+02  0.45594000000E+02  0.51100000000E-03 0.  1.
    9900012    2    1    2    0    0 -0.27712051906E+02 -0.15177589114E+02 -0.42901463753E+01  0.59301915448E+02  0.49999947877E+02 0.  0.
         12    1    1    2    0    0  0.27712051906E+02  0.15177589114E+02  0.42901463753E+01  0.31886084552E+02  0.00000000000E+00 0. -1.
         11    1    3    3    0    0 -0.26873966400E+02  0.78233470015E+01  0.77110169979E+00  0.28000168330E+02  0.51100000000E-03 0. -1.
        -11    1    3    3    0    0 -0.27579569088E+01 -0.90552874512E+01 -0.12261288830E+02  0.15490118178E+02  0.51100000000E-03 0.  1.
         12    1    3    3    0    0  0.19198714027E+01 -0.13945648664E+02  0.72000407550E+01  0.15811628940E+02  0.00000000000E+00 0. -1.
</event>
<event>
 7    1  0.7755875E-012  0.5930194E+02  0.7816164E-02  0.1266605E+00
        -11   -1    0    0    0    0  0.00000000000E+00  0.00000000000E+00  0.45593999997E+02  0.45594000000E+02  0.51100000000E-03 0. -1.
         11   -1    0    0    0    0 -0.00000000000E+00 -0.00000000000E+00 -0.45593999997E+02  0.45594000000E+02  0.51100000000E-03 0.  1.
    9900012    2    1    2    0    0 -0.83005564309E+01  0.11209653926E+02 -0.28673419117E+02  0.59301944395E+02  0.50000000670E+02 0.  0.
         12    1    1    2    0    0  0.83005564309E+01 -0.11209653926E+02  0.28673419117E+02  0.31886055605E+02  0.00000000000E+00 0. -1.
         11    1    3    3    0    0  0.22094916563E+01 -0.57982891051E+01 -0.21584131361E+02  0.22458333349E+02  0.51100000000E-03 0. -1.
        -11    1    3    3    0    0 -0.14401373880E+02  0.20636515806E+02 -0.13464011973E+02  0.28540234283E+02  0.51100000000E-03 0.  1.
         12    1    3    3    0    0  0.38913257931E+01 -0.36285727753E+01  0.63747242180E+01  0.83033767630E+01  0.00000000000E+00 0. -1.
</event>
<event>
 7    1  0.7755875E-012  0.5930189E+02  0.7816164E-02  0.1266605E+00
        -11   -1    0    0    0    0  0.00000000000E+00  0.00000000000E+00  0.45593999997E+02  0.45594000000E+02  0.51100000000E-03 0.  1.
         11   -1    0    0    0    0 -0.00000000000E+00 -0.00000000000E+00 -0.45593999997E+02  0.45594000000E+02  0.51100000000E-03 0. -1.
    9900012    2    1    2    0    0 -0.23092860115E+02  0.16116333473E+02  0.14956864862E+02  0.59301887045E+02  0.49999896076E+02 0.  0.
         12    1    1    2    0    0  0.23092860115E+02 -0.16116333473E+02 -0.14956864862E+02  0.31886112955E+02  0.00000000000E+00 0. -1.
         11    1    3    3    0    0 -0.11730812996E+02  0.25185686434E+02  0.26197109721E+02  0.38186638144E+02  0.51100000000E-03 0. -1.
        -11    1    3    3    0    0 -0.11873671975E+02 -0.43052326761E+01 -0.58990145910E+01  0.13939780772E+02  0.51100000000E-03 0.  1.
        -12    1    3    3    0    0  0.51162485588E+00 -0.47641202851E+01 -0.53412302684E+01  0.71754681286E+01  0.00000000000E+00 0.  1.
</event>
<event>
 7    1  0.7755875E-012  0.5930194E+02  0.7816164E-02  0.1266605E+00
        -11   -1    0    0    0    0  0.00000000000E+00  0.00000000000E+00  0.45593999997E+02  0.45594000000E+02  0.51100000000E-03 0.  1.
         11   -1    0    0    0    0 -0.00000000000E+00 -0.00000000000E+00 -0.45593999997E+02  0.45594000000E+02  0.51100000000E-03 0. -1.
    9900012    2    1    2    0    0 -0.19384665702E+02  0.76350563578E+01  0.24138378229E+02  0.59301942647E+02  0.49999997482E+02 0.  0.
         12    1    1    2    0    0  0.19384665702E+02 -0.76350563578E+01 -0.24138378229E+02  0.31886057353E+02  0.00000000000E+00 0. -1.
         11    1    3    3    0    0 -0.20890926942E+02  0.80894103720E+01  0.16336363136E+02  0.27726271827E+02  0.51100000000E-03 0.  1.
        -11    1    3    3    0    0  0.12854946305E+02  0.18581559281E+01 -0.53532804725E+01  0.14048487465E+02  0.51100000000E-03 0. -1.
         12    1    3    3    0    0 -0.11348685066E+02 -0.23125099423E+01  0.13155295566E+02  0.17527183356E+02  0.00000000000E+00 0. -1.
</event>
<event>
 7    1  0.7755875E-012  0.5930196E+02  0.7816164E-02  0.1266605E+00
        -11   -1    0    0    0    0  0.00000000000E+00  0.00000000000E+00  0.45593999997E+02  0.45594000000E+02  0.51100000000E-03 0. -1.
         11   -1    0    0    0    0 -0.00000000000E+00 -0.00000000000E+00 -0.45593999997E+02  0.45594000000E+02  0.51100000000E-03 0.  1.
    9900012    2    1    2    0    0  0.28063944644E+02  0.84399086257E+01  0.12565936390E+02  0.59301955969E+02  0.50000021778E+02 0.  0.
         12    1    1    2    0    0 -0.28063944644E+02 -0.84399086257E+01 -0.12565936390E+02  0.31886044031E+02  0.00000000000E+00 0. -1.
         11    1    3    3    0    0 -0.11083721113E+02  0.21660560263E+01 -0.80745043132E+01  0.13883021738E+02  0.51100000000E-03 0. -1.
        -11    1    3    3    0    0  0.15381311153E+02  0.45998573558E+01  0.46113052281E+01  0.16703519289E+02  0.51100000000E-03 0.  1.
         12    1    3    3    0    0  0.23766354604E+02  0.16739952436E+01  0.16029135475E+02  0.28715414942E+02  0.00000000000E+00 0. -1.
</event>
<event>
 7    1  0.7755875E-012  0.5930195E+02  0.7816164E-02  0.1266605E+00
        -11   -1    0    0    0    0  0.00000000000E+00  0.00000000000E+00  0.45593999997E+02  0.45594000000E+02  0.51100000000E-03 0.  1.
         11   -1    0    0    0    0 -0.00000000000E+00 -0.00000000000E+00 -0.45593999997E+02  0.45594000000E+02  0.51100000000E-03 0. -1.
    9900012    2    1    2    0    0  0.15802119569E+02  0.20668381422E+02  0.18434507237E+02  0.59301952416E+02  0.50000015298E+02 0.  0.
         12    1    1    2    0    0 -0.15802119569E+02 -0.20668381422E+02 -0.18434507237E+02  0.31886047584E+02  0.00000000000E+00 0. -1.
         11    1    3    3    0    0  0.69685086306E+01  0.51522135369E+01 -0.19322198690E+01  0.88791266884E+01  0.51100000000E-03 0. -1.
        -11    1    3    3    0    0 -0.45792959570E+01  0.70780775955E+01  0.30479945970E+02  0.31624298261E+02  0.51100000000E-03 0.  1.
        -12    1    3    3    0    0  0.13412906895E+02  0.84380902895E+01 -0.10113218864E+02  0.18798527466E+02  0.00000000000E+00 0.  1.
</event>
<event>
 7    1  0.7755875E-012  0.5930195E+02  0.7816164E-02  0.1266605E+00
        -11   -1    0    0    0    0  0.00000000000E+00  0.00000000000E+00  0.45593999997E+02  0.45594000000E+02  0.51100000000E-03 0. -1.
         11   -1    0    0    0    0 -0.00000000000E+00 -0.00000000000E+00 -0.45593999997E+02  0.45594000000E+02  0.51100000000E-03 0.  1.
    9900012    2    1    2    0    0 -0.97307448809E+01 -0.25488101225E+02 -0.16504223701E+02  0.59301951327E+02  0.50000013312E+02 0.  0.
         12    1    1    2    0    0  0.97307448809E+01  0.25488101225E+02  0.16504223701E+02  0.31886048673E+02  0.00000000000E+00 0. -1.
         11    1    3    3    0    0 -0.75673542071E+00 -0.18526191844E+02 -0.11713576162E+01  0.18578603599E+02  0.51100000000E-03 0. -1.
        -11    1    3    3    0    0 -0.47125684227E+01  0.56603333079E+01 -0.23816433985E+02  0.24929304088E+02  0.51100000000E-03 0.  1.
        -12    1    3    3    0    0 -0.42614410375E+01 -0.12622242689E+02  0.84835678996E+01  0.15794043640E+02  0.00000000000E+00 0.  1.
</event>
<event>
 7    1  0.7755875E-012  0.5930190E+02  0.7816164E-02  0.1266605E+00
        -11   -1    0    0    0    0  0.00000000000E+00  0.00000000000E+00  0.45593999997E+02  0.45594000000E+02  0.51100000000E-03 0.  1.
         11   -1    0    0    0    0 -0.00000000000E+00 -0.00000000000E+00 -0.45593999997E+02  0.45594000000E+02  0.51100000000E-03 0. -1.
    9900012    2    1    2    0    0  0.77567319950E+01 -0.25018807078E+02  0.18182845310E+02  0.59301898601E+02  0.49999917153E+02 0.  0.
         12    1    1    2    0    0 -0.77567319950E+01  0.25018807078E+02 -0.18182845310E+02  0.31886101399E+02  0.00000000000E+00 0. -1.
         11    1    3    3    0    0  0.20528579480E+02 -0.21980111384E+02  0.20356033216E+02  0.36316882582E+02  0.51100000000E-03 0. -1.
        -11    1    3    3    0    0 -0.16422020197E+02 -0.61967936329E+01  0.31410111741E+00  0.17555103487E+02  0.51100000000E-03 0.  1.
         12    1    3    3    0    0  0.36501727115E+01  0.31580979399E+01 -0.24872890231E+01  0.54299125321E+01  0.00000000000E+00 0. -1.
</event>
<event>
 7    1  0.7755875E-012  0.5930196E+02  0.7816164E-02  0.1266605E+00
        -11   -1    0    0    0    0  0.00000000000E+00  0.00000000000E+00  0.45593999997E+02  0.45594000000E+02  0.51100000000E-03 0.  1.
         11   -1    0    0    0    0 -0.00000000000E+00 -0.00000000000E+00 -0.45593999997E+02  0.45594000000E+02  0.51100000000E-03 0. -1.
    9900012    2    1    2    0    0 -0.50718657697E+01 -0.55136536032E+01  0.30993477279E+02  0.59301955525E+02  0.50000020968E+02 0.  0.
         12    1    1    2    0    0  0.50718657697E+01  0.55136536032E+01 -0.30993477279E+02  0.31886044475E+02  0.00000000000E+00 0. -1.
         11    1    3    3    0    0 -0.35383776090E+01  0.17488860975E+02  0.26228385572E+02  0.31722367256E+02  0.51100000000E-03 0.  1.
        -11    1    3    3    0    0  0.19854753842E+01 -0.23519886620E+02  0.43096428206E+01  0.23993753367E+02  0.51100000000E-03 0. -1.
         12    1    3    3    0    0 -0.35189635449E+01  0.51737204170E+00  0.45544888603E+00  0.35858349024E+01  0.00000000000E+00 0. -1.
</event>
<event>
 7    1  0.7755875E-012  0.5930171E+02  0.7816164E-02  0.1266606E+00
        -11   -1    0    0    0    0  0.00000000000E+00  0.00000000000E+00  0.45593999997E+02  0.45594000000E+02  0.51100000000E-03 0. -1.
         11   -1    0    0    0    0 -0.00000000000E+00 -0.00000000000E+00 -0.45593999997E+02  0.45594000000E+02  0.51100000000E-03 0.  1.
    9900012    2    1    2    0    0 -0.26586882438E+02 -0.12453157080E+02 -0.12441550958E+02  0.59301707816E+02  0.49999569204E+02 0.  0.
         12    1    1    2    0    0  0.26586882438E+02  0.12453157080E+02  0.12441550958E+02  0.31886292184E+02  0.00000000000E+00 0. -1.
         11    1    3    3    0    0 -0.29655937485E+02  0.55781216966E+01 -0.92882317969E+01  0.31573110711E+02  0.51100000000E-03 0. -1.
        -11    1    3    3    0    0  0.52257456747E+01 -0.22177442514E+02 -0.34552825888E+01  0.23045310854E+02  0.51100000000E-03 0.  1.
        -12    1    3    3    0    0 -0.21566906272E+01  0.41461637376E+01  0.30196342759E+00  0.46832862513E+01  0.00000000000E+00 0.  1.
</event>
<event>
 7    1  0.7755875E-012  0.5930190E+02  0.7816164E-02  0.1266605E+00
        -11   -1    0    0    0    0  0.00000000000E+00  0.00000000000E+00  0.45593999997E+02  0.45594000000E+02  0.51100000000E-03 0.  1.
         11   -1    0    0    0    0 -0.00000000000E+00 -0.00000000000E+00 -0.45593999997E+02  0.45594000000E+02  0.51100000000E-03 0. -1.
    9900012    2    1    2    0    0 -0.78551068721E+01  0.26718027475E+02  0.15529578307E+02  0.59301898035E+02  0.49999916120E+02 0.  0.
         12    1    1    2    0    0  0.78551068721E+01 -0.26718027475E+02 -0.15529578307E+02  0.31886101965E+02  0.00000000000E+00 0. -1.
         11    1    3    3    0    0 -0.12894809679E+02  0.74946142639E+01  0.12767279529E+02  0.19632849677E+02  0.51100000000E-03 0. -1.
        -11    1    3    3    0    0  0.75844063728E+01  0.25719977930E+02  0.10903624772E+02  0.28947012249E+02  0.51100000000E-03 0.  1.
        -12    1    3    3    0    0 -0.25447035662E+01 -0.64965647185E+01 -0.81413259938E+01  0.10722036109E+02  0.00000000000E+00 0.  1.
</event>
<event>
 7    1  0.7755875E-012  0.5930195E+02  0.7816164E-02  0.1266605E+00
        -11   -1    0    0    0    0  0.00000000000E+00  0.00000000000E+00  0.45593999997E+02  0.45594000000E+02  0.51100000000E-03 0.  1.
         11   -1    0    0    0    0 -0.00000000000E+00 -0.00000000000E+00 -0.45593999997E+02  0.45594000000E+02  0.51100000000E-03 0. -1.
    9900012    2    1    2    0    0 -0.77550358149E+01  0.31767388513E+01  0.30765042427E+02  0.59301951550E+02  0.50000013719E+02 0.  0.
         12    1    1    2    0    0  0.77550358149E+01 -0.31767388513E+01 -0.30765042427E+02  0.31886048450E+02  0.00000000000E+00 0. -1.
         11    1    3    3    0    0  0.86382528514E+01 -0.46610384647E+01  0.25552177317E+01  0.10142673701E+02  0.51100000000E-03 0. -1.
        -11    1    3    3    0    0 -0.98387695727E+01  0.13757028113E+02  0.34428010406E+02  0.38358116611E+02  0.51100000000E-03 0.  1.
        -12    1    3    3    0    0 -0.65545190936E+01 -0.59192507973E+01 -0.62181857100E+01  0.10801161237E+02  0.00000000000E+00 0.  1.
</event>
<event>
 7    1  0.7755875E-012  0.5930209E+02  0.7816164E-02  0.1266604E+00
        -11   -1    0    0    0    0  0.00000000000E+00  0.00000000000E+00  0.45593999997E+02  0.45594000000E+02  0.51100000000E-03 0. -1.
         11   -1    0    0    0    0 -0.00000000000E+00 -0.00000000000E+00 -0.45593999997E+02  0.45594000000E+02  0.51100000000E-03 0.  1.
    9900012    2    1    2    0    0 -0.65627891592E+01 -0.82539910693E+01 -0.30091735708E+02  0.59302092015E+02  0.50000269893E+02 0.  0.
         12    1    1    2    0    0  0.65627891592E+01  0.82539910693E+01  0.30091735708E+02  0.31885907985E+02  0.00000000000E+00 0. -1.
         11    1    3    3    0    0 -0.20224339082E+02 -0.18656453697E+02 -0.29399289672E+02  0.40266678400E+02  0.51100000000E-03 0.  1.
        -11    1    3    3    0    0  0.11955917447E+02  0.70402911443E+01 -0.35300360951E+01  0.14316801895E+02  0.51100000000E-03 0. -1.
        -12    1    3    3    0    0  0.17056324763E+01  0.33621714837E+01  0.28375900591E+01  0.47186117210E+01  0.00000000000E+00 0.  1.
</event>
<event>
 7    1  0.7755875E-012  0.5930191E+02  0.7816164E-02  0.1266605E+00
        -11   -1    0    0    0    0  0.00000000000E+00  0.00000000000E+00  0.45593999997E+02  0.45594000000E+02  0.51100000000E-03 0. -1.
         11   -1    0    0    0    0 -0.00000000000E+00 -0.00000000000E+00 -0.45593999997E+02  0.45594000000E+02  0.51100000000E-03 0.  1.
    9900012    2    1    2    0    0  0.22345070846E+02 -0.38145439877E+01 -0.22424753167E+02  0.59301913825E+02  0.49999944918E+02 0.  0.
         12    1    1    2    0    0 -0.22345070846E+02  0.38145439877E+01  0.22424753167E+02  0.31886086175E+02  0.00000000000E+00 0. -1.
         11    1    3    3    0    0  0.22223196443E+02 -0.24625865273E+02 -0.89170046810E+01  0.34348459548E+02  0.51100000000E-03 0. -1.
        -11    1    3    3    0    0 -0.87511414979E+00  0.42839096474E+01 -0.21300475725E+01  0.48636210343E+01  0.51100000000E-03 0.  1.
         12    1    3    3    0    0  0.99698855305E+00  0.16527411638E+02 -0.11377700914E+02  0.20089833243E+02  0.00000000000E+00 0. -1.
</event>
<event>
 7    1  0.7755875E-012  0.5930194E+02  0.7816164E-02  0.1266605E+00
        -11   -1    0    0    0    0  0.00000000000E+00  0.00000000000E+00  0.45593999997E+02  0.45594000000E+02  0.51100000000E-03 0.  1.
         11   -1    0    0    0    0 -0.00000000000E+00 -0.00000000000E+00 -0.45593999997E+02  0.45594000000E+02  0.51100000000E-03 0. -1.
    9900012    2    1    2    0    0  0.20465661165E+02 -0.22263330191E+02  0.10110459188E+02  0.59301944378E+02  0.50000000639E+02 0.  0.
         12    1    1    2    0    0 -0.20465661165E+02  0.22263330191E+02 -0.10110459188E+02  0.31886055622E+02  0.00000000000E+00 0. -1.
         11    1    3    3    0    0  0.10016714721E+01 -0.16274614526E+02 -0.76836062020E+01  0.18025099951E+02  0.51100000000E-03 0. -1.
        -11    1    3    3    0    0  0.26481892312E+02 -0.26801055860E+01  0.19904202894E+02  0.33236288594E+02  0.51100000000E-03 0.  1.
        -12    1    3    3    0    0 -0.70179026193E+01 -0.33086100789E+01 -0.21101375038E+01  0.80405558335E+01  0.00000000000E+00 0.  1.
</event>
<event>
 7    1  0.7755875E-012  0.5930195E+02  0.7816164E-02  0.1266605E+00
        -11   -1    0    0    0    0  0.00000000000E+00  0.00000000000E+00  0.45593999997E+02  0.45594000000E+02  0.51100000000E-03 0. -1.
         11   -1    0    0    0    0 -0.00000000000E+00 -0.00000000000E+00 -0.45593999997E+02  0.45594000000E+02  0.51100000000E-03 0.  1.
    9900012    2    1    2    0    0  0.21407906524E+02  0.57599378324E+01 -0.22918216445E+02  0.59301953042E+02  0.50000016441E+02 0.  0.
         12    1    1    2    0    0 -0.21407906524E+02 -0.57599378324E+01  0.22918216445E+02  0.31886046958E+02  0.00000000000E+00 0. -1.
         11    1    3    3    0    0 -0.13837713172E+01  0.11478435281E+02 -0.21285905605E+02  0.24223110395E+02  0.51100000000E-03 0. -1.
        -11    1    3    3    0    0  0.27456869694E+02 -0.94800073422E+01 -0.12683409403E+01  0.29075056692E+02  0.51100000000E-03 0.  1.
         12    1    3    3    0    0 -0.46651918534E+01  0.37615098939E+01 -0.36396989992E+00  0.60037859554E+01  0.00000000000E+00 0. -1.
</event>
<event>
 7    1  0.7755875E-012  0.5930196E+02  0.7816164E-02  0.1266605E+00
        -11   -1    0    0    0    0  0.00000000000E+00  0.00000000000E+00  0.45593999997E+02  0.45594000000E+02  0.51100000000E-03 0.  1.
         11   -1    0    0    0    0 -0.00000000000E+00 -0.00000000000E+00 -0.45593999997E+02  0.45594000000E+02  0.51100000000E-03 0. -1.
    9900012    2    1    2    0    0 -0.35528301935E+01  0.95682636483E+01  0.30208368340E+02  0.59301956197E+02  0.50000022194E+02 0.  0.
         12    1    1    2    0    0  0.35528301935E+01 -0.95682636483E+01 -0.30208368340E+02  0.31886043803E+02  0.00000000000E+00 0. -1.
         11    1    3    3    0    0  0.43714493808E+01 -0.48276247446E+01  0.74553675154E+01  0.98993957096E+01  0.51100000000E-03 0. -1.
        -11    1    3    3    0    0 -0.18258929349E+02  0.20199797363E+02  0.44403342641E+01  0.27588709341E+02  0.51100000000E-03 0.  1.
        -12    1    3    3    0    0  0.10334649774E+02 -0.58039089697E+01  0.18312666561E+02  0.21813851147E+02  0.00000000000E+00 0.  1.
</event>
<event>
 7    1  0.7755875E-012  0.5930194E+02  0.7816164E-02  0.1266605E+00
        -11   -1    0    0    0    0  0.00000000000E+00  0.00000000000E+00  0.45593999997E+02  0.45594000000E+02  0.51100000000E-03 0.  1.
         11   -1    0    0    0    0 -0.00000000000E+00 -0.00000000000E+00 -0.45593999997E+02  0.45594000000E+02  0.51100000000E-03 0. -1.
    9900012    2    1    2    0    0 -0.27061381016E+02  0.13256557558E+02  0.10424318518E+02  0.59301936001E+02  0.49999985362E+02 0.  0.
         12    1    1    2    0    0  0.27061381016E+02 -0.13256557558E+02 -0.10424318518E+02  0.31886063999E+02  0.00000000000E+00 0. -1.
         11    1    3    3    0    0 -0.24525116972E+02  0.24985876533E+02 -0.35097720439E+01  0.35186558352E+02  0.51100000000E-03 0. -1.
        -11    1    3    3    0    0  0.53711080947E+01 -0.11386974145E+00  0.21871273945E+01  0.58004564462E+01  0.51100000000E-03 0.  1.
         12    1    3    3    0    0 -0.79073721387E+01 -0.11615449233E+02  0.11746963167E+02  0.18314921203E+02  0.00000000000E+00 0. -1.
</event>
<event>
 7    1  0.7755875E-012  0.5930192E+02  0.7816164E-02  0.1266605E+00
        -11   -1    0    0    0    0  0.00000000000E+00  0.00000000000E+00  0.45593999997E+02  0.45594000000E+02  0.51100000000E-03 0. -1.
         11   -1    0    0    0    0 -0.00000000000E+00 -0.00000000000E+00 -0.45593999997E+02  0.45594000000E+02  0.51100000000E-03 0.  1.
    9900012    2    1    2    0    0  0.88450946061E+01 -0.28237400606E+02 -0.11880060916E+02  0.59301916218E+02  0.49999949281E+02 0.  0.
         12    1    1    2    0    0 -0.88450946061E+01  0.28237400606E+02  0.11880060916E+02  0.31886083782E+02  0.00000000000E+00 0. -1.
         11    1    3    3    0    0 -0.10500621561E+02 -0.19306764536E+02  0.65011787933E+01  0.22918977638E+02  0.51100000000E-03 0. -1.
        -11    1    3    3    0    0  0.10560685008E+02 -0.28134432606E+01 -0.22419589652E+02  0.24941562326E+02  0.51100000000E-03 0.  1.
        -12    1    3    3    0    0  0.87850311586E+01 -0.61171928097E+01  0.40383499425E+01  0.11441376254E+02  0.00000000000E+00 0.  1.
</event>
<event>
 7    1  0.7755875E-012  0.5930195E+02  0.7816164E-02  0.1266605E+00
        -11   -1    0    0    0    0  0.00000000000E+00  0.00000000000E+00  0.45593999997E+02  0.45594000000E+02  0.51100000000E-03 0.  1.
         11   -1    0    0    0    0 -0.00000000000E+00 -0.00000000000E+00 -0.45593999997E+02  0.45594000000E+02  0.51100000000E-03 0. -1.
    9900012    2    1    2    0    0 -0.26556217683E+02 -0.10343268696E+02 -0.14300499074E+02  0.59301950092E+02  0.50000011061E+02 0.  0.
         12    1    1    2    0    0  0.26556217683E+02  0.10343268696E+02  0.14300499074E+02  0.31886049908E+02  0.00000000000E+00 0. -1.
         11    1    3    3    0    0 -0.26356947385E+02 -0.70393311281E+00 -0.29922247876E+02  0.39881388084E+02  0.51100000000E-03 0. -1.
        -11    1    3    3    0    0  0.22389177588E+01 -0.51252142399E+01  0.11682243225E+02  0.12952041568E+02  0.51100000000E-03 0.  1.
         12    1    3    3    0    0 -0.24381880566E+01 -0.45141213433E+01  0.39395055767E+01  0.64685204406E+01  0.00000000000E+00 0. -1.
</event>
<event>
 7    1  0.7755875E-012  0.5930197E+02  0.7816164E-02  0.1266605E+00
        -11   -1    0    0    0    0  0.00000000000E+00  0.00000000000E+00  0.45593999997E+02  0.45594000000E+02  0.51100000000E-03 0.  1.
         11   -1    0    0    0    0 -0.00000000000E+00 -0.00000000000E+00 -0.45593999997E+02  0.45594000000E+02  0.51100000000E-03 0. -1.
    9900012    2    1    2    0    0  0.68798797928E+00 -0.23802064342E+02  0.21206302954E+02  0.59301970467E+02  0.50000048219E+02 0.  0.
         12    1    1    2    0    0 -0.68798797928E+00  0.23802064342E+02 -0.21206302954E+02  0.31886029533E+02  0.00000000000E+00 0. -1.
         11    1    3    3    0    0  0.55277173460E+01  0.15257074402E+01 -0.11340762843E+02  0.12708121198E+02  0.51100000000E-03 0. -1.
        -11    1    3    3    0    0 -0.89121035963E+01 -0.27116220058E+02  0.30240023331E+02  0.41583337914E+02  0.51100000000E-03 0.  1.
         12    1    3    3    0    0  0.40723742296E+01  0.17884482767E+01  0.23070424666E+01  0.50105113558E+01  0.00000000000E+00 0. -1.
</event>
<event>
 7    1  0.7755875E-012  0.5930196E+02  0.7816164E-02  0.1266605E+00
        -11   -1    0    0    0    0  0.00000000000E+00  0.00000000000E+00  0.45593999997E+02  0.45594000000E+02  0.51100000000E-03 0.  1.
         11   -1    0    0    0    0 -0.00000000000E+00 -0.00000000000E+00 -0.45593999997E+02  0.45594000000E+02  0.51100000000E-03 0. -1.
    9900012    2    1    2    0    0  0.78678841534E+01 -0.16714159670E+02  0.25989472302E+02  0.59301962224E+02  0.50000033185E+02 0.  0.
         12    1    1    2    0    0 -0.78678841534E+01  0.16714159670E+02 -0.25989472302E+02  0.31886037776E+02  0.00000000000E+00 0. -1.
         11    1    3    3    0    0  0.11780631429E+02  0.16646834740E+01 -0.11507236406E+01  0.11953184224E+02  0.51100000000E-03 0. -1.
        -11    1    3    3    0    0 -0.12984061761E+02 -0.61524620099E+01 -0.19656506359E+01  0.14501807863E+02  0.51100000000E-03 0.  1.
        -12    1    3    3    0    0  0.90713144859E+01 -0.12226381134E+02  0.29105846579E+02  0.32846970137E+02  0.00000000000E+00 0.  1.
</event>
<event>
 7    1  0.1148393E-011  0.5930195E+02  0.7816164E-02  0.1266605E+00
        -11   -1    0    0    0    0  0.00000000000E+00  0.00000000000E+00  0.45593999997E+02  0.45594000000E+02  0.51100000000E-03 0. -1.
         11   -1    0    0    0    0 -0.00000000000E+00 -0.00000000000E+00 -0.45593999997E+02  0.45594000000E+02  0.51100000000E-03 0.  1.
    9900012    2    1    2    0    0  0.10170070528E+02  0.38353021556E+00 -0.30218254381E+02  0.59301947755E+02  0.50000006797E+02 0.  0.
         12    1    1    2    0    0 -0.10170070528E+02 -0.38353021556E+00  0.30218254381E+02  0.31886052245E+02  0.00000000000E+00 0. -1.
         11    1    3    3    0    0 -0.15292277987E+02 -0.84650737386E+01 -0.11018719944E+02  0.20662125469E+02  0.51100000000E-03 0. -1.
        -11    1    3    3    0    0  0.20181285855E+02 -0.23363582899E+01 -0.16009785466E+02  0.25866118761E+02  0.51100000000E-03 0.  1.
         12    1    3    3    0    0  0.52810626604E+01  0.11184962244E+02 -0.31897489701E+01  0.12773703524E+02  0.00000000000E+00 0. -1.
</event>
<event>
 7    1  0.7755875E-012  0.5930194E+02  0.7816164E-02  0.1266605E+00
        -11   -1    0    0    0    0  0.00000000000E+00  0.00000000000E+00  0.45593999997E+02  0.45594000000E+02  0.51100000000E-03 0. -1.
         11   -1    0    0    0    0 -0.00000000000E+00 -0.00000000000E+00 -0.45593999997E+02  0.45594000000E+02  0.51100000000E-03 0.  1.
    9900012    2    1    2    0    0 -0.85206398364E+01  0.16460525342E+02 -0.25945527237E+02  0.59301943778E+02  0.49999999545E+02 0.  0.
         12    1    1    2    0    0  0.85206398364E+01 -0.16460525342E+02  0.25945527237E+02  0.31886056222E+02  0.00000000000E+00 0. -1.
         11    1    3    3    0    0  0.13019347093E+02  0.15226337565E+02 -0.54264746471E+01  0.20755514490E+02  0.51100000000E-03 0. -1.
        -11    1    3    3    0    0 -0.20475705218E+02 -0.80957465219E+01 -0.92617769274E+01  0.23886735399E+02  0.51100000000E-03 0.  1.
        -12    1    3    3    0    0 -0.10642817120E+01  0.93299342984E+01 -0.11257275663E+02  0.14659693889E+02  0.00000000000E+00 0.  1.
</event>
<event>
 7    1  0.7755875E-012  0.5930201E+02  0.7816164E-02  0.1266605E+00
        -11   -1    0    0    0    0  0.00000000000E+00  0.00000000000E+00  0.45593999997E+02  0.45594000000E+02  0.51100000000E-03 0.  1.
         11   -1    0    0    0    0 -0.00000000000E+00 -0.00000000000E+00 -0.45593999997E+02  0.45594000000E+02  0.51100000000E-03 0. -1.
    9900012    2    1    2    0    0  0.29341503661E+02 -0.12016446643E+02 -0.33759926291E+01  0.59302013216E+02  0.50000126182E+02 0.  0.
         12    1    1    2    0    0 -0.29341503661E+02  0.12016446643E+02  0.33759926291E+01  0.31885986784E+02  0.00000000000E+00 0. -1.
         11    1    3    3    0    0  0.22685560067E+02  0.18923707026E+01 -0.22743785426E+02  0.32179115560E+02  0.51100000000E-03 0. -1.
        -11    1    3    3    0    0  0.28766618436E+01 -0.43843777654E+01  0.36749972604E-01  0.52439777435E+01  0.51100000000E-03 0.  1.
         12    1    3    3    0    0  0.37792817496E+01 -0.95244395799E+01  0.19331042824E+02  0.21878919912E+02  0.00000000000E+00 0. -1.
</event>
<event>
 7    1  0.7755875E-012  0.5930194E+02  0.7816164E-02  0.1266605E+00
        -11   -1    0    0    0    0  0.00000000000E+00  0.00000000000E+00  0.45593999997E+02  0.45594000000E+02  0.51100000000E-03 0.  1.
         11   -1    0    0    0    0 -0.00000000000E+00 -0.00000000000E+00 -0.45593999997E+02  0.45594000000E+02  0.51100000000E-03 0. -1.
    9900012    2    1    2    0    0  0.18564123836E+02 -0.92479754068E+01  0.24219183734E+02  0.59301943428E+02  0.49999998907E+02 0.  0.
         12    1    1    2    0    0 -0.18564123836E+02  0.92479754068E+01 -0.24219183734E+02  0.31886056572E+02  0.00000000000E+00 0. -1.
         11    1    3    3    0    0  0.32394398614E+01 -0.10210073669E+02 -0.30178799526E+01  0.11128664547E+02  0.51100000000E-03 0. -1.
        -11    1    3    3    0    0 -0.99714437567E+01  0.84713414661E+01  0.11696001515E+02  0.17549637276E+02  0.51100000000E-03 0.  1.
        -12    1    3    3    0    0  0.25296127732E+02 -0.75092432042E+01  0.15541062172E+02  0.30623641605E+02  0.00000000000E+00 0.  1.
</event>
<event>
 7    1  0.7755875E-012  0.5930196E+02  0.7816164E-02  0.1266605E+00
        -11   -1    0    0    0    0  0.00000000000E+00  0.00000000000E+00  0.45593999997E+02  0.45594000000E+02  0.51100000000E-03 0.  1.
         11   -1    0    0    0    0 -0.00000000000E+00 -0.00000000000E+00 -0.45593999997E+02  0.45594000000E+02  0.51100000000E-03 0. -1.
    9900012    2    1    2    0    0  0.18651714173E+02  0.10278945317E+01  0.25841367169E+02  0.59301964406E+02  0.50000037164E+02 0.  0.
         12    1    1    2    0    0 -0.18651714173E+02 -0.10278945317E+01 -0.25841367169E+02  0.31886035594E+02  0.00000000000E+00 0. -1.
         11    1    3    3    0    0  0.99071455486E+00 -0.14558265910E+02 -0.27143017208E+01  0.14842238906E+02  0.51100000000E-03 0. -1.
        -11    1    3    3    0    0 -0.47234434678E+00  0.15320085674E+02  0.17310245222E+02  0.23120828794E+02  0.51100000000E-03 0.  1.
        -12    1    3    3    0    0  0.18133343965E+02  0.26607476822E+00  0.11245423668E+02  0.21338896705E+02  0.00000000000E+00 0.  1.
</event>
<event>
 7    1  0.7755875E-012  0.5930194E+02  0.7816164E-02  0.1266605E+00
        -11   -1    0    0    0    0  0.00000000000E+00  0.00000000000E+00  0.45593999997E+02  0.45594000000E+02  0.51100000000E-03 0.  1.
         11   -1    0    0    0    0 -0.00000000000E+00 -0.00000000000E+00 -0.45593999997E+02  0.45594000000E+02  0.51100000000E-03 0. -1.
    9900012    2    1    2    0    0  0.13151819991E+02 -0.25920412043E+02  0.13110394955E+02  0.59301943715E+02  0.49999999430E+02 0.  0.
         12    1    1    2    0    0 -0.13151819991E+02  0.25920412043E+02 -0.13110394955E+02  0.31886056285E+02  0.00000000000E+00 0. -1.
         11    1    3    3    0    0  0.24169990884E+02 -0.16584477276E+02 -0.34325368795E+01  0.29512974360E+02  0.51100000000E-03 0. -1.
        -11    1    3    3    0    0 -0.62250053382E+01 -0.15593000210E+02  0.99757193239E+01  0.19529652411E+02  0.51100000000E-03 0.  1.
        -12    1    3    3    0    0 -0.47931655558E+01  0.62570654432E+01  0.65672125104E+01  0.10259316944E+02  0.00000000000E+00 0.  1.
</event>
<event>
 7    1  0.7755875E-012  0.5930197E+02  0.7816164E-02  0.1266605E+00
        -11   -1    0    0    0    0  0.00000000000E+00  0.00000000000E+00  0.45593999997E+02  0.45594000000E+02  0.51100000000E-03 0.  1.
         11   -1    0    0    0    0 -0.00000000000E+00 -0.00000000000E+00 -0.45593999997E+02  0.45594000000E+02  0.51100000000E-03 0. -1.
    9900012    2    1    2    0    0 -0.13359507820E+02 -0.18656238625E+01  0.28892251948E+02  0.59301965059E+02  0.50000038357E+02 0.  0.
         12    1    1    2    0    0  0.13359507820E+02  0.18656238625E+01 -0.28892251948E+02  0.31886034941E+02  0.00000000000E+00 0. -1.
         11    1    3    3    0    0 -0.66537337011E+01  0.14641262965E+02 -0.77275479444E+01  0.17842470425E+02  0.51100000000E-03 0. -1.
        -11    1    3    3    0    0 -0.65312031478E+01 -0.13645661949E+02  0.22916241146E+02  0.27459330165E+02  0.51100000000E-03 0.  1.
         12    1    3    3    0    0 -0.17457097130E+00 -0.28612248784E+01  0.13703558747E+02  0.14000164469E+02  0.00000000000E+00 0. -1.
</event>
<event>
 7    1  0.7755875E-012  0.5930194E+02  0.7816164E-02  0.1266605E+00
        -11   -1    0    0    0    0  0.00000000000E+00  0.00000000000E+00  0.45593999997E+02  0.45594000000E+02  0.51100000000E-03 0. -1.
         11   -1    0    0    0    0 -0.00000000000E+00 -0.00000000000E+00 -0.45593999997E+02  0.45594000000E+02  0.51100000000E-03 0.  1.
    9900012    2    1    2    0    0 -0.88226858221E+01  0.87747051052E+01 -0.29357890648E+02  0.59301937558E+02  0.49999988200E+02 0.  0.
         12    1    1    2    0    0  0.88226858221E+01 -0.87747051052E+01  0.29357890648E+02  0.31886062442E+02  0.00000000000E+00 0. -1.
         11    1    3    3    0    0 -0.46475385954E+01 -0.13388956820E+02 -0.24613773730E+01  0.14384789138E+02  0.51100000000E-03 0. -1.
        -11    1    3    3    0    0  0.77961506655E+01  0.10312915544E+02 -0.24766970668E+02  0.27938128580E+02  0.51100000000E-03 0.  1.
        -12    1    3    3    0    0 -0.11971297892E+02  0.11850746380E+02 -0.21295426067E+01  0.16979019840E+02  0.00000000000E+00 0.  1.
</event>
<event>
 7    1  0.7755875E-012  0.5930193E+02  0.7816164E-02  0.1266605E+00
        -11   -1    0    0    0    0  0.00000000000E+00  0.00000000000E+00  0.45593999997E+02  0.45594000000E+02  0.51100000000E-03 0. -1.
         11   -1    0    0    0    0 -0.00000000000E+00 -0.00000000000E+00 -0.45593999997E+02  0.45594000000E+02  0.51100000000E-03 0.  1.
    9900012    2    1    2    0    0 -0.57355780274E+01  0.30523797667E+02 -0.72195760648E+01  0.59301931602E+02  0.49999977338E+02 0.  0.
         12    1    1    2    0    0  0.57355780274E+01 -0.30523797667E+02  0.72195760648E+01  0.31886068398E+02  0.00000000000E+00 0. -1.
         11    1    3    3    0    0 -0.12990102992E+02  0.11241878172E+02  0.73969600008E+01  0.18703946591E+02  0.51100000000E-03 0. -1.
        -11    1    3    3    0    0  0.29361055312E+01  0.25692547558E+02 -0.18646195258E+02  0.31881159225E+02  0.51100000000E-03 0.  1.
        -12    1    3    3    0    0  0.43184194338E+01 -0.64106280622E+01  0.40296591921E+01  0.87168257848E+01  0.00000000000E+00 0.  1.
</event>
<event>
 7    1  0.7755875E-012  0.5930191E+02  0.7816164E-02  0.1266605E+00
        -11   -1    0    0    0    0  0.00000000000E+00  0.00000000000E+00  0.45593999997E+02  0.45594000000E+02  0.51100000000E-03 0.  1.
         11   -1    0    0    0    0 -0.00000000000E+00 -0.00000000000E+00 -0.45593999997E+02  0.45594000000E+02  0.51100000000E-03 0. -1.
    9900012    2    1    2    0    0 -0.31365837738E+02  0.53736602466E+01  0.20076407936E+01  0.59301911764E+02  0.49999941158E+02 0.  0.
         12    1    1    2    0    0  0.31365837738E+02 -0.53736602466E+01 -0.20076407936E+01  0.31886088236E+02  0.00000000000E+00 0. -1.
         11    1    3    3    0    0 -0.21012371555E+02 -0.12220033757E+02  0.15193086181E+01  0.24354820515E+02  0.51100000000E-03 0. -1.
        -11    1    3    3    0    0 -0.21932128324E+01  0.15888014538E+02  0.12494057585E+02  0.20330781188E+02  0.51100000000E-03 0.  1.
         12    1    3    3    0    0 -0.81602533506E+01  0.17056794655E+01 -0.12005725410E+02  0.14616310061E+02  0.00000000000E+00 0. -1.
</event>
<event>
 7    1  0.7755875E-012  0.5930190E+02  0.7816164E-02  0.1266605E+00
        -11   -1    0    0    0    0  0.00000000000E+00  0.00000000000E+00  0.45593999997E+02  0.45594000000E+02  0.51100000000E-03 0. -1.
         11   -1    0    0    0    0 -0.00000000000E+00 -0.00000000000E+00 -0.45593999997E+02  0.45594000000E+02  0.51100000000E-03 0.  1.
    9900012    2    1    2    0    0  0.15936488078E+02  0.22596060614E+02 -0.15879850350E+02  0.59301901859E+02  0.49999923094E+02 0.  0.
         12    1    1    2    0    0 -0.15936488078E+02 -0.22596060614E+02  0.15879850350E+02  0.31886098141E+02  0.00000000000E+00 0. -1.
         11    1    3    3    0    0 -0.10354233336E+02 -0.28071395307E+01 -0.17373035315E+02  0.20418436195E+02  0.51100000000E-03 0. -1.
        -11    1    3    3    0    0  0.65402685814E+01  0.15366219419E+02  0.59353831330E+00  0.16710718128E+02  0.51100000000E-03 0.  1.
         12    1    3    3    0    0  0.19750452833E+02  0.10036980726E+02  0.89964665200E+00  0.22172747536E+02  0.00000000000E+00 0. -1.
</event>
<event>
 7    1  0.7755875E-012  0.5930195E+02  0.7816164E-02  0.1266605E+00
        -11   -1    0    0    0    0  0.00000000000E+00  0.00000000000E+00  0.45593999997E+02  0.45594000000E+02  0.51100000000E-03 0.  1.
         11   -1    0    0    0    0 -0.00000000000E+00 -0.00000000000E+00 -0.45593999997E+02  0.45594000000E+02  0.51100000000E-03 0. -1.
    9900012    2    1    2    0    0  0.20989788592E+02  0.23691481631E+02  0.38551971943E+01  0.59301951759E+02  0.50000014100E+02 0.  0.
         12    1    1    2    0    0 -0.20989788592E+02 -0.23691481631E+02 -0.38551971943E+01  0.31886048241E+02  0.00000000000E+00 0. -1.
         11    1    3    3    0    0  0.17095051119E+02 -0.55975793646E+01  0.84344054318E+01  0.19867381880E+02  0.51100000000E-03 0. -1.
        -11    1    3    3    0    0  0.58501418239E+01  0.13078033997E+02  0.10058740409E+02  0.17505353223E+02  0.51100000000E-03 0.  1.
         12    1    3    3    0    0 -0.19554043510E+01  0.16211026999E+02 -0.14637948647E+02  0.21929216656E+02  0.00000000000E+00 0. -1.
</event>
<event>
 7    1  0.7755875E-012  0.5930199E+02  0.7816164E-02  0.1266605E+00
        -11   -1    0    0    0    0  0.00000000000E+00  0.00000000000E+00  0.45593999997E+02  0.45594000000E+02  0.51100000000E-03 0. -1.
         11   -1    0    0    0    0 -0.00000000000E+00 -0.00000000000E+00 -0.45593999997E+02  0.45594000000E+02  0.51100000000E-03 0.  1.
    9900012    2    1    2    0    0  0.13845341535E+02  0.28513790538E+02 -0.34623399613E+01  0.59301991609E+02  0.50000086777E+02 0.  0.
         12    1    1    2    0    0 -0.13845341535E+02 -0.28513790538E+02  0.34623399613E+01  0.31886008391E+02  0.00000000000E+00 0. -1.
         11    1    3    3    0    0  0.49799476481E+01  0.36218423263E+02  0.69844718669E+01  0.37220382988E+02  0.51100000000E-03 0. -1.
        -11    1    3    3    0    0  0.31412855962E+01  0.13570147201E+01 -0.10828861197E+02  0.11356645598E+02  0.51100000000E-03 0.  1.
         12    1    3    3    0    0  0.57241082903E+01 -0.90616474448E+01  0.38204936917E+00  0.10724963023E+02  0.00000000000E+00 0. -1.
</event>
<event>
 7    1  0.7755875E-012  0.5930193E+02  0.7816164E-02  0.1266605E+00
        -11   -1    0    0    0    0  0.00000000000E+00  0.00000000000E+00  0.45593999997E+02  0.45594000000E+02  0.51100000000E-03 0.  1.
         11   -1    0    0    0    0 -0.00000000000E+00 -0.00000000000E+00 -0.45593999997E+02  0.45594000000E+02  0.51100000000E-03 0. -1.
    9900012    2    1    2    0    0  0.28120818895E+02 -0.57372279011E+01  0.13893343232E+02  0.59301933678E+02  0.49999981125E+02 0.  0.
         12    1    1    2    0    0 -0.28120818895E+02  0.57372279011E+01 -0.13893343232E+02  0.31886066322E+02  0.00000000000E+00 0. -1.
         11    1    3    3    0    0 -0.11753632530E+02  0.57925808353E+01 -0.24118434266E+01  0.13323620355E+02  0.51100000000E-03 0. -1.
        -11    1    3    3    0    0  0.14873647279E+02 -0.15032591146E+01  0.96615818594E+00  0.14980608574E+02  0.51100000000E-03 0.  1.
         12    1    3    3    0    0  0.25000804145E+02 -0.10026549622E+02  0.15339028473E+02  0.30997704749E+02  0.00000000000E+00 0. -1.
</event>
<event>
 7    1  0.7755875E-012  0.5930187E+02  0.7816164E-02  0.1266605E+00
        -11   -1    0    0    0    0  0.00000000000E+00  0.00000000000E+00  0.45593999997E+02  0.45594000000E+02  0.51100000000E-03 0.  1.
         11   -1    0    0    0    0 -0.00000000000E+00 -0.00000000000E+00 -0.45593999997E+02  0.45594000000E+02  0.51100000000E-03 0. -1.
    9900012    2    1    2    0    0  0.20410264333E+02  0.16667311417E+02  0.17954023216E+02  0.59301872771E+02  0.49999870045E+02 0.  0.
         12    1    1    2    0    0 -0.20410264333E+02 -0.16667311417E+02 -0.17954023216E+02  0.31886127229E+02  0.00000000000E+00 0. -1.
         11    1    3    3    0    0  0.15720134917E+02  0.26528372214E+02 -0.66345691204E+01  0.31541951141E+02  0.51100000000E-03 0. -1.
        -11    1    3    3    0    0 -0.17877427671E+01 -0.17349461126E+01  0.49130694006E+01  0.55085672739E+01  0.51100000000E-03 0.  1.
         12    1    3    3    0    0  0.64778721832E+01 -0.81261146845E+01  0.19675522936E+02  0.22251354356E+02  0.00000000000E+00 0. -1.
</event>
<event>
 7    1  0.7755875E-012  0.5930195E+02  0.7816164E-02  0.1266605E+00
        -11   -1    0    0    0    0  0.00000000000E+00  0.00000000000E+00  0.45593999997E+02  0.45594000000E+02  0.51100000000E-03 0. -1.
         11   -1    0    0    0    0 -0.00000000000E+00 -0.00000000000E+00 -0.45593999997E+02  0.45594000000E+02  0.51100000000E-03 0.  1.
    9900012    2    1    2    0    0  0.22811575723E+02 -0.22126274964E+02 -0.26038748236E+01  0.59301949840E+02  0.50000010600E+02 0.  0.
         12    1    1    2    0    0 -0.22811575723E+02  0.22126274964E+02  0.26038748236E+01  0.31886050160E+02  0.00000000000E+00 0. -1.
         11    1    3    3    0    0  0.69631966958E+01  0.89164502476E+01 -0.67214990969E+01  0.13159321548E+02  0.51100000000E-03 0. -1.
        -11    1    3    3    0    0  0.99947525213E+01 -0.29360810133E+02 -0.84767831150E+01  0.32152886369E+02  0.51100000000E-03 0.  1.
        -12    1    3    3    0    0  0.58536265059E+01 -0.16819150785E+01  0.12594407388E+02  0.13989741923E+02  0.00000000000E+00 0.  1.
</event>
<event>
 7    1  0.7755875E-012  0.5930196E+02  0.7816164E-02  0.1266605E+00
        -11   -1    0    0    0    0  0.00000000000E+00  0.00000000000E+00  0.45593999997E+02  0.45594000000E+02  0.51100000000E-03 0.  1.
         11   -1    0    0    0    0 -0.00000000000E+00 -0.00000000000E+00 -0.45593999997E+02  0.45594000000E+02  0.51100000000E-03 0. -1.
    9900012    2    1    2    0    0  0.17566127324E+02  0.23641190649E+02 -0.12216586856E+02  0.59301957303E+02  0.50000024211E+02 0.  0.
         12    1    1    2    0    0 -0.17566127324E+02 -0.23641190649E+02  0.12216586856E+02  0.31886042697E+02  0.00000000000E+00 0. -1.
         11    1    3    3    0    0  0.24150759175E+02  0.25575204689E+02 -0.23352955895E+02  0.42222160211E+02  0.51100000000E-03 0. -1.
        -11    1    3    3    0    0  0.10818394938E+01 -0.17368168392E+01  0.88409256363E+01  0.90746281352E+01  0.51100000000E-03 0.  1.
         12    1    3    3    0    0 -0.76664713450E+01 -0.19719720106E+00  0.22954434019E+01  0.80051689571E+01  0.00000000000E+00 0. -1.
</event>
<event>
 7    1  0.7755875E-012  0.5930194E+02  0.7816164E-02  0.1266605E+00
        -11   -1    0    0    0    0  0.00000000000E+00  0.00000000000E+00  0.45593999997E+02  0.45594000000E+02  0.51100000000E-03 0. -1.
         11   -1    0    0    0    0 -0.00000000000E+00 -0.00000000000E+00 -0.45593999997E+02  0.45594000000E+02  0.51100000000E-03 0.  1.
    9900012    2    1    2    0    0 -0.16258779757E+02 -0.24507748942E+02 -0.12318410164E+02  0.59301938682E+02  0.49999990250E+02 0.  0.
         12    1    1    2    0    0  0.16258779757E+02  0.24507748942E+02  0.12318410164E+02  0.31886061318E+02  0.00000000000E+00 0. -1.
         11    1    3    3    0    0  0.35509639443E+01  0.88918113101E+01  0.99151958933E+01  0.13783496043E+02  0.51100000000E-03 0. -1.
        -11    1    3    3    0    0 -0.14193322739E+02 -0.16279035323E+02 -0.10483902910E+02  0.24007699221E+02  0.51100000000E-03 0.  1.
         12    1    3    3    0    0 -0.56164209627E+01 -0.17120524930E+02 -0.11749703147E+02  0.21510743417E+02  0.00000000000E+00 0. -1.
</event>
<event>
 7    1  0.7755875E-012  0.5930194E+02  0.7816164E-02  0.1266605E+00
        -11   -1    0    0    0    0  0.00000000000E+00  0.00000000000E+00  0.45593999997E+02  0.45594000000E+02  0.51100000000E-03 0.  1.
         11   -1    0    0    0    0 -0.00000000000E+00 -0.00000000000E+00 -0.45593999997E+02  0.45594000000E+02  0.51100000000E-03 0. -1.
    9900012    2    1    2    0    0  0.19602507520E+02  0.18141209732E+01  0.25083291605E+02  0.59301939508E+02  0.49999991757E+02 0.  0.
         12    1    1    2    0    0 -0.19602507520E+02 -0.18141209732E+01 -0.25083291605E+02  0.31886060492E+02  0.00000000000E+00 0. -1.
         11    1    3    3    0    0  0.25536505850E+01  0.62743222733E+01 -0.14442537264E+02  0.15952276771E+02  0.51100000000E-03 0. -1.
        -11    1    3    3    0    0  0.10705088798E+02 -0.15333243784E+01  0.24235134303E+02  0.26538495526E+02  0.51100000000E-03 0.  1.
         12    1    3    3    0    0  0.63437681377E+01 -0.29268769217E+01  0.15290694565E+02  0.16811167211E+02  0.00000000000E+00 0. -1.
</event>
<event>
 7    1  0.7755875E-012  0.5930194E+02  0.7816164E-02  0.1266605E+00
        -11   -1    0    0    0    0  0.00000000000E+00  0.00000000000E+00  0.45593999997E+02  0.45594000000E+02  0.51100000000E-03 0.  1.
         11   -1    0    0    0    0 -0.00000000000E+00 -0.00000000000E+00 -0.45593999997E+02  0.45594000000E+02  0.51100000000E-03 0. -1.
    9900012    2    1    2    0    0 -0.14990531311E+02  0.12541782812E+02  0.25193424603E+02  0.59301937397E+02  0.49999987907E+02 0.  0.
         12    1    1    2    0    0  0.14990531311E+02 -0.12541782812E+02 -0.25193424603E+02  0.31886062603E+02  0.00000000000E+00 0. -1.
         11    1    3    3    0    0 -0.48570398165E+01 -0.18104322411E+02  0.27523420964E+01  0.18945519603E+02  0.51100000000E-03 0. -1.
        -11    1    3    3    0    0 -0.27052062926E+01  0.14101442193E+02  0.14967455817E+02  0.20741107658E+02  0.51100000000E-03 0.  1.
         12    1    3    3    0    0 -0.74282852015E+01  0.16544663030E+02  0.74736266900E+01  0.19615310136E+02  0.00000000000E+00 0. -1.
</event>
<event>
 7    1  0.7755875E-012  0.5930194E+02  0.7816164E-02  0.1266605E+00
        -11   -1    0    0    0    0  0.00000000000E+00  0.00000000000E+00  0.45593999997E+02  0.45594000000E+02  0.51100000000E-03 0.  1.
         11   -1    0    0    0    0 -0.00000000000E+00 -0.00000000000E+00 -0.45593999997E+02  0.45594000000E+02  0.51100000000E-03 0. -1.
    9900012    2    1    2    0    0  0.80186805889E+01  0.11218266119E+01  0.30840937105E+02  0.59301935099E+02  0.49999983716E+02 0.  0.
         12    1    1    2    0    0 -0.80186805889E+01 -0.11218266119E+01 -0.30840937105E+02  0.31886064901E+02  0.00000000000E+00 0. -1.
         11    1    3    3    0    0  0.39443405904E+01 -0.12098973446E+02 -0.62724873499E+01  0.14187567761E+02  0.51100000000E-03 0. -1.
        -11    1    3    3    0    0  0.12903664971E+01  0.17283581232E+02  0.36158292777E+02  0.40097498210E+02  0.51100000000E-03 0.  1.
        -12    1    3    3    0    0  0.27839735015E+01 -0.40627811740E+01  0.95513167846E+00  0.50168691280E+01  0.00000000000E+00 0.  1.
</event>
<event>
 7    1  0.7755875E-012  0.5930194E+02  0.7816164E-02  0.1266605E+00
        -11   -1    0    0    0    0  0.00000000000E+00  0.00000000000E+00  0.45593999997E+02  0.45594000000E+02  0.51100000000E-03 0.  1.
         11   -1    0    0    0    0 -0.00000000000E+00 -0.00000000000E+00 -0.45593999997E+02  0.45594000000E+02  0.51100000000E-03 0. -1.
    9900012    2    1    2    0    0 -0.72784776864E+01 -0.10885555142E+02  0.29073175363E+02  0.59301936056E+02  0.49999985461E+02 0.  0.
         12    1    1    2    0    0  0.72784776864E+01  0.10885555142E+02 -0.29073175363E+02  0.31886063944E+02  0.00000000000E+00 0. -1.
         11    1    3    3    0    0  0.27406795709E+01 -0.75302462241E-01 -0.91780554180E+01  0.95788149835E+01  0.51100000000E-03 0. -1.
        -11    1    3    3    0    0 -0.17027647362E+02 -0.13810734493E+02  0.35287030674E+02  0.41543371264E+02  0.51100000000E-03 0.  1.
        -12    1    3    3    0    0  0.70084901045E+01  0.30004818137E+01  0.29642001071E+01  0.81797498088E+01  0.00000000000E+00 0.  1.
</event>
<event>
 7    1  0.7755875E-012  0.5930196E+02  0.7816164E-02  0.1266605E+00
        -11   -1    0    0    0    0  0.00000000000E+00  0.00000000000E+00  0.45593999997E+02  0.45594000000E+02  0.51100000000E-03 0. -1.
         11   -1    0    0    0    0 -0.00000000000E+00 -0.00000000000E+00 -0.45593999997E+02  0.45594000000E+02  0.51100000000E-03 0.  1.
    9900012    2    1    2    0    0 -0.89448116139E+01 -0.21088494597E+02 -0.22180741870E+02  0.59301959652E+02  0.50000028495E+02 0.  0.
         12    1    1    2    0    0  0.89448116139E+01  0.21088494597E+02  0.22180741870E+02  0.31886040348E+02  0.00000000000E+00 0. -1.
         11    1    3    3    0    0 -0.98255969799E+01  0.88107854647E+01 -0.94021613668E+01  0.16204102417E+02  0.51100000000E-03 0. -1.
        -11    1    3    3    0    0  0.10095645249E+02 -0.19369480413E+02 -0.17856290049E+02  0.28212513518E+02  0.51100000000E-03 0.  1.
        -12    1    3    3    0    0 -0.92148598832E+01 -0.10529799649E+02  0.50777095459E+01  0.14885343716E+02  0.00000000000E+00 0.  1.
</event>
<event>
 7    1  0.7755875E-012  0.5930192E+02  0.7816164E-02  0.1266605E+00
        -11   -1    0    0    0    0  0.00000000000E+00  0.00000000000E+00  0.45593999997E+02  0.45594000000E+02  0.51100000000E-03 0.  1.
         11   -1    0    0    0    0 -0.00000000000E+00 -0.00000000000E+00 -0.45593999997E+02  0.45594000000E+02  0.51100000000E-03 0. -1.
    9900012    2    1    2    0    0 -0.25058128235E+02 -0.18848719951E+02  0.57911856484E+01  0.59301923639E+02  0.49999962817E+02 0.  0.
         12    1    1    2    0    0  0.25058128235E+02  0.18848719951E+02 -0.57911856484E+01  0.31886076361E+02  0.00000000000E+00 0. -1.
         11    1    3    3    0    0  0.73782588522E+01 -0.13661839249E+02 -0.94362761776E+01  0.18169421116E+02  0.51100000000E-03 0. -1.
        -11    1    3    3    0    0 -0.20610723310E+02 -0.10015278945E+02  0.24176346086E+01  0.23042410574E+02  0.51100000000E-03 0.  1.
         12    1    3    3    0    0 -0.11825663778E+02  0.48283982429E+01  0.12809827217E+02  0.18090091949E+02  0.00000000000E+00 0. -1.
</event>
<event>
 7    1  0.7755875E-012  0.5930196E+02  0.7816164E-02  0.1266605E+00
        -11   -1    0    0    0    0  0.00000000000E+00  0.00000000000E+00  0.45593999997E+02  0.45594000000E+02  0.51100000000E-03 0.  1.
         11   -1    0    0    0    0 -0.00000000000E+00 -0.00000000000E+00 -0.45593999997E+02  0.45594000000E+02  0.51100000000E-03 0. -1.
    9900012    2    1    2    0    0  0.12138063749E+01  0.15210720975E+02  0.27997865444E+02  0.59301955593E+02  0.50000021093E+02 0.  0.
         12    1    1    2    0    0 -0.12138063749E+01 -0.15210720975E+02 -0.27997865444E+02  0.31886044407E+02  0.00000000000E+00 0. -1.
         11    1    3    3    0    0 -0.42126528186E+01 -0.10538224844E+01 -0.10699273279E+02  0.11546923164E+02  0.51100000000E-03 0. -1.
        -11    1    3    3    0    0  0.10759305359E+02  0.45899769923E+01  0.30136746776E+02  0.32327295697E+02  0.51100000000E-03 0.  1.
        -12    1    3    3    0    0 -0.53328461652E+01  0.11674566467E+02  0.85603919468E+01  0.15427736733E+02  0.00000000000E+00 0.  1.
</event>
<event>
 7    1  0.8407244E-012  0.5930195E+02  0.7816164E-02  0.1266605E+00
        -11   -1    0    0    0    0  0.00000000000E+00  0.00000000000E+00  0.45593999997E+02  0.45594000000E+02  0.51100000000E-03 0. -1.
         11   -1    0    0    0    0 -0.00000000000E+00 -0.00000000000E+00 -0.45593999997E+02  0.45594000000E+02  0.51100000000E-03 0.  1.
    9900012    2    1    2    0    0  0.51166452489E+01  0.90071708926E+01 -0.30156446745E+02  0.59301945581E+02  0.50000002833E+02 0.  0.
         12    1    1    2    0    0 -0.51166452489E+01 -0.90071708926E+01  0.30156446745E+02  0.31886054419E+02  0.00000000000E+00 0. -1.
         11    1    3    3    0    0 -0.33628586937E+01 -0.12811486798E+02  0.10760184345E+01  0.13289124444E+02  0.51100000000E-03 0. -1.
        -11    1    3    3    0    0  0.63190426038E+01  0.72478621573E+01 -0.29682784289E+02  0.31201434081E+02  0.51100000000E-03 0.  1.
         12    1    3    3    0    0  0.21604613388E+01  0.14570795533E+02 -0.15496808905E+01  0.14811387056E+02  0.00000000000E+00 0. -1.
</event>
<event>
 7    1  0.7755875E-012  0.5930194E+02  0.7816164E-02  0.1266605E+00
        -11   -1    0    0    0    0  0.00000000000E+00  0.00000000000E+00  0.45593999997E+02  0.45594000000E+02  0.51100000000E-03 0.  1.
         11   -1    0    0    0    0 -0.00000000000E+00 -0.00000000000E+00 -0.45593999997E+02  0.45594000000E+02  0.51100000000E-03 0. -1.
    9900012    2    1    2    0    0 -0.18448093494E+02 -0.25512293318E+02  0.50508829892E+01  0.59301942186E+02  0.49999996642E+02 0.  0.
         12    1    1    2    0    0  0.18448093494E+02  0.25512293318E+02 -0.50508829892E+01  0.31886057814E+02  0.00000000000E+00 0. -1.
         11    1    3    3    0    0  0.11184690724E+02 -0.80461383156E+01  0.83324832222E+01  0.16101798822E+02  0.51100000000E-03 0. -1.
        -11    1    3    3    0    0 -0.25025979551E+02 -0.23125662889E+02  0.20899565184E+01  0.34138890653E+02  0.51100000000E-03 0.  1.
         12    1    3    3    0    0 -0.46068046677E+01  0.56595078863E+01 -0.53715567514E+01  0.90612527111E+01  0.00000000000E+00 0. -1.
</event>
<event>
 7    1  0.7755875E-012  0.5930202E+02  0.7816164E-02  0.1266604E+00
        -11   -1    0    0    0    0  0.00000000000E+00  0.00000000000E+00  0.45593999997E+02  0.45594000000E+02  0.51100000000E-03 0.  1.
         11   -1    0    0    0    0 -0.00000000000E+00 -0.00000000000E+00 -0.45593999997E+02  0.45594000000E+02  0.51100000000E-03 0. -1.
    9900012    2    1    2    0    0 -0.16822908454E+01 -0.30573360516E+02 -0.88969113367E+01  0.59302023348E+02  0.50000144661E+02 0.  0.
         12    1    1    2    0    0  0.16822908454E+01  0.30573360516E+02  0.88969113367E+01  0.31885976652E+02  0.00000000000E+00 0. -1.
         11    1    3    3    0    0  0.10847528632E+02 -0.73464010913E+00  0.79786569324E+01  0.13485827383E+02  0.51100000000E-03 0. -1.
        -11    1    3    3    0    0  0.44957612187E+01 -0.24218794835E+02 -0.10660134323E+02  0.26840274891E+02  0.51100000000E-03 0.  1.
         12    1    3    3    0    0 -0.17025580696E+02 -0.56199255720E+01 -0.62154339463E+01  0.18975921074E+02  0.00000000000E+00 0. -1.
</event>
<event>
 7    1  0.7755875E-012  0.5930193E+02  0.7816164E-02  0.1266605E+00
        -11   -1    0    0    0    0  0.00000000000E+00  0.00000000000E+00  0.45593999997E+02  0.45594000000E+02  0.51100000000E-03 0. -1.
         11   -1    0    0    0    0 -0.00000000000E+00 -0.00000000000E+00 -0.45593999997E+02  0.45594000000E+02  0.51100000000E-03 0.  1.
    9900012    2    1    2    0    0  0.68837207180E+01  0.97862341874E+01 -0.29556138425E+02  0.59301932367E+02  0.49999978734E+02 0.  0.
         12    1    1    2    0    0 -0.68837207180E+01 -0.97862341874E+01  0.29556138425E+02  0.31886067633E+02  0.00000000000E+00 0. -1.
         11    1    3    3    0    0  0.95335911291E+01  0.22702235795E+02 -0.31053808921E+01  0.24817821433E+02  0.51100000000E-03 0. -1.
        -11    1    3    3    0    0  0.72824088432E+01 -0.80292328037E+01 -0.15491183917E+02  0.18907110763E+02  0.51100000000E-03 0.  1.
         12    1    3    3    0    0 -0.99322792543E+01 -0.48867688041E+01 -0.10959573615E+02  0.15577000172E+02  0.00000000000E+00 0. -1.
</event>
<event>
 7    1  0.7755875E-012  0.5930197E+02  0.7816164E-02  0.1266605E+00
        -11   -1    0    0    0    0  0.00000000000E+00  0.00000000000E+00  0.45593999997E+02  0.45594000000E+02  0.51100000000E-03 0.  1.
         11   -1    0    0    0    0 -0.00000000000E+00 -0.00000000000E+00 -0.45593999997E+02  0.45594000000E+02  0.51100000000E-03 0. -1.
    9900012    2    1    2    0    0 -0.21357039746E+02  0.16257547539E+02  0.17213021034E+02  0.59301967136E+02  0.50000042143E+02 0.  0.
         12    1    1    2    0    0  0.21357039746E+02 -0.16257547539E+02 -0.17213021034E+02  0.31886032864E+02  0.00000000000E+00 0. -1.
         11    1    3    3    0    0 -0.88264577627E+01 -0.10452281427E+02  0.83261457192E+01  0.16015031891E+02  0.51100000000E-03 0. -1.
        -11    1    3    3    0    0  0.14961135397E+01  0.13709277169E+02 -0.95085946139E+01  0.16751000209E+02  0.51100000000E-03 0.  1.
        -12    1    3    3    0    0 -0.14026695523E+02  0.13000551798E+02  0.18395469928E+02  0.26535935036E+02  0.00000000000E+00 0.  1.
</event>
<event>
 7    1  0.7755875E-012  0.5930185E+02  0.7816164E-02  0.1266605E+00
        -11   -1    0    0    0    0  0.00000000000E+00  0.00000000000E+00  0.45593999997E+02  0.45594000000E+02  0.51100000000E-03 0.  1.
         11   -1    0    0    0    0 -0.00000000000E+00 -0.00000000000E+00 -0.45593999997E+02  0.45594000000E+02  0.51100000000E-03 0. -1.
    9900012    2    1    2    0    0  0.27602572550E+02 -0.93112795312E+01  0.12966280021E+02  0.59301853236E+02  0.49999834417E+02 0.  0.
         12    1    1    2    0    0 -0.27602572550E+02  0.93112795312E+01 -0.12966280021E+02  0.31886146764E+02  0.00000000000E+00 0. -1.
         11    1    3    3    0    0  0.15596857475E+02 -0.39901312176E+01 -0.86281136949E+01  0.18265471700E+02  0.51100000000E-03 0. -1.
        -11    1    3    3    0    0 -0.51166680802E+01 -0.93408975612E+00  0.22736707338E+02  0.23324036460E+02  0.51100000000E-03 0.  1.
        -12    1    3    3    0    0  0.17122383155E+02 -0.43870585575E+01 -0.11423136225E+01  0.17712345077E+02  0.00000000000E+00 0.  1.
</event>
<event>
 7    1  0.7755875E-012  0.5930191E+02  0.7816164E-02  0.1266605E+00
        -11   -1    0    0    0    0  0.00000000000E+00  0.00000000000E+00  0.45593999997E+02  0.45594000000E+02  0.51100000000E-03 0.  1.
         11   -1    0    0    0    0 -0.00000000000E+00 -0.00000000000E+00 -0.45593999997E+02  0.45594000000E+02  0.51100000000E-03 0. -1.
    9900012    2    1    2    0    0  0.11336252597E+01  0.19097834397E+02  0.25509024923E+02  0.59301909970E+02  0.49999937887E+02 0.  0.
         12    1    1    2    0    0 -0.11336252597E+01 -0.19097834397E+02 -0.25509024923E+02  0.31886090030E+02  0.00000000000E+00 0. -1.
         11    1    3    3    0    0  0.16246431989E+02  0.13975501022E+02  0.30350629432E+02  0.37154029234E+02  0.51100000000E-03 0.  1.
        -11    1    3    3    0    0 -0.14879013563E+02 -0.28784204517E+00  0.31145754224E-02  0.14881797862E+02  0.51100000000E-03 0. -1.
         12    1    3    3    0    0 -0.23379316598E+00  0.54101754196E+01 -0.48447190839E+01  0.72660828730E+01  0.00000000000E+00 0. -1.
</event>
<event>
 7    1  0.7755875E-012  0.5930195E+02  0.7816164E-02  0.1266605E+00
        -11   -1    0    0    0    0  0.00000000000E+00  0.00000000000E+00  0.45593999997E+02  0.45594000000E+02  0.51100000000E-03 0.  1.
         11   -1    0    0    0    0 -0.00000000000E+00 -0.00000000000E+00 -0.45593999997E+02  0.45594000000E+02  0.51100000000E-03 0. -1.
    9900012    2    1    2    0    0  0.17104072889E+02  0.10083491418E+02  0.24949827520E+02  0.59301952866E+02  0.50000016119E+02 0.  0.
         12    1    1    2    0    0 -0.17104072889E+02 -0.10083491418E+02 -0.24949827520E+02  0.31886047134E+02  0.00000000000E+00 0. -1.
         11    1    3    3    0    0  0.22491367257E+01  0.33971683159E+01 -0.13527420334E+02  0.14127649122E+02  0.51100000000E-03 0. -1.
        -11    1    3    3    0    0 -0.19600303559E+01  0.40236057975E+01  0.17981827940E+02  0.18530441412E+02  0.51100000000E-03 0.  1.
         12    1    3    3    0    0  0.16814966520E+02  0.26627173042E+01  0.20495419913E+02  0.26643862331E+02  0.00000000000E+00 0. -1.
</event>
<event>
 7    1  0.7755875E-012  0.5930195E+02  0.7816164E-02  0.1266605E+00
        -11   -1    0    0    0    0  0.00000000000E+00  0.00000000000E+00  0.45593999997E+02  0.45594000000E+02  0.51100000000E-03 0.  1.
         11   -1    0    0    0    0 -0.00000000000E+00 -0.00000000000E+00 -0.45593999997E+02  0.45594000000E+02  0.51100000000E-03 0. -1.
    9900012    2    1    2    0    0 -0.12585409721E+02  0.63570889125E+01  0.28599213478E+02  0.59301950874E+02  0.50000012486E+02 0.  0.
         12    1    1    2    0    0  0.12585409721E+02 -0.63570889125E+01 -0.28599213478E+02  0.31886049126E+02  0.00000000000E+00 0. -1.
         11    1    3    3    0    0  0.99402808963E+01 -0.15829900588E+02  0.17817871856E+02  0.25823855147E+02  0.51100000000E-03 0. -1.
        -11    1    3    3    0    0 -0.20738449847E+02  0.19780782461E+02  0.92704755869E+01  0.30121493567E+02  0.51100000000E-03 0.  1.
         12    1    3    3    0    0 -0.17872407695E+01  0.24062070395E+01  0.15108660358E+01  0.33566021603E+01  0.00000000000E+00 0. -1.
</event>
<event>
 7    1  0.7755875E-012  0.5930194E+02  0.7816164E-02  0.1266605E+00
        -11   -1    0    0    0    0  0.00000000000E+00  0.00000000000E+00  0.45593999997E+02  0.45594000000E+02  0.51100000000E-03 0.  1.
         11   -1    0    0    0    0 -0.00000000000E+00 -0.00000000000E+00 -0.45593999997E+02  0.45594000000E+02  0.51100000000E-03 0. -1.
    9900012    2    1    2    0    0  0.22634432237E+02 -0.57831499192E+01  0.21701575079E+02  0.59301941815E+02  0.49999995964E+02 0.  0.
         12    1    1    2    0    0 -0.22634432237E+02  0.57831499192E+01 -0.21701575079E+02  0.31886058185E+02  0.00000000000E+00 0. -1.
         11    1    3    3    0    0  0.22110532448E+02  0.44606763556E+01  0.84125087540E+00  0.22571685404E+02  0.51100000000E-03 0. -1.
        -11    1    3    3    0    0 -0.49425685455E+01 -0.11645455360E+02 -0.23295461385E+01  0.12863607575E+02  0.51100000000E-03 0.  1.
        -12    1    3    3    0    0  0.54664683344E+01  0.14016290848E+01  0.23189870342E+02  0.23866648836E+02  0.00000000000E+00 0.  1.
</event>
<event>
 7    1  0.7755875E-012  0.5930202E+02  0.7816164E-02  0.1266605E+00
        -11   -1    0    0    0    0  0.00000000000E+00  0.00000000000E+00  0.45593999997E+02  0.45594000000E+02  0.51100000000E-03 0.  1.
         11   -1    0    0    0    0 -0.00000000000E+00 -0.00000000000E+00 -0.45593999997E+02  0.45594000000E+02  0.51100000000E-03 0. -1.
    9900012    2    1    2    0    0 -0.71614321340E+01  0.29611208252E+02 -0.94130807066E+01  0.59302017928E+02  0.50000134776E+02 0.  0.
         12    1    1    2    0    0  0.71614321340E+01 -0.29611208252E+02  0.94130807066E+01  0.31885982072E+02  0.00000000000E+00 0. -1.
         11    1    3    3    0    0  0.13960090375E+02  0.24379596353E+02  0.37479776705E+01  0.28342480105E+02  0.51100000000E-03 0. -1.
        -11    1    3    3    0    0 -0.14269844506E+02  0.11557774108E+02 -0.64220199213E+01  0.19453867088E+02  0.51100000000E-03 0.  1.
         12    1    3    3    0    0 -0.68516780033E+01 -0.63261622088E+01 -0.67390384558E+01  0.11505670735E+02  0.00000000000E+00 0. -1.
</event>
<event>
 7    1  0.7755875E-012  0.5930194E+02  0.7816164E-02  0.1266605E+00
        -11   -1    0    0    0    0  0.00000000000E+00  0.00000000000E+00  0.45593999997E+02  0.45594000000E+02  0.51100000000E-03 0. -1.
         11   -1    0    0    0    0 -0.00000000000E+00 -0.00000000000E+00 -0.45593999997E+02  0.45594000000E+02  0.51100000000E-03 0.  1.
    9900012    2    1    2    0    0 -0.28128751212E+02 -0.15015581218E+02  0.16258919206E+00  0.59301940988E+02  0.49999994456E+02 0.  0.
         12    1    1    2    0    0  0.28128751212E+02  0.15015581218E+02 -0.16258919206E+00  0.31886059012E+02  0.00000000000E+00 0. -1.
         11    1    3    3    0    0 -0.19257623310E+02  0.11157471318E+02 -0.56107666847E+01  0.22952688836E+02  0.51100000000E-03 0. -1.
        -11    1    3    3    0    0 -0.56104549097E+01 -0.25484411308E+02 -0.36548482487E+01  0.26349389746E+02  0.51100000000E-03 0.  1.
         12    1    3    3    0    0 -0.32606729932E+01 -0.68864122806E+00  0.94282041254E+01  0.99998624061E+01  0.00000000000E+00 0. -1.
</event>
<event>
 7    1  0.7755875E-012  0.5930154E+02  0.7816164E-02  0.1266606E+00
        -11   -1    0    0    0    0  0.00000000000E+00  0.00000000000E+00  0.45593999997E+02  0.45594000000E+02  0.51100000000E-03 0.  1.
         11   -1    0    0    0    0 -0.00000000000E+00 -0.00000000000E+00 -0.45593999997E+02  0.45594000000E+02  0.51100000000E-03 0. -1.
    9900012    2    1    2    0    0  0.18832114610E+02 -0.25465733111E+02 -0.36870198397E+01  0.59301541764E+02  0.49999266361E+02 0.  0.
         12    1    1    2    0    0 -0.18832114610E+02  0.25465733111E+02  0.36870198397E+01  0.31886458236E+02  0.00000000000E+00 0. -1.
         11    1    3    3    0    0  0.12051711619E+02  0.72575365911E+00 -0.75512507204E+01  0.14240500659E+02  0.51100000000E-03 0.  1.
        -11    1    3    3    0    0 -0.59952261946E+01 -0.23129733953E+01  0.14582668433E+02  0.15935708391E+02  0.51100000000E-03 0. -1.
        -12    1    3    3    0    0  0.12775629185E+02 -0.23878513375E+02 -0.10718437552E+02  0.29125332713E+02  0.00000000000E+00 0.  1.
</event>
<event>
 7    1  0.7755875E-012  0.5930196E+02  0.7816164E-02  0.1266605E+00
        -11   -1    0    0    0    0  0.00000000000E+00  0.00000000000E+00  0.45593999997E+02  0.45594000000E+02  0.51100000000E-03 0.  1.
         11   -1    0    0    0    0 -0.00000000000E+00 -0.00000000000E+00 -0.45593999997E+02  0.45594000000E+02  0.51100000000E-03 0. -1.
    9900012    2    1    2    0    0 -0.12418567070E+02 -0.13436658951E+02  0.26114270665E+02  0.59301956906E+02  0.50000023487E+02 0.  0.
         12    1    1    2    0    0  0.12418567070E+02  0.13436658951E+02 -0.26114270665E+02  0.31886043094E+02  0.00000000000E+00 0. -1.
         11    1    3    3    0    0  0.13374766856E+01 -0.34724610910E+01  0.14675251920E+02  0.15139677972E+02  0.51100000000E-03 0. -1.
        -11    1    3    3    0    0  0.92797754889E+01  0.48479627804E+01 -0.56339797360E+01  0.11889436663E+02  0.51100000000E-03 0.  1.
        -12    1    3    3    0    0 -0.23035819245E+02 -0.14812160640E+02  0.17072998481E+02  0.32272842271E+02  0.00000000000E+00 0.  1.
</event>
<event>
 7    1  0.7755875E-012  0.5930195E+02  0.7816164E-02  0.1266605E+00
        -11   -1    0    0    0    0  0.00000000000E+00  0.00000000000E+00  0.45593999997E+02  0.45594000000E+02  0.51100000000E-03 0. -1.
         11   -1    0    0    0    0 -0.00000000000E+00 -0.00000000000E+00 -0.45593999997E+02  0.45594000000E+02  0.51100000000E-03 0.  1.
    9900012    2    1    2    0    0  0.18612734777E+02 -0.25378181761E+02 -0.51219530867E+01  0.59301946485E+02  0.50000004481E+02 0.  0.
         12    1    1    2    0    0 -0.18612734777E+02  0.25378181761E+02  0.51219530867E+01  0.31886053515E+02  0.00000000000E+00 0. -1.
         11    1    3    3    0    0 -0.73118551799E+01 -0.19710337746E+02 -0.87425021786E+01  0.22768223137E+02  0.51100000000E-03 0. -1.
        -11    1    3    3    0    0  0.15112967795E+02 -0.55798553389E+01 -0.10138499820E+02  0.19034856449E+02  0.51100000000E-03 0.  1.
         12    1    3    3    0    0  0.10811622162E+02 -0.87988675900E-01  0.13759048912E+02  0.17498866899E+02  0.00000000000E+00 0. -1.
</event>
<event>
 7    1  0.7755875E-012  0.5930195E+02  0.7816164E-02  0.1266605E+00
        -11   -1    0    0    0    0  0.00000000000E+00  0.00000000000E+00  0.45593999997E+02  0.45594000000E+02  0.51100000000E-03 0.  1.
         11   -1    0    0    0    0 -0.00000000000E+00 -0.00000000000E+00 -0.45593999997E+02  0.45594000000E+02  0.51100000000E-03 0. -1.
    9900012    2    1    2    0    0  0.18656262443E+02  0.10518233738E+02  0.23622678281E+02  0.59301948215E+02  0.50000007636E+02 0.  0.
         12    1    1    2    0    0 -0.18656262443E+02 -0.10518233738E+02 -0.23622678281E+02  0.31886051785E+02  0.00000000000E+00 0. -1.
         11    1    3    3    0    0  0.57044012840E+01  0.15199293719E+02 -0.24734531445E+01  0.16421835898E+02  0.51100000000E-03 0. -1.
        -11    1    3    3    0    0  0.15056109356E+02  0.65363685027E+01  0.26820139085E+02  0.31444083751E+02  0.51100000000E-03 0.  1.
        -12    1    3    3    0    0 -0.21042481971E+01 -0.11217428483E+02 -0.72400766041E+00  0.11436028565E+02  0.00000000000E+00 0.  1.
</event>
<event>
 7    1  0.7755875E-012  0.5930194E+02  0.7816164E-02  0.1266605E+00
        -11   -1    0    0    0    0  0.00000000000E+00  0.00000000000E+00  0.45593999997E+02  0.45594000000E+02  0.51100000000E-03 0. -1.
         11   -1    0    0    0    0 -0.00000000000E+00 -0.00000000000E+00 -0.45593999997E+02  0.45594000000E+02  0.51100000000E-03 0.  1.
    9900012    2    1    2    0    0 -0.15220298446E+02 -0.15161251806E+02 -0.23562679175E+02  0.59301938923E+02  0.49999990690E+02 0.  0.
         12    1    1    2    0    0  0.15220298446E+02  0.15161251806E+02  0.23562679175E+02  0.31886061077E+02  0.00000000000E+00 0. -1.
         11    1    3    3    0    0 -0.10190351205E+02 -0.12993268308E+02 -0.20222617109E+02  0.26107901525E+02  0.51100000000E-03 0.  1.
        -11    1    3    3    0    0 -0.96380221613E+01 -0.12002967314E+02  0.81208742654E+01  0.17404347004E+02  0.51100000000E-03 0. -1.
         12    1    3    3    0    0  0.46080749201E+01  0.98349838170E+01 -0.11460936332E+02  0.15789690394E+02  0.00000000000E+00 0. -1.
</event>
<event>
 7    1  0.7755875E-012  0.5930194E+02  0.7816164E-02  0.1266605E+00
        -11   -1    0    0    0    0  0.00000000000E+00  0.00000000000E+00  0.45593999997E+02  0.45594000000E+02  0.51100000000E-03 0. -1.
         11   -1    0    0    0    0 -0.00000000000E+00 -0.00000000000E+00 -0.45593999997E+02  0.45594000000E+02  0.51100000000E-03 0.  1.
    9900012    2    1    2    0    0  0.18643840689E+02  0.75053880371E+01 -0.24754745147E+02  0.59301936390E+02  0.49999986071E+02 0.  0.
         12    1    1    2    0    0 -0.18643840689E+02 -0.75053880371E+01  0.24754745147E+02  0.31886063610E+02  0.00000000000E+00 0. -1.
         11    1    3    3    0    0 -0.53854712979E+01  0.72915137562E+01 -0.12369606603E+01  0.91487455913E+01  0.51100000000E-03 0. -1.
        -11    1    3    3    0    0  0.30764141205E+02  0.36246735268E+01 -0.27671609880E+02  0.41536593937E+02  0.51100000000E-03 0.  1.
         12    1    3    3    0    0 -0.67348292178E+01 -0.34107992459E+01  0.41538253930E+01  0.86165968622E+01  0.00000000000E+00 0. -1.
</event>
<event>
 7    1  0.7755875E-012  0.5930189E+02  0.7816164E-02  0.1266605E+00
        -11   -1    0    0    0    0  0.00000000000E+00  0.00000000000E+00  0.45593999997E+02  0.45594000000E+02  0.51100000000E-03 0.  1.
         11   -1    0    0    0    0 -0.00000000000E+00 -0.00000000000E+00 -0.45593999997E+02  0.45594000000E+02  0.51100000000E-03 0. -1.
    9900012    2    1    2    0    0  0.41111450980E+01  0.24177170734E+02  0.20378581753E+02  0.59301894986E+02  0.49999910559E+02 0.  0.
         12    1    1    2    0    0 -0.41111450980E+01 -0.24177170734E+02 -0.20378581753E+02  0.31886105014E+02  0.00000000000E+00 0. -1.
         11    1    3    3    0    0 -0.22341858986E+01  0.31036830440E+02  0.93645138546E+01  0.32495700490E+02  0.51100000000E-03 0. -1.
        -11    1    3    3    0    0  0.50999140490E+01  0.36564790322E+01  0.14384023126E+02  0.15693281485E+02  0.51100000000E-03 0.  1.
         12    1    3    3    0    0  0.12454169476E+01 -0.10516138738E+02 -0.33699552275E+01  0.11112913010E+02  0.00000000000E+00 0. -1.
</event>
<event>
 7    1  0.7755875E-012  0.5930195E+02  0.7816164E-02  0.1266605E+00
        -11   -1    0    0    0    0  0.00000000000E+00  0.00000000000E+00  0.45593999997E+02  0.45594000000E+02  0.51100000000E-03 0.  1.
         11   -1    0    0    0    0 -0.00000000000E+00 -0.00000000000E+00 -0.45593999997E+02  0.45594000000E+02  0.51100000000E-03 0. -1.
    9900012    2    1    2    0    0  0.19245954476E+01  0.31646591177E+02  0.33925944650E+01  0.59301945087E+02  0.50000001931E+02 0.  0.
         12    1    1    2    0    0 -0.19245954476E+01 -0.31646591177E+02 -0.33925944650E+01  0.31886054913E+02  0.00000000000E+00 0. -1.
         11    1    3    3    0    0  0.12090139133E+02  0.17571624289E+02 -0.91739969481E+01  0.23218433726E+02  0.51100000000E-03 0. -1.
        -11    1    3    3    0    0 -0.62209776250E+01  0.21417355272E+02  0.15596527557E+02  0.27214983769E+02  0.51100000000E-03 0.  1.
        -12    1    3    3    0    0 -0.39445660605E+01 -0.73423883850E+01 -0.30299361437E+01  0.88685275912E+01  0.00000000000E+00 0.  1.
</event>
<event>
 7    1  0.7755875E-012  0.5930195E+02  0.7816164E-02  0.1266605E+00
        -11   -1    0    0    0    0  0.00000000000E+00  0.00000000000E+00  0.45593999997E+02  0.45594000000E+02  0.51100000000E-03 0.  1.
         11   -1    0    0    0    0 -0.00000000000E+00 -0.00000000000E+00 -0.45593999997E+02  0.45594000000E+02  0.51100000000E-03 0. -1.
    9900012    2    1    2    0    0  0.11013840299E+02 -0.16728722906E+02  0.24810590060E+02  0.59301949331E+02  0.50000009671E+02 0.  0.
         12    1    1    2    0    0 -0.11013840299E+02  0.16728722906E+02 -0.24810590060E+02  0.31886050669E+02  0.00000000000E+00 0. -1.
         11    1    3    3    0    0 -0.12174237863E+02  0.98410148546E+00 -0.48440572487E+01  0.13139460193E+02  0.51100000000E-03 0. -1.
        -11    1    3    3    0    0  0.18739403589E+02 -0.22192176098E+02  0.23774291294E+02  0.37534981732E+02  0.51100000000E-03 0.  1.
         12    1    3    3    0    0  0.44486745732E+01  0.44793517069E+01  0.58803560138E+01  0.86275074049E+01  0.00000000000E+00 0. -1.
</event>
<event>
 7    1  0.7755875E-012  0.5930193E+02  0.7816164E-02  0.1266605E+00
        -11   -1    0    0    0    0  0.00000000000E+00  0.00000000000E+00  0.45593999997E+02  0.45594000000E+02  0.51100000000E-03 0. -1.
         11   -1    0    0    0    0 -0.00000000000E+00 -0.00000000000E+00 -0.45593999997E+02  0.45594000000E+02  0.51100000000E-03 0.  1.
    9900012    2    1    2    0    0 -0.19865873204E+02 -0.17620936581E+02 -0.17651372336E+02  0.59301932988E+02  0.49999979867E+02 0.  0.
         12    1    1    2    0    0  0.19865873204E+02  0.17620936581E+02  0.17651372336E+02  0.31886067012E+02  0.00000000000E+00 0. -1.
         11    1    3    3    0    0 -0.30713224458E+02 -0.12529942509E+02 -0.23087406636E+02  0.40414477125E+02  0.51100000000E-03 0. -1.
        -11    1    3    3    0    0  0.13980748082E+02 -0.40004509626E+01  0.32093821568E+01  0.14891778233E+02  0.51100000000E-03 0.  1.
        -12    1    3    3    0    0 -0.31333968286E+01 -0.10905431098E+01  0.22266521435E+01  0.39956776306E+01  0.00000000000E+00 0.  1.
</event>
<event>
 7    1  0.7755875E-012  0.5930181E+02  0.7816164E-02  0.1266605E+00
        -11   -1    0    0    0    0  0.00000000000E+00  0.00000000000E+00  0.45593999997E+02  0.45594000000E+02  0.51100000000E-03 0. -1.
         11   -1    0    0    0    0 -0.00000000000E+00 -0.00000000000E+00 -0.45593999997E+02  0.45594000000E+02  0.51100000000E-03 0.  1.
    9900012    2    1    2    0    0 -0.27041707616E+01  0.25191626097E+01 -0.31671281989E+02  0.59301814549E+02  0.49999763862E+02 0.  0.
         12    1    1    2    0    0  0.27041707616E+01 -0.25191626097E+01  0.31671281989E+02  0.31886185451E+02  0.00000000000E+00 0. -1.
         11    1    3    3    0    0  0.14315428989E+02  0.40991143389E+01  0.54404860361E+01  0.15853489650E+02  0.51100000000E-03 0. -1.
        -11    1    3    3    0    0  0.79101526031E+00 -0.19856942298E+01 -0.14524120212E+02  0.14680557037E+02  0.51100000000E-03 0.  1.
         12    1    3    3    0    0 -0.17810615011E+02  0.40574250062E+00 -0.22587647813E+02  0.28767767862E+02  0.00000000000E+00 0. -1.
</event>
<event>
 7    1  0.7755875E-012  0.5930196E+02  0.7816164E-02  0.1266605E+00
        -11   -1    0    0    0    0  0.00000000000E+00  0.00000000000E+00  0.45593999997E+02  0.45594000000E+02  0.51100000000E-03 0.  1.
         11   -1    0    0    0    0 -0.00000000000E+00 -0.00000000000E+00 -0.45593999997E+02  0.45594000000E+02  0.51100000000E-03 0. -1.
    9900012    2    1    2    0    0  0.14907345336E+02 -0.88296348572E+01  0.26768045616E+02  0.59301958183E+02  0.50000025816E+02 0.  0.
         12    1    1    2    0    0 -0.14907345336E+02  0.88296348572E+01 -0.26768045616E+02  0.31886041817E+02  0.00000000000E+00 0. -1.
         11    1    3    3    0    0 -0.74893925772E+00 -0.52780482833E+01  0.31621892686E+02  0.32068096311E+02  0.51100000000E-03 0. -1.
        -11    1    3    3    0    0  0.14654947983E+02  0.33925909944E+01  0.43518418479E+01  0.15659364667E+02  0.51100000000E-03 0.  1.
         12    1    3    3    0    0  0.10013366106E+01 -0.69441775683E+01 -0.92056889180E+01  0.11574497206E+02  0.00000000000E+00 0. -1.
</event>
<event>
 7    1  0.7755875E-012  0.5930196E+02  0.7816164E-02  0.1266605E+00
        -11   -1    0    0    0    0  0.00000000000E+00  0.00000000000E+00  0.45593999997E+02  0.45594000000E+02  0.51100000000E-03 0.  1.
         11   -1    0    0    0    0 -0.00000000000E+00 -0.00000000000E+00 -0.45593999997E+02  0.45594000000E+02  0.51100000000E-03 0. -1.
    9900012    2    1    2    0    0  0.15480494007E+02 -0.25866539611E+02  0.10392118090E+02  0.59301957841E+02  0.50000025193E+02 0.  0.
         12    1    1    2    0    0 -0.15480494007E+02  0.25866539611E+02 -0.10392118090E+02  0.31886042159E+02  0.00000000000E+00 0. -1.
         11    1    3    3    0    0  0.10921032116E+02 -0.32274568993E+02 -0.10604321331E+02  0.35684287541E+02  0.51100000000E-03 0. -1.
        -11    1    3    3    0    0  0.27255921395E+01  0.10488065327E+01  0.15329738772E+02  0.15605439396E+02  0.51100000000E-03 0.  1.
         12    1    3    3    0    0  0.18338697523E+01  0.53592228499E+01  0.56667006481E+01  0.80122309040E+01  0.00000000000E+00 0. -1.
</event>
<event>
 7    1  0.7755875E-012  0.5930194E+02  0.7816164E-02  0.1266605E+00
        -11   -1    0    0    0    0  0.00000000000E+00  0.00000000000E+00  0.45593999997E+02  0.45594000000E+02  0.51100000000E-03 0.  1.
         11   -1    0    0    0    0 -0.00000000000E+00 -0.00000000000E+00 -0.45593999997E+02  0.45594000000E+02  0.51100000000E-03 0. -1.
    9900012    2    1    2    0    0 -0.19278995472E+02 -0.67364519809E+01  0.24487988183E+02  0.59301936948E+02  0.49999987088E+02 0.  0.
         12    1    1    2    0    0  0.19278995472E+02  0.67364519809E+01 -0.24487988183E+02  0.31886063052E+02  0.00000000000E+00 0. -1.
         11    1    3    3    0    0  0.59504677612E+01  0.45395382593E+01 -0.11325321989E+02  0.13574917775E+02  0.51100000000E-03 0. -1.
        -11    1    3    3    0    0 -0.19568644439E+02 -0.91446182201E+01  0.31892505329E+02  0.38518667994E+02  0.51100000000E-03 0.  1.
        -12    1    3    3    0    0 -0.56608187939E+01 -0.21313720201E+01  0.39208048430E+01  0.72083511792E+01  0.00000000000E+00 0.  1.
</event>
<event>
 7    1  0.7755875E-012  0.5930198E+02  0.7816164E-02  0.1266605E+00
        -11   -1    0    0    0    0  0.00000000000E+00  0.00000000000E+00  0.45593999997E+02  0.45594000000E+02  0.51100000000E-03 0. -1.
         11   -1    0    0    0    0 -0.00000000000E+00 -0.00000000000E+00 -0.45593999997E+02  0.45594000000E+02  0.51100000000E-03 0.  1.
    9900012    2    1    2    0    0  0.12730314027E+02 -0.97016273985E+01 -0.27577811539E+02  0.59301981769E+02  0.50000068830E+02 0.  0.
         12    1    1    2    0    0 -0.12730314027E+02  0.97016273985E+01  0.27577811539E+02  0.31886018231E+02  0.00000000000E+00 0. -1.
         11    1    3    3    0    0  0.23895667600E+02 -0.19480589863E+01 -0.59837050202E+01  0.24710374135E+02  0.51100000000E-03 0. -1.
        -11    1    3    3    0    0 -0.14287943006E+02 -0.83555553819E+01 -0.44285466672E+01  0.17133961799E+02  0.51100000000E-03 0.  1.
        -12    1    3    3    0    0  0.31225894333E+01  0.60198696969E+00 -0.17165559851E+02  0.17457645835E+02  0.00000000000E+00 0.  1.
</event>
<event>
 7    1  0.7755875E-012  0.5930193E+02  0.7816164E-02  0.1266605E+00
        -11   -1    0    0    0    0  0.00000000000E+00  0.00000000000E+00  0.45593999997E+02  0.45594000000E+02  0.51100000000E-03 0. -1.
         11   -1    0    0    0    0 -0.00000000000E+00 -0.00000000000E+00 -0.45593999997E+02  0.45594000000E+02  0.51100000000E-03 0.  1.
    9900012    2    1    2    0    0  0.28672733892E+02 -0.23117522943E+01 -0.13756870451E+02  0.59301931692E+02  0.49999977503E+02 0.  0.
         12    1    1    2    0    0 -0.28672733892E+02  0.23117522943E+01  0.13756870451E+02  0.31886068308E+02  0.00000000000E+00 0. -1.
         11    1    3    3    0    0  0.52269831121E+01  0.10022621074E+02 -0.11623303618E+02  0.16213434951E+02  0.51100000000E-03 0.  1.
        -11    1    3    3    0    0  0.11737514071E+02 -0.23073337411E+02  0.37281046585E+01  0.26154290288E+02  0.51100000000E-03 0. -1.
         12    1    3    3    0    0  0.11708236709E+02  0.10738964043E+02 -0.58616714917E+01  0.16934206454E+02  0.00000000000E+00 0. -1.
</event>
<event>
 7    1  0.7755875E-012  0.5930195E+02  0.7816164E-02  0.1266605E+00
        -11   -1    0    0    0    0  0.00000000000E+00  0.00000000000E+00  0.45593999997E+02  0.45594000000E+02  0.51100000000E-03 0. -1.
         11   -1    0    0    0    0 -0.00000000000E+00 -0.00000000000E+00 -0.45593999997E+02  0.45594000000E+02  0.51100000000E-03 0.  1.
    9900012    2    1    2    0    0 -0.12672925372E+01 -0.21989011490E+02 -0.23056398391E+02  0.59301950332E+02  0.50000011498E+02 0.  0.
         12    1    1    2    0    0  0.12672925372E+01  0.21989011490E+02  0.23056398391E+02  0.31886049668E+02  0.00000000000E+00 0. -1.
         11    1    3    3    0    0 -0.19309265918E+02 -0.17410453871E+02 -0.18790141274E+02  0.32078669917E+02  0.51100000000E-03 0. -1.
        -11    1    3    3    0    0  0.18116833204E+02 -0.43485596550E+01 -0.10229634184E+02  0.21255000170E+02  0.51100000000E-03 0.  1.
         12    1    3    3    0    0 -0.74859823042E-01 -0.22999796414E+00  0.59633770666E+01  0.59682802460E+01  0.00000000000E+00 0. -1.
</event>
<event>
 7    1  0.7755875E-012  0.5930201E+02  0.7816164E-02  0.1266605E+00
        -11   -1    0    0    0    0  0.00000000000E+00  0.00000000000E+00  0.45593999997E+02  0.45594000000E+02  0.51100000000E-03 0. -1.
         11   -1    0    0    0    0 -0.00000000000E+00 -0.00000000000E+00 -0.45593999997E+02  0.45594000000E+02  0.51100000000E-03 0.  1.
    9900012    2    1    2    0    0 -0.29439863843E+01 -0.30436057442E+02  0.90385737773E+01  0.59302008336E+02  0.50000117283E+02 0.  0.
         12    1    1    2    0    0  0.29439863843E+01  0.30436057442E+02 -0.90385737773E+01  0.31885991664E+02  0.00000000000E+00 0. -1.
         11    1    3    3    0    0  0.10241563378E+01  0.92902023307E+01  0.12876382328E+02  0.15910938931E+02  0.51100000000E-03 0. -1.
        -11    1    3    3    0    0 -0.15515554150E+01 -0.26069643199E+02 -0.10321648004E+02  0.28081489251E+02  0.51100000000E-03 0.  1.
        -12    1    3    3    0    0 -0.24165873071E+01 -0.13656616573E+02  0.64838394538E+01  0.15309580155E+02  0.00000000000E+00 0.  1.
</event>
<event>
 7    1  0.7755875E-012  0.5930193E+02  0.7816164E-02  0.1266605E+00
        -11   -1    0    0    0    0  0.00000000000E+00  0.00000000000E+00  0.45593999997E+02  0.45594000000E+02  0.51100000000E-03 0.  1.
         11   -1    0    0    0    0 -0.00000000000E+00 -0.00000000000E+00 -0.45593999997E+02  0.45594000000E+02  0.51100000000E-03 0. -1.
    9900012    2    1    2    0    0 -0.12809994245E+02 -0.25338676252E+02  0.14511266082E+02  0.59301932352E+02  0.49999978707E+02 0.  0.
         12    1    1    2    0    0  0.12809994245E+02  0.25338676252E+02 -0.14511266082E+02  0.31886067648E+02  0.00000000000E+00 0. -1.
         11    1    3    3    0    0 -0.32361502932E+01  0.83129737967E+01 -0.86820304078E+01  0.12448126539E+02  0.51100000000E-03 0. -1.
        -11    1    3    3    0    0 -0.80262470461E+01 -0.17688193186E+02  0.23902648555E+02  0.30799828377E+02  0.51100000000E-03 0.  1.
         12    1    3    3    0    0 -0.15475969058E+01 -0.15963456862E+02 -0.70935206573E+00  0.16053977436E+02  0.00000000000E+00 0. -1.
</event>
<event>
 7    1  0.7755875E-012  0.5930196E+02  0.7816164E-02  0.1266605E+00
        -11   -1    0    0    0    0  0.00000000000E+00  0.00000000000E+00  0.45593999997E+02  0.45594000000E+02  0.51100000000E-03 0. -1.
         11   -1    0    0    0    0 -0.00000000000E+00 -0.00000000000E+00 -0.45593999997E+02  0.45594000000E+02  0.51100000000E-03 0.  1.
    9900012    2    1    2    0    0 -0.17526463642E+02  0.66879292400E+01 -0.25783989735E+02  0.59301961488E+02  0.50000031844E+02 0.  0.
         12    1    1    2    0    0  0.17526463642E+02 -0.66879292400E+01  0.25783989735E+02  0.31886038512E+02  0.00000000000E+00 0. -1.
         11    1    3    3    0    0 -0.18828045968E+01 -0.93935649127E+01 -0.68634880298E+01  0.11785223083E+02  0.51100000000E-03 0. -1.
        -11    1    3    3    0    0 -0.15160262115E+02  0.14927594894E+02 -0.29772268108E+02  0.36593094776E+02  0.51100000000E-03 0.  1.
        -12    1    3    3    0    0 -0.48339693017E+00  0.11538992583E+01  0.10851766403E+02  0.10923643630E+02  0.00000000000E+00 0.  1.
</event>
<event>
 7    1  0.7755875E-012  0.5930195E+02  0.7816164E-02  0.1266605E+00
        -11   -1    0    0    0    0  0.00000000000E+00  0.00000000000E+00  0.45593999997E+02  0.45594000000E+02  0.51100000000E-03 0.  1.
         11   -1    0    0    0    0 -0.00000000000E+00 -0.00000000000E+00 -0.45593999997E+02  0.45594000000E+02  0.51100000000E-03 0. -1.
    9900012    2    1    2    0    0 -0.18995137240E+02  0.18774771194E+02 -0.17418760576E+02  0.59301945178E+02  0.50000002097E+02 0.  0.
         12    1    1    2    0    0  0.18995137240E+02 -0.18774771194E+02  0.17418760576E+02  0.31886054822E+02  0.00000000000E+00 0. -1.
         11    1    3    3    0    0 -0.11128566525E+02  0.26509989007E+02 -0.29547119824E+02  0.41226894137E+02  0.51100000000E-03 0. -1.
        -11    1    3    3    0    0 -0.65170025711E+01 -0.11296767411E+01  0.52609121433E+01  0.84513128502E+01  0.51100000000E-03 0.  1.
         12    1    3    3    0    0 -0.13495681436E+01 -0.66055410719E+01  0.68674471043E+01  0.96237381904E+01  0.00000000000E+00 0. -1.
</event>
<event>
 7    1  0.7755875E-012  0.5930196E+02  0.7816164E-02  0.1266605E+00
        -11   -1    0    0    0    0  0.00000000000E+00  0.00000000000E+00  0.45593999997E+02  0.45594000000E+02  0.51100000000E-03 0.  1.
         11   -1    0    0    0    0 -0.00000000000E+00 -0.00000000000E+00 -0.45593999997E+02  0.45594000000E+02  0.51100000000E-03 0. -1.
    9900012    2    1    2    0    0  0.15871700221E+02 -0.25253128404E+02  0.11273346359E+02  0.59301957595E+02  0.50000024744E+02 0.  0.
         12    1    1    2    0    0 -0.15871700221E+02  0.25253128404E+02 -0.11273346359E+02  0.31886042405E+02  0.00000000000E+00 0. -1.
         11    1    3    3    0    0 -0.97658515091E+01  0.51611891538E+00 -0.48213102597E+01  0.10903360368E+02  0.51100000000E-03 0. -1.
        -11    1    3    3    0    0  0.55831880590E+01 -0.16254968871E+02  0.19443212506E+02  0.25950616847E+02  0.51100000000E-03 0.  1.
        -12    1    3    3    0    0  0.20054363671E+02 -0.95142784479E+01 -0.33485558874E+01  0.22447980380E+02  0.00000000000E+00 0.  1.
</event>
<event>
 7    1  0.7755875E-012  0.5930193E+02  0.7816164E-02  0.1266605E+00
        -11   -1    0    0    0    0  0.00000000000E+00  0.00000000000E+00  0.45593999997E+02  0.45594000000E+02  0.51100000000E-03 0. -1.
         11   -1    0    0    0    0 -0.00000000000E+00 -0.00000000000E+00 -0.45593999997E+02  0.45594000000E+02  0.51100000000E-03 0.  1.
    9900012    2    1    2    0    0 -0.30881885562E+01  0.42821128081E+01 -0.31445956165E+02  0.59301928467E+02  0.49999971621E+02 0.  0.
         12    1    1    2    0    0  0.30881885562E+01 -0.42821128081E+01  0.31445956165E+02  0.31886071533E+02  0.00000000000E+00 0. -1.
         11    1    3    3    0    0  0.97340104418E+01  0.18321653246E+02 -0.24717787184E+01  0.20893626474E+02  0.51100000000E-03 0. -1.
        -11    1    3    3    0    0 -0.15547676550E+02 -0.69919682946E+01 -0.15921384417E+02  0.23326130171E+02  0.51100000000E-03 0.  1.
         12    1    3    3    0    0  0.27254775522E+01 -0.70475721428E+01 -0.13052793030E+02  0.15082171822E+02  0.00000000000E+00 0. -1.
</event>
<event>
 7    1  0.7755875E-012  0.5930189E+02  0.7816164E-02  0.1266605E+00
        -11   -1    0    0    0    0  0.00000000000E+00  0.00000000000E+00  0.45593999997E+02  0.45594000000E+02  0.51100000000E-03 0. -1.
         11   -1    0    0    0    0 -0.00000000000E+00 -0.00000000000E+00 -0.45593999997E+02  0.45594000000E+02  0.51100000000E-03 0.  1.
    9900012    2    1    2    0    0 -0.24839263756E+02  0.60059190970E+00 -0.19984353710E+02  0.59301888168E+02  0.49999898125E+02 0.  0.
         12    1    1    2    0    0  0.24839263756E+02 -0.60059190970E+00  0.19984353710E+02  0.31886111832E+02  0.00000000000E+00 0. -1.
         11    1    3    3    0    0 -0.24064449878E+02  0.21199508868E+01 -0.61378693431E+01  0.24925195687E+02  0.51100000000E-03 0. -1.
        -11    1    3    3    0    0  0.78921819774E+01  0.56814015426E+01  0.60915824965E+01  0.11474852392E+02  0.51100000000E-03 0.  1.
        -12    1    3    3    0    0 -0.86669958551E+01 -0.72007605197E+01 -0.19938066863E+02  0.22901840089E+02  0.00000000000E+00 0.  1.
</event>
<event>
 7    1  0.7755875E-012  0.5930194E+02  0.7816164E-02  0.1266605E+00
        -11   -1    0    0    0    0  0.00000000000E+00  0.00000000000E+00  0.45593999997E+02  0.45594000000E+02  0.51100000000E-03 0.  1.
         11   -1    0    0    0    0 -0.00000000000E+00 -0.00000000000E+00 -0.45593999997E+02  0.45594000000E+02  0.51100000000E-03 0. -1.
    9900012    2    1    2    0    0  0.13680567217E+01  0.22201880966E+02  0.22845688593E+02  0.59301943723E+02  0.49999999445E+02 0.  0.
         12    1    1    2    0    0 -0.13680567217E+01 -0.22201880966E+02 -0.22845688593E+02  0.31886056277E+02  0.00000000000E+00 0. -1.
         11    1    3    3    0    0 -0.61034121118E+01 -0.12226594886E+02  0.59856061408E+00  0.13678433279E+02  0.51100000000E-03 0. -1.
        -11    1    3    3    0    0 -0.62588763778E+00  0.29595707181E+02  0.12722531917E+02  0.32220497164E+02  0.51100000000E-03 0.  1.
        -12    1    3    3    0    0  0.80973564713E+01  0.48327686702E+01  0.95245960616E+01  0.13403013280E+02  0.00000000000E+00 0.  1.
</event>
<event>
 7    1  0.7755875E-012  0.5930192E+02  0.7816164E-02  0.1266605E+00
        -11   -1    0    0    0    0  0.00000000000E+00  0.00000000000E+00  0.45593999997E+02  0.45594000000E+02  0.51100000000E-03 0.  1.
         11   -1    0    0    0    0 -0.00000000000E+00 -0.00000000000E+00 -0.45593999997E+02  0.45594000000E+02  0.51100000000E-03 0. -1.
    9900012    2    1    2    0    0  0.30139914500E+02 -0.80437199857E+01  0.66034824569E+01  0.59301923763E+02  0.49999963042E+02 0.  0.
         12    1    1    2    0    0 -0.30139914500E+02  0.80437199857E+01 -0.66034824569E+01  0.31886076237E+02  0.00000000000E+00 0. -1.
         11    1    3    3    0    0 -0.45657639592E+01 -0.30984494503E+01  0.15946551840E+02  0.16874214215E+02  0.51100000000E-03 0. -1.
        -11    1    3    3    0    0  0.33613700992E+02 -0.96907314045E+01 -0.40193409766E+01  0.35212870825E+02  0.51100000000E-03 0.  1.
        -12    1    3    3    0    0  0.10919774663E+01  0.47454608691E+01 -0.53237284068E+01  0.72148387228E+01  0.00000000000E+00 0.  1.
</event>
<event>
 7    1  0.7755875E-012  0.5930193E+02  0.7816164E-02  0.1266605E+00
        -11   -1    0    0    0    0  0.00000000000E+00  0.00000000000E+00  0.45593999997E+02  0.45594000000E+02  0.51100000000E-03 0. -1.
         11   -1    0    0    0    0 -0.00000000000E+00 -0.00000000000E+00 -0.45593999997E+02  0.45594000000E+02  0.51100000000E-03 0.  1.
    9900012    2    1    2    0    0  0.11060832644E+02  0.20571212241E+02 -0.21707249862E+02  0.59301929555E+02  0.49999973605E+02 0.  0.
         12    1    1    2    0    0 -0.11060832644E+02 -0.20571212241E+02  0.21707249862E+02  0.31886070445E+02  0.00000000000E+00 0. -1.
         11    1    3    3    0    0  0.38620251916E+01  0.26993780380E+02  0.36344945784E+01  0.27509797689E+02  0.51100000000E-03 0. -1.
        -11    1    3    3    0    0  0.10157591432E+02 -0.14474666643E+01 -0.23621340607E+02  0.25753437747E+02  0.51100000000E-03 0.  1.
         12    1    3    3    0    0 -0.29587839793E+01 -0.49751014741E+01 -0.17204038334E+01  0.60386941191E+01  0.00000000000E+00 0. -1.
</event>
<event>
 7    1  0.7755875E-012  0.5930186E+02  0.7816164E-02  0.1266605E+00
        -11   -1    0    0    0    0  0.00000000000E+00  0.00000000000E+00  0.45593999997E+02  0.45594000000E+02  0.51100000000E-03 0.  1.
         11   -1    0    0    0    0 -0.00000000000E+00 -0.00000000000E+00 -0.45593999997E+02  0.45594000000E+02  0.51100000000E-03 0. -1.
    9900012    2    1    2    0    0 -0.14815818755E+02 -0.88809203775E+01  0.26801995343E+02  0.59301855886E+02  0.49999839250E+02 0.  0.
         12    1    1    2    0    0  0.14815818755E+02  0.88809203775E+01 -0.26801995343E+02  0.31886144114E+02  0.00000000000E+00 0. -1.
         11    1    3    3    0    0 -0.10967944579E+02 -0.97777471716E+01 -0.40307955908E+01  0.15236386100E+02  0.51100000000E-03 0. -1.
        -11    1    3    3    0    0 -0.14686270779E+02  0.39855408344E+01  0.28857138132E+02  0.32623695477E+02  0.51100000000E-03 0.  1.
        -12    1    3    3    0    0  0.10838396602E+02 -0.30887140402E+01  0.19756528012E+01  0.11441774308E+02  0.00000000000E+00 0.  1.
</event>
<event>
 7    1  0.7755875E-012  0.5930173E+02  0.7816164E-02  0.1266606E+00
        -11   -1    0    0    0    0  0.00000000000E+00  0.00000000000E+00  0.45593999997E+02  0.45594000000E+02  0.51100000000E-03 0. -1.
         11   -1    0    0    0    0 -0.00000000000E+00 -0.00000000000E+00 -0.45593999997E+02  0.45594000000E+02  0.51100000000E-03 0.  1.
    9900012    2    1    2    0    0  0.27845340079E+01 -0.49731427623E+01 -0.31372736447E+02  0.59301727550E+02  0.49999605195E+02 0.  0.
         12    1    1    2    0    0 -0.27845340079E+01  0.49731427623E+01  0.31372736447E+02  0.31886272450E+02  0.00000000000E+00 0. -1.
         11    1    3    3    0    0 -0.11875393512E+01  0.13753290965E+02  0.61835183023E+01  0.15126108585E+02  0.51100000000E-03 0. -1.
        -11    1    3    3    0    0 -0.19265172429E+01 -0.10741067667E+02 -0.96901075330E+01  0.14593840741E+02  0.51100000000E-03 0.  1.
         12    1    3    3    0    0  0.58985906020E+01 -0.79853660604E+01 -0.27866147216E+02  0.29581778224E+02  0.00000000000E+00 0. -1.
</event>
<event>
 7    1  0.7755875E-012  0.5930194E+02  0.7816164E-02  0.1266605E+00
        -11   -1    0    0    0    0  0.00000000000E+00  0.00000000000E+00  0.45593999997E+02  0.45594000000E+02  0.51100000000E-03 0.  1.
         11   -1    0    0    0    0 -0.00000000000E+00 -0.00000000000E+00 -0.45593999997E+02  0.45594000000E+02  0.51100000000E-03 0. -1.
    9900012    2    1    2    0    0 -0.13174865384E+02  0.62930627575E+01  0.28346804513E+02  0.59301936542E+02  0.49999986347E+02 0.  0.
         12    1    1    2    0    0  0.13174865384E+02 -0.62930627575E+01 -0.28346804513E+02  0.31886063458E+02  0.00000000000E+00 0. -1.
         11    1    3    3    0    0 -0.15378957025E+02  0.22064025393E+01  0.28408655118E+02  0.32379503042E+02  0.51100000000E-03 0.  1.
        -11    1    3    3    0    0  0.16448116356E+01  0.14107324615E+02 -0.58229363257E+01  0.15350198722E+02  0.51100000000E-03 0. -1.
         12    1    3    3    0    0  0.55928000602E+00 -0.10020664396E+02  0.57610857212E+01  0.11572234778E+02  0.00000000000E+00 0. -1.
</event>
<event>
 7    1  0.7755875E-012  0.5930157E+02  0.7816164E-02  0.1266606E+00
        -11   -1    0    0    0    0  0.00000000000E+00  0.00000000000E+00  0.45593999997E+02  0.45594000000E+02  0.51100000000E-03 0. -1.
         11   -1    0    0    0    0 -0.00000000000E+00 -0.00000000000E+00 -0.45593999997E+02  0.45594000000E+02  0.51100000000E-03 0.  1.
    9900012    2    1    2    0    0 -0.38886766634E+01  0.30445674102E+00 -0.31646955884E+02  0.59301571589E+02  0.49999320756E+02 0.  0.
         12    1    1    2    0    0  0.38886766634E+01 -0.30445674102E+00  0.31646955884E+02  0.31886428411E+02  0.00000000000E+00 0. -1.
         11    1    3    3    0    0  0.35598340878E+01  0.98925596260E+01  0.23333789453E+01  0.10769392381E+02  0.51100000000E-03 0. -1.
        -11    1    3    3    0    0 -0.58334098254E+01 -0.63785287412E+00 -0.38098980703E+02  0.38548253623E+02  0.51100000000E-03 0.  1.
        -12    1    3    3    0    0 -0.16151009258E+01 -0.89502500109E+01  0.41186458741E+01  0.99839255854E+01  0.00000000000E+00 0.  1.
</event>
<event>
 7    1  0.7755875E-012  0.5930195E+02  0.7816164E-02  0.1266605E+00
        -11   -1    0    0    0    0  0.00000000000E+00  0.00000000000E+00  0.45593999997E+02  0.45594000000E+02  0.51100000000E-03 0. -1.
         11   -1    0    0    0    0 -0.00000000000E+00 -0.00000000000E+00 -0.45593999997E+02  0.45594000000E+02  0.51100000000E-03 0.  1.
    9900012    2    1    2    0    0  0.30799831154E+01 -0.39033538376E+01 -0.31495997493E+02  0.59301947794E+02  0.50000006869E+02 0.  0.
         12    1    1    2    0    0 -0.30799831154E+01  0.39033538376E+01  0.31495997493E+02  0.31886052206E+02  0.00000000000E+00 0. -1.
         11    1    3    3    0    0  0.15485033997E+02 -0.92238883366E+01 -0.24553207228E+02  0.30458601074E+02  0.51100000000E-03 0. -1.
        -11    1    3    3    0    0 -0.15017094247E+02  0.57090671298E+01  0.48315611279E+01  0.16776488021E+02  0.51100000000E-03 0.  1.
        -12    1    3    3    0    0  0.26120433652E+01 -0.38853263087E+00 -0.11774351393E+02  0.12066858700E+02  0.00000000000E+00 0.  1.
</event>
<event>
 7    1  0.7755875E-012  0.5930177E+02  0.7816164E-02  0.1266605E+00
        -11   -1    0    0    0    0  0.00000000000E+00  0.00000000000E+00  0.45593999997E+02  0.45594000000E+02  0.51100000000E-03 0.  1.
         11   -1    0    0    0    0 -0.00000000000E+00 -0.00000000000E+00 -0.45593999997E+02  0.45594000000E+02  0.51100000000E-03 0. -1.
    9900012    2    1    2    0    0 -0.14773390679E+02  0.48923972518E+01  0.27830612594E+02  0.59301770678E+02  0.49999683850E+02 0.  0.
         12    1    1    2    0    0  0.14773390679E+02 -0.48923972518E+01 -0.27830612594E+02  0.31886229322E+02  0.00000000000E+00 0. -1.
         11    1    3    3    0    0 -0.12411679731E+02  0.72081075020E+01 -0.80977109592E+01  0.16479670219E+02  0.51100000000E-03 0. -1.
        -11    1    3    3    0    0  0.96360929582E+01 -0.44537863525E+01  0.21169714897E+02  0.23682215467E+02  0.51100000000E-03 0.  1.
        -12    1    3    3    0    0 -0.11997803906E+02  0.21380761023E+01  0.14758608657E+02  0.19139884991E+02  0.00000000000E+00 0.  1.
</event>
<event>
 7    1  0.7755875E-012  0.5930193E+02  0.7816164E-02  0.1266605E+00
        -11   -1    0    0    0    0  0.00000000000E+00  0.00000000000E+00  0.45593999997E+02  0.45594000000E+02  0.51100000000E-03 0.  1.
         11   -1    0    0    0    0 -0.00000000000E+00 -0.00000000000E+00 -0.45593999997E+02  0.45594000000E+02  0.51100000000E-03 0. -1.
    9900012    2    1    2    0    0  0.14680708711E+02 -0.28301573334E+02 -0.46825392621E+00  0.59301929010E+02  0.49999972612E+02 0.  0.
         12    1    1    2    0    0 -0.14680708711E+02  0.28301573334E+02  0.46825392621E+00  0.31886070990E+02  0.00000000000E+00 0. -1.
         11    1    3    3    0    0  0.19972299860E+02  0.17241778843E+00  0.13072849101E+02  0.23870942031E+02  0.51100000000E-03 0. -1.
        -11    1    3    3    0    0 -0.89356310925E+01 -0.19441980832E+02 -0.14182303762E+02  0.25670486204E+02  0.51100000000E-03 0.  1.
        -12    1    3    3    0    0  0.36440399436E+01 -0.90320102904E+01  0.64120073448E+00  0.97605007750E+01  0.00000000000E+00 0.  1.
</event>
<event>
 7    1  0.7755875E-012  0.5930198E+02  0.7816164E-02  0.1266605E+00
        -11   -1    0    0    0    0  0.00000000000E+00  0.00000000000E+00  0.45593999997E+02  0.45594000000E+02  0.51100000000E-03 0.  1.
         11   -1    0    0    0    0 -0.00000000000E+00 -0.00000000000E+00 -0.45593999997E+02  0.45594000000E+02  0.51100000000E-03 0. -1.
    9900012    2    1    2    0    0  0.14245848884E+02 -0.12567976091E+02  0.25608982423E+02  0.59301980898E+02  0.50000067242E+02 0.  0.
         12    1    1    2    0    0 -0.14245848884E+02  0.12567976091E+02 -0.25608982423E+02  0.31886019102E+02  0.00000000000E+00 0. -1.
         11    1    3    3    0    0  0.10555513729E+02 -0.22013792131E+01 -0.12852115201E+02  0.16776227405E+02  0.51100000000E-03 0. -1.
        -11    1    3    3    0    0  0.79798331181E+01 -0.65596850066E+01  0.13983283429E+02  0.17385034360E+02  0.51100000000E-03 0.  1.
         12    1    3    3    0    0 -0.42894979636E+01 -0.38069118712E+01  0.24477814194E+02  0.25140719133E+02  0.00000000000E+00 0. -1.
</event>
<event>
 7    1  0.7755875E-012  0.5930194E+02  0.7816164E-02  0.1266605E+00
        -11   -1    0    0    0    0  0.00000000000E+00  0.00000000000E+00  0.45593999997E+02  0.45594000000E+02  0.51100000000E-03 0.  1.
         11   -1    0    0    0    0 -0.00000000000E+00 -0.00000000000E+00 -0.45593999997E+02  0.45594000000E+02  0.51100000000E-03 0. -1.
    9900012    2    1    2    0    0  0.31817624971E+02 -0.98248686870E+00 -0.18423293760E+01  0.59301941655E+02  0.49999995673E+02 0.  0.
         12    1    1    2    0    0 -0.31817624971E+02  0.98248686870E+00  0.18423293760E+01  0.31886058345E+02  0.00000000000E+00 0. -1.
         11    1    3    3    0    0  0.12468727832E+02  0.65804088764E+01 -0.21491072297E+02  0.25702862554E+02  0.51100000000E-03 0. -1.
        -11    1    3    3    0    0  0.13181783870E+02  0.40748146526E+01  0.12477889000E+02  0.18602721698E+02  0.51100000000E-03 0.  1.
         12    1    3    3    0    0  0.61671132688E+01 -0.11637710398E+02  0.71708539218E+01  0.14996357402E+02  0.00000000000E+00 0. -1.
</event>
<event>
 7    1  0.7755875E-012  0.5930196E+02  0.7816164E-02  0.1266605E+00
        -11   -1    0    0    0    0  0.00000000000E+00  0.00000000000E+00  0.45593999997E+02  0.45594000000E+02  0.51100000000E-03 0.  1.
         11   -1    0    0    0    0 -0.00000000000E+00 -0.00000000000E+00 -0.45593999997E+02  0.45594000000E+02  0.51100000000E-03 0. -1.
    9900012    2    1    2    0    0  0.22665759724E+02  0.21703240590E+02  0.56526479505E+01  0.59301956896E+02  0.50000023469E+02 0.  0.
         12    1    1    2    0    0 -0.22665759724E+02 -0.21703240590E+02 -0.56526479505E+01  0.31886043104E+02  0.00000000000E+00 0. -1.
         11    1    3    3    0    0  0.21148812735E+01 -0.73341748191E+01 -0.12097777560E+02  0.14304512059E+02  0.51100000000E-03 0. -1.
        -11    1    3    3    0    0  0.19266410763E+02  0.12632416176E+02  0.16802705070E+02  0.28514968351E+02  0.51100000000E-03 0.  1.
         12    1    3    3    0    0  0.12844676870E+01  0.16404999233E+02  0.94772044125E+00  0.16482476486E+02  0.00000000000E+00 0. -1.
</event>
<event>
 7    1  0.7755875E-012  0.5930193E+02  0.7816164E-02  0.1266605E+00
        -11   -1    0    0    0    0  0.00000000000E+00  0.00000000000E+00  0.45593999997E+02  0.45594000000E+02  0.51100000000E-03 0.  1.
         11   -1    0    0    0    0 -0.00000000000E+00 -0.00000000000E+00 -0.45593999997E+02  0.45594000000E+02  0.51100000000E-03 0. -1.
    9900012    2    1    2    0    0  0.27312380708E+02  0.11996291468E+02 -0.11262515725E+02  0.59301930795E+02  0.49999975866E+02 0.  0.
         12    1    1    2    0    0 -0.27312380708E+02 -0.11996291468E+02  0.11262515725E+02  0.31886069205E+02  0.00000000000E+00 0. -1.
         11    1    3    3    0    0  0.52085862917E+01  0.24324903771E+02 -0.14968399722E+02  0.29032452620E+02  0.51100000000E-03 0. -1.
        -11    1    3    3    0    0  0.96213504111E+01  0.31048804417E+01  0.19480898057E+00  0.10111805827E+02  0.51100000000E-03 0.  1.
         12    1    3    3    0    0  0.12482444005E+02 -0.15433492746E+02  0.35110750169E+01  0.20157672347E+02  0.00000000000E+00 0. -1.
</event>
<event>
 7    1  0.7755875E-012  0.5930193E+02  0.7816164E-02  0.1266605E+00
        -11   -1    0    0    0    0  0.00000000000E+00  0.00000000000E+00  0.45593999997E+02  0.45594000000E+02  0.51100000000E-03 0. -1.
         11   -1    0    0    0    0 -0.00000000000E+00 -0.00000000000E+00 -0.45593999997E+02  0.45594000000E+02  0.51100000000E-03 0.  1.
    9900012    2    1    2    0    0  0.16500522746E+02 -0.70391180709E+01 -0.26361056425E+02  0.59301925768E+02  0.49999966699E+02 0.  0.
         12    1    1    2    0    0 -0.16500522746E+02  0.70391180709E+01  0.26361056425E+02  0.31886074232E+02  0.00000000000E+00 0. -1.
         11    1    3    3    0    0  0.63532088761E+01  0.43869735546E+01 -0.27825483978E+01  0.82067883998E+01  0.51100000000E-03 0. -1.
        -11    1    3    3    0    0  0.43441100101E+01 -0.14332736677E+02 -0.34937729340E+02  0.38012413289E+02  0.51100000000E-03 0.  1.
        -12    1    3    3    0    0  0.58032038596E+01  0.29066450515E+01  0.11359221313E+02  0.13082724079E+02  0.00000000000E+00 0.  1.
</event>
<event>
 7    1  0.7755875E-012  0.5930192E+02  0.7816164E-02  0.1266605E+00
        -11   -1    0    0    0    0  0.00000000000E+00  0.00000000000E+00  0.45593999997E+02  0.45594000000E+02  0.51100000000E-03 0. -1.
         11   -1    0    0    0    0 -0.00000000000E+00 -0.00000000000E+00 -0.45593999997E+02  0.45594000000E+02  0.51100000000E-03 0.  1.
    9900012    2    1    2    0    0 -0.20288558310E+02 -0.34546149330E+01 -0.24354922145E+02  0.59301918471E+02  0.49999953390E+02 0.  0.
         12    1    1    2    0    0  0.20288558310E+02  0.34546149330E+01  0.24354922145E+02  0.31886081529E+02  0.00000000000E+00 0. -1.
         11    1    3    3    0    0  0.47154874872E+00 -0.80336641789E+01 -0.53384254665E+01  0.96571685853E+01  0.51100000000E-03 0. -1.
        -11    1    3    3    0    0 -0.30376379471E+02  0.10557219775E+02 -0.65784098664E+01  0.32824606559E+02  0.51100000000E-03 0.  1.
        -12    1    3    3    0    0  0.96162724123E+01 -0.59781705290E+01 -0.12438086812E+02  0.16820143326E+02  0.00000000000E+00 0.  1.
</event>
<event>
 7    1  0.7755875E-012  0.5930194E+02  0.7816164E-02  0.1266605E+00
        -11   -1    0    0    0    0  0.00000000000E+00  0.00000000000E+00  0.45593999997E+02  0.45594000000E+02  0.51100000000E-03 0.  1.
         11   -1    0    0    0    0 -0.00000000000E+00 -0.00000000000E+00 -0.45593999997E+02  0.45594000000E+02  0.51100000000E-03 0. -1.
    9900012    2    1    2    0    0 -0.24195354362E+02  0.98838878169E+01  0.18265114107E+02  0.59301940281E+02  0.49999993166E+02 0.  0.
         12    1    1    2    0    0  0.24195354362E+02 -0.98838878169E+01 -0.18265114107E+02  0.31886059719E+02  0.00000000000E+00 0. -1.
         11    1    3    3    0    0 -0.33897037496E+02  0.24475237268E+00  0.26131540883E+02  0.42801010315E+02  0.51100000000E-03 0. -1.
        -11    1    3    3    0    0  0.16658452411E+01  0.48714895760E+01 -0.31310558304E+01  0.60257747992E+01  0.51100000000E-03 0.  1.
         12    1    3    3    0    0  0.80358378936E+01  0.47676458683E+01 -0.47353709456E+01  0.10475155167E+02  0.00000000000E+00 0. -1.
</event>
<event>
 7    1  0.7755875E-012  0.5930202E+02  0.7816164E-02  0.1266605E+00
        -11   -1    0    0    0    0  0.00000000000E+00  0.00000000000E+00  0.45593999997E+02  0.45594000000E+02  0.51100000000E-03 0.  1.
         11   -1    0    0    0    0 -0.00000000000E+00 -0.00000000000E+00 -0.45593999997E+02  0.45594000000E+02  0.51100000000E-03 0. -1.
    9900012    2    1    2    0    0 -0.18168364757E+02 -0.25547512478E+02  0.58267511582E+01  0.59302017173E+02  0.50000133399E+02 0.  0.
         12    1    1    2    0    0  0.18168364757E+02  0.25547512478E+02 -0.58267511582E+01  0.31885982827E+02  0.00000000000E+00 0. -1.
         11    1    3    3    0    0 -0.52993646929E+01 -0.55926442998E-01 -0.42495172501E+00  0.53166698360E+01  0.51100000000E-03 0. -1.
        -11    1    3    3    0    0 -0.21320962578E+02 -0.27075050047E+02  0.18427199761E+02  0.39079450758E+02  0.51100000000E-03 0.  1.
        -12    1    3    3    0    0  0.84519625131E+01  0.15834640119E+01 -0.12175496877E+02  0.14905896579E+02  0.00000000000E+00 0.  1.
</event>
<event>
 7    1  0.7755875E-012  0.5930195E+02  0.7816164E-02  0.1266605E+00
        -11   -1    0    0    0    0  0.00000000000E+00  0.00000000000E+00  0.45593999997E+02  0.45594000000E+02  0.51100000000E-03 0.  1.
         11   -1    0    0    0    0 -0.00000000000E+00 -0.00000000000E+00 -0.45593999997E+02  0.45594000000E+02  0.51100000000E-03 0. -1.
    9900012    2    1    2    0    0  0.29807401740E+02  0.89029550722E+01 -0.69983085540E+01  0.59301950854E+02  0.50000012449E+02 0.  0.
         12    1    1    2    0    0 -0.29807401740E+02 -0.89029550722E+01  0.69983085540E+01  0.31886049146E+02  0.00000000000E+00 0. -1.
         11    1    3    3    0    0 -0.48333709150E+01 -0.79756721338E+01 -0.89812210612E+01  0.12947399445E+02  0.51100000000E-03 0.  1.
        -11    1    3    3    0    0  0.31765231676E+02  0.13860269371E+02 -0.79715700498E+01  0.35562380963E+02  0.51100000000E-03 0. -1.
        -12    1    3    3    0    0  0.28755409795E+01  0.30183578349E+01  0.99544825570E+01  0.10792170445E+02  0.00000000000E+00 0.  1.
</event>
<event>
 7    1  0.7755875E-012  0.5930196E+02  0.7816164E-02  0.1266605E+00
        -11   -1    0    0    0    0  0.00000000000E+00  0.00000000000E+00  0.45593999997E+02  0.45594000000E+02  0.51100000000E-03 0. -1.
         11   -1    0    0    0    0 -0.00000000000E+00 -0.00000000000E+00 -0.45593999997E+02  0.45594000000E+02  0.51100000000E-03 0.  1.
    9900012    2    1    2    0    0  0.92960122489E+01 -0.19455099372E+02 -0.23490488793E+02  0.59301956046E+02  0.50000021919E+02 0.  0.
         12    1    1    2    0    0 -0.92960122489E+01  0.19455099372E+02  0.23490488793E+02  0.31886043954E+02  0.00000000000E+00 0. -1.
         11    1    3    3    0    0 -0.78461530328E+01 -0.23345644874E+01  0.16458172336E+01  0.83499115797E+01  0.51100000000E-03 0. -1.
        -11    1    3    3    0    0  0.28665538908E+02 -0.10050488028E+02 -0.14049865808E+02  0.33468256005E+02  0.51100000000E-03 0.  1.
        -12    1    3    3    0    0 -0.11523373626E+02 -0.70700468563E+01 -0.11086440218E+02  0.17483788462E+02  0.00000000000E+00 0.  1.
</event>
<event>
 7    1  0.7755875E-012  0.5930195E+02  0.7816164E-02  0.1266605E+00
        -11   -1    0    0    0    0  0.00000000000E+00  0.00000000000E+00  0.45593999997E+02  0.45594000000E+02  0.51100000000E-03 0.  1.
         11   -1    0    0    0    0 -0.00000000000E+00 -0.00000000000E+00 -0.45593999997E+02  0.45594000000E+02  0.51100000000E-03 0. -1.
    9900012    2    1    2    0    0 -0.24019864983E+01 -0.25150393645E+02  0.19452713041E+02  0.59301954709E+02  0.50000019480E+02 0.  0.
         12    1    1    2    0    0  0.24019864983E+01  0.25150393645E+02 -0.19452713041E+02  0.31886045291E+02  0.00000000000E+00 0. -1.
         11    1    3    3    0    0  0.17600428814E+01 -0.45127178773E+01 -0.16253050796E+02  0.16959482127E+02  0.51100000000E-03 0. -1.
        -11    1    3    3    0    0  0.18779965770E+01 -0.12089427463E+02  0.20741803508E+02  0.24081186444E+02  0.51100000000E-03 0.  1.
         12    1    3    3    0    0 -0.60400259567E+01 -0.85482483052E+01  0.14963960329E+02  0.18261286137E+02  0.00000000000E+00 0. -1.
</event>
<event>
 7    1  0.7755875E-012  0.5930196E+02  0.7816164E-02  0.1266605E+00
        -11   -1    0    0    0    0  0.00000000000E+00  0.00000000000E+00  0.45593999997E+02  0.45594000000E+02  0.51100000000E-03 0. -1.
         11   -1    0    0    0    0 -0.00000000000E+00 -0.00000000000E+00 -0.45593999997E+02  0.45594000000E+02  0.51100000000E-03 0.  1.
    9900012    2    1    2    0    0 -0.92579089450E+01 -0.30283161546E+02 -0.37337152500E+01  0.59301962604E+02  0.50000033878E+02 0.  0.
         12    1    1    2    0    0  0.92579089450E+01  0.30283161546E+02  0.37337152500E+01  0.31886037396E+02  0.00000000000E+00 0. -1.
         11    1    3    3    0    0 -0.21067526424E+02 -0.17766743787E+02  0.77367188412E+01  0.28624372012E+02  0.51100000000E-03 0. -1.
        -11    1    3    3    0    0 -0.19101909809E+01  0.38124437429E+01 -0.80055451694E+01  0.90704085132E+01  0.51100000000E-03 0.  1.
         12    1    3    3    0    0  0.13719808460E+02 -0.16328861502E+02 -0.34648889218E+01  0.21607182078E+02  0.00000000000E+00 0. -1.
</event>
<event>
 7    1  0.7755875E-012  0.5930184E+02  0.7816164E-02  0.1266605E+00
        -11   -1    0    0    0    0  0.00000000000E+00  0.00000000000E+00  0.45593999997E+02  0.45594000000E+02  0.51100000000E-03 0.  1.
         11   -1    0    0    0    0 -0.00000000000E+00 -0.00000000000E+00 -0.45593999997E+02  0.45594000000E+02  0.51100000000E-03 0. -1.
    9900012    2    1    2    0    0  0.24356352327E+02  0.15888730821E+02  0.13078355687E+02  0.59301842294E+02  0.49999814461E+02 0.  0.
         12    1    1    2    0    0 -0.24356352327E+02 -0.15888730821E+02 -0.13078355687E+02  0.31886157706E+02  0.00000000000E+00 0. -1.
         11    1    3    3    0    0  0.49141720905E+01 -0.10893235719E+02  0.20525892057E+02  0.23751292949E+02  0.51100000000E-03 0. -1.
        -11    1    3    3    0    0  0.10242396475E+02  0.13279883064E+02 -0.91827864797E+01  0.19120291513E+02  0.51100000000E-03 0.  1.
         12    1    3    3    0    0  0.91997837615E+01  0.13502083476E+02  0.17352501094E+01  0.16430257831E+02  0.00000000000E+00 0. -1.
</event>
<event>
 7    1  0.7755875E-012  0.5930190E+02  0.7816164E-02  0.1266605E+00
        -11   -1    0    0    0    0  0.00000000000E+00  0.00000000000E+00  0.45593999997E+02  0.45594000000E+02  0.51100000000E-03 0. -1.
         11   -1    0    0    0    0 -0.00000000000E+00 -0.00000000000E+00 -0.45593999997E+02  0.45594000000E+02  0.51100000000E-03 0.  1.
    9900012    2    1    2    0    0  0.15108485186E+02 -0.23125140682E+02 -0.15927489654E+02  0.59301899848E+02  0.49999919428E+02 0.  0.
         12    1    1    2    0    0 -0.15108485186E+02  0.23125140682E+02  0.15927489654E+02  0.31886100152E+02  0.00000000000E+00 0. -1.
         11    1    3    3    0    0 -0.18447598721E+01 -0.10528082833E+02 -0.27166941425E+02  0.29193944129E+02  0.51100000000E-03 0. -1.
        -11    1    3    3    0    0  0.10843018549E+02  0.28579395037E+01  0.57787339653E+01  0.12614778475E+02  0.51100000000E-03 0.  1.
        -12    1    3    3    0    0  0.61102265091E+01 -0.15454997353E+02  0.54607178059E+01  0.17493177245E+02  0.00000000000E+00 0.  1.
</event>
<event>
 7    1  0.7755875E-012  0.5930193E+02  0.7816164E-02  0.1266605E+00
        -11   -1    0    0    0    0  0.00000000000E+00  0.00000000000E+00  0.45593999997E+02  0.45594000000E+02  0.51100000000E-03 0. -1.
         11   -1    0    0    0    0 -0.00000000000E+00 -0.00000000000E+00 -0.45593999997E+02  0.45594000000E+02  0.51100000000E-03 0.  1.
    9900012    2    1    2    0    0  0.26626558349E+02 -0.16997379492E+02  0.43401240347E+01  0.59301934144E+02  0.49999981975E+02 0.  0.
         12    1    1    2    0    0 -0.26626558349E+02  0.16997379492E+02 -0.43401240347E+01  0.31886065856E+02  0.00000000000E+00 0. -1.
         11    1    3    3    0    0 -0.37098286763E+01  0.30763098137E+01  0.25450609657E+01  0.54501235269E+01  0.51100000000E-03 0. -1.
        -11    1    3    3    0    0  0.30581835171E+02 -0.25160694921E+02  0.12887485592E+02  0.41646086208E+02  0.51100000000E-03 0.  1.
        -12    1    3    3    0    0 -0.24544814569E+00  0.50870056150E+01 -0.11092422523E+02  0.12205724409E+02  0.00000000000E+00 0.  1.
</event>
<event>
 7    1  0.7755875E-012  0.5930198E+02  0.7816164E-02  0.1266605E+00
        -11   -1    0    0    0    0  0.00000000000E+00  0.00000000000E+00  0.45593999997E+02  0.45594000000E+02  0.51100000000E-03 0.  1.
         11   -1    0    0    0    0 -0.00000000000E+00 -0.00000000000E+00 -0.45593999997E+02  0.45594000000E+02  0.51100000000E-03 0. -1.
    9900012    2    1    2    0    0  0.22527848816E+02 -0.10349234670E+02  0.20052628588E+02  0.59301975729E+02  0.50000057815E+02 0.  0.
         12    1    1    2    0    0 -0.22527848816E+02  0.10349234670E+02 -0.20052628588E+02  0.31886024271E+02  0.00000000000E+00 0. -1.
         11    1    3    3    0    0 -0.27246498910E+01 -0.51005387345E+01 -0.14720750505E+02  0.15815805642E+02  0.51100000000E-03 0. -1.
        -11    1    3    3    0    0  0.15815084316E+02 -0.46966576157E+01  0.24370471738E+02  0.29429498427E+02  0.51100000000E-03 0.  1.
         12    1    3    3    0    0  0.94374143912E+01 -0.55203832008E+00  0.10402907355E+02  0.14056671659E+02  0.00000000000E+00 0. -1.
</event>
<event>
 7    1  0.7755875E-012  0.5930199E+02  0.7816164E-02  0.1266605E+00
        -11   -1    0    0    0    0  0.00000000000E+00  0.00000000000E+00  0.45593999997E+02  0.45594000000E+02  0.51100000000E-03 0.  1.
         11   -1    0    0    0    0 -0.00000000000E+00 -0.00000000000E+00 -0.45593999997E+02  0.45594000000E+02  0.51100000000E-03 0. -1.
    9900012    2    1    2    0    0  0.60117302987E+01  0.31169228663E+02  0.30093311104E+01  0.59301987543E+02  0.50000079362E+02 0.  0.
         12    1    1    2    0    0 -0.60117302987E+01 -0.31169228663E+02 -0.30093311104E+01  0.31886012457E+02  0.00000000000E+00 0. -1.
         11    1    3    3    0    0 -0.48889755724E+01 -0.60906888285E+01 -0.86568207701E+01  0.11659293232E+02  0.51100000000E-03 0. -1.
        -11    1    3    3    0    0 -0.59002365204E+00  0.34009863502E+02  0.10717865447E+02  0.35663589042E+02  0.51100000000E-03 0.  1.
         12    1    3    3    0    0  0.11490729523E+02  0.32500539894E+01  0.94828643400E+00  0.11979105270E+02  0.00000000000E+00 0. -1.
</event>
<event>
 7    1  0.7755875E-012  0.5930195E+02  0.7816164E-02  0.1266605E+00
        -11   -1    0    0    0    0  0.00000000000E+00  0.00000000000E+00  0.45593999997E+02  0.45594000000E+02  0.51100000000E-03 0. -1.
         11   -1    0    0    0    0 -0.00000000000E+00 -0.00000000000E+00 -0.45593999997E+02  0.45594000000E+02  0.51100000000E-03 0.  1.
    9900012    2    1    2    0    0 -0.28611552650E+02  0.63392648111E+01 -0.12566350687E+02  0.59301946732E+02  0.50000004933E+02 0.  0.
         12    1    1    2    0    0  0.28611552650E+02 -0.63392648111E+01  0.12566350687E+02  0.31886053268E+02  0.00000000000E+00 0. -1.
         11    1    3    3    0    0  0.46199355108E+01  0.12968958297E+02 -0.66164959889E+01  0.15274675213E+02  0.51100000000E-03 0. -1.
        -11    1    3    3    0    0 -0.27316770213E+02  0.29408628759E+01  0.54506396817E+01  0.28010071091E+02  0.51100000000E-03 0.  1.
        -12    1    3    3    0    0 -0.59147179483E+01 -0.95705563614E+01 -0.11400494380E+02  0.16017200429E+02  0.00000000000E+00 0.  1.
</event>
<event>
 7    1  0.7755875E-012  0.5930195E+02  0.7816164E-02  0.1266605E+00
        -11   -1    0    0    0    0  0.00000000000E+00  0.00000000000E+00  0.45593999997E+02  0.45594000000E+02  0.51100000000E-03 0. -1.
         11   -1    0    0    0    0 -0.00000000000E+00 -0.00000000000E+00 -0.45593999997E+02  0.45594000000E+02  0.51100000000E-03 0.  1.
    9900012    2    1    2    0    0  0.31775795209E+02  0.41667279021E+00 -0.26164041445E+01  0.59301947437E+02  0.50000006218E+02 0.  0.
         12    1    1    2    0    0 -0.31775795209E+02 -0.41667279021E+00  0.26164041445E+01  0.31886052563E+02  0.00000000000E+00 0. -1.
         11    1    3    3    0    0  0.16559328207E+02 -0.10447586709E+02  0.54601506101E+01  0.20326747493E+02  0.51100000000E-03 0. -1.
        -11    1    3    3    0    0 -0.77510214418E+01  0.12870245889E+02 -0.41664499985E+01  0.15591050910E+02  0.51100000000E-03 0.  1.
        -12    1    3    3    0    0  0.22967488444E+02 -0.20059863895E+01 -0.39101047562E+01  0.23384149034E+02  0.00000000000E+00 0.  1.
</event>
<event>
 7    1  0.7755875E-012  0.5930195E+02  0.7816164E-02  0.1266605E+00
        -11   -1    0    0    0    0  0.00000000000E+00  0.00000000000E+00  0.45593999997E+02  0.45594000000E+02  0.51100000000E-03 0.  1.
         11   -1    0    0    0    0 -0.00000000000E+00 -0.00000000000E+00 -0.45593999997E+02  0.45594000000E+02  0.51100000000E-03 0. -1.
    9900012    2    1    2    0    0 -0.99146734455E+01 -0.22237125755E+02  0.20589557263E+02  0.59301946941E+02  0.50000005314E+02 0.  0.
         12    1    1    2    0    0  0.99146734455E+01  0.22237125755E+02 -0.20589557263E+02  0.31886053059E+02  0.00000000000E+00 0. -1.
         11    1    3    3    0    0  0.10643989112E+02 -0.28302094637E+02  0.12299846637E+02  0.32643365216E+02  0.51100000000E-03 0. -1.
        -11    1    3    3    0    0 -0.71657144712E+01  0.90229094141E+01  0.49605988930E+01  0.12544636297E+02  0.51100000000E-03 0.  1.
         12    1    3    3    0    0 -0.13392948086E+02 -0.29579405320E+01  0.33291117336E+01  0.14113945429E+02  0.00000000000E+00 0. -1.
</event>
<event>
 7    1  0.7755875E-012  0.5930196E+02  0.7816164E-02  0.1266605E+00
        -11   -1    0    0    0    0  0.00000000000E+00  0.00000000000E+00  0.45593999997E+02  0.45594000000E+02  0.51100000000E-03 0. -1.
         11   -1    0    0    0    0 -0.00000000000E+00 -0.00000000000E+00 -0.45593999997E+02  0.45594000000E+02  0.51100000000E-03 0.  1.
    9900012    2    1    2    0    0 -0.88759802263E-01 -0.18127669236E+02 -0.26231646328E+02  0.59301960118E+02  0.50000029345E+02 0.  0.
         12    1    1    2    0    0  0.88759802263E-01  0.18127669236E+02  0.26231646328E+02  0.31886039882E+02  0.00000000000E+00 0. -1.
         11    1    3    3    0    0  0.14771870388E+02  0.61170626853E+01  0.36020946573E+01  0.16389072483E+02  0.51100000000E-03 0. -1.
        -11    1    3    3    0    0 -0.15454465509E+01 -0.13319520707E+02 -0.10585383132E+02  0.17083570271E+02  0.51100000000E-03 0.  1.
         12    1    3    3    0    0 -0.13315183640E+02 -0.10925211215E+02 -0.19248357854E+02  0.25829317365E+02  0.00000000000E+00 0. -1.
</event>
<event>
 7    1  0.7755875E-012  0.5930195E+02  0.7816164E-02  0.1266605E+00
        -11   -1    0    0    0    0  0.00000000000E+00  0.00000000000E+00  0.45593999997E+02  0.45594000000E+02  0.51100000000E-03 0.  1.
         11   -1    0    0    0    0 -0.00000000000E+00 -0.00000000000E+00 -0.45593999997E+02  0.45594000000E+02  0.51100000000E-03 0. -1.
    9900012    2    1    2    0    0 -0.35657977126E+01 -0.24405610055E+02  0.20208203117E+02  0.59301949936E+02  0.50000010775E+02 0.  0.
         12    1    1    2    0    0  0.35657977126E+01  0.24405610055E+02 -0.20208203117E+02  0.31886050064E+02  0.00000000000E+00 0. -1.
         11    1    3    3    0    0 -0.49254203343E+01 -0.18193815714E+01  0.12621523331E+01  0.54002725436E+01  0.51100000000E-03 0. -1.
        -11    1    3    3    0    0  0.11563007371E+02 -0.64931150682E+01 -0.11785783826E+02  0.17741713091E+02  0.51100000000E-03 0.  1.
        -12    1    3    3    0    0 -0.10203384750E+02 -0.16093113415E+02  0.30731834610E+02  0.36159964301E+02  0.00000000000E+00 0.  1.
</event>
<event>
 7    1  0.7755875E-012  0.5930193E+02  0.7816164E-02  0.1266605E+00
        -11   -1    0    0    0    0  0.00000000000E+00  0.00000000000E+00  0.45593999997E+02  0.45594000000E+02  0.51100000000E-03 0. -1.
         11   -1    0    0    0    0 -0.00000000000E+00 -0.00000000000E+00 -0.45593999997E+02  0.45594000000E+02  0.51100000000E-03 0.  1.
    9900012    2    1    2    0    0 -0.10011351593E+02  0.26266086419E+02 -0.15052805567E+02  0.59301930755E+02  0.49999975793E+02 0.  0.
         12    1    1    2    0    0  0.10011351593E+02 -0.26266086419E+02  0.15052805567E+02  0.31886069245E+02  0.00000000000E+00 0. -1.
         11    1    3    3    0    0 -0.15553120266E+02  0.27988295885E+02  0.22982136172E+01  0.32101807467E+02  0.51100000000E-03 0. -1.
        -11    1    3    3    0    0  0.39525976046E+01  0.39308888953E+01 -0.19996888274E+02  0.20759346238E+02  0.51100000000E-03 0.  1.
         12    1    3    3    0    0  0.15891710693E+01 -0.56530983610E+01  0.26458690896E+01  0.64407770499E+01  0.00000000000E+00 0. -1.
</event>
<event>
 7    1  0.7755875E-012  0.5930192E+02  0.7816164E-02  0.1266605E+00
        -11   -1    0    0    0    0  0.00000000000E+00  0.00000000000E+00  0.45593999997E+02  0.45594000000E+02  0.51100000000E-03 0. -1.
         11   -1    0    0    0    0 -0.00000000000E+00 -0.00000000000E+00 -0.45593999997E+02  0.45594000000E+02  0.51100000000E-03 0.  1.
    9900012    2    1    2    0    0  0.60542854682E+01 -0.29754496566E+02 -0.97333359629E+01  0.59301917341E+02  0.49999951329E+02 0.  0.
         12    1    1    2    0    0 -0.60542854682E+01  0.29754496566E+02  0.97333359629E+01  0.31886082659E+02  0.00000000000E+00 0. -1.
         11    1    3    3    0    0  0.14668239879E+02 -0.25576665503E+02  0.14198676273E+02  0.32724997900E+02  0.51100000000E-03 0. -1.
        -11    1    3    3    0    0  0.64556799675E+00 -0.19086265929E+01 -0.46042838302E+01  0.50258375780E+01  0.51100000000E-03 0.  1.
         12    1    3    3    0    0 -0.92595224075E+01 -0.22692044698E+01 -0.19327728405E+02  0.21551081863E+02  0.00000000000E+00 0. -1.
</event>
<event>
 7    1  0.7755875E-012  0.5930194E+02  0.7816164E-02  0.1266605E+00
        -11   -1    0    0    0    0  0.00000000000E+00  0.00000000000E+00  0.45593999997E+02  0.45594000000E+02  0.51100000000E-03 0.  1.
         11   -1    0    0    0    0 -0.00000000000E+00 -0.00000000000E+00 -0.45593999997E+02  0.45594000000E+02  0.51100000000E-03 0. -1.
    9900012    2    1    2    0    0  0.29557726689E+02 -0.31788857839E+01 -0.11530667694E+02  0.59301940047E+02  0.49999992740E+02 0.  0.
         12    1    1    2    0    0 -0.29557726689E+02  0.31788857839E+01  0.11530667694E+02  0.31886059953E+02  0.00000000000E+00 0. -1.
         11    1    3    3    0    0 -0.51940949458E+01 -0.87384140800E+01 -0.14121194956E+02  0.17399616381E+02  0.51100000000E-03 0. -1.
        -11    1    3    3    0    0  0.27504579270E+02  0.34292803416E+01 -0.80411174822E+01  0.28860377945E+02  0.51100000000E-03 0.  1.
        -12    1    3    3    0    0  0.72472423646E+01  0.21302479545E+01  0.10631644744E+02  0.13041945722E+02  0.00000000000E+00 0.  1.
</event>
<event>
 7    1  0.7755875E-012  0.5930193E+02  0.7816164E-02  0.1266605E+00
        -11   -1    0    0    0    0  0.00000000000E+00  0.00000000000E+00  0.45593999997E+02  0.45594000000E+02  0.51100000000E-03 0.  1.
         11   -1    0    0    0    0 -0.00000000000E+00 -0.00000000000E+00 -0.45593999997E+02  0.45594000000E+02  0.51100000000E-03 0. -1.
    9900012    2    1    2    0    0  0.18144755653E+02  0.25343453369E+02  0.67229792735E+01  0.59301933503E+02  0.49999980805E+02 0.  0.
         12    1    1    2    0    0 -0.18144755653E+02 -0.25343453369E+02 -0.67229792735E+01  0.31886066497E+02  0.00000000000E+00 0. -1.
         11    1    3    3    0    0  0.23582298665E+02  0.87790022579E+00 -0.70073246841E+00  0.23609035249E+02  0.51100000000E-03 0. -1.
        -11    1    3    3    0    0  0.87198941231E+01  0.14974203026E+02  0.68670571356E+01  0.18639200191E+02  0.51100000000E-03 0.  1.
         12    1    3    3    0    0 -0.14157437135E+02  0.94913501165E+01  0.55665460630E+00  0.17053698063E+02  0.00000000000E+00 0. -1.
</event>
<event>
 7    1  0.7755875E-012  0.5930196E+02  0.7816164E-02  0.1266605E+00
        -11   -1    0    0    0    0  0.00000000000E+00  0.00000000000E+00  0.45593999997E+02  0.45594000000E+02  0.51100000000E-03 0.  1.
         11   -1    0    0    0    0 -0.00000000000E+00 -0.00000000000E+00 -0.45593999997E+02  0.45594000000E+02  0.51100000000E-03 0. -1.
    9900012    2    1    2    0    0  0.20682950798E+01  0.21364675724E+02  0.23579493532E+02  0.59301957151E+02  0.50000023934E+02 0.  0.
         12    1    1    2    0    0 -0.20682950798E+01 -0.21364675724E+02 -0.23579493532E+02  0.31886042849E+02  0.00000000000E+00 0. -1.
         11    1    3    3    0    0 -0.89701705652E+00 -0.42921963416E+01  0.31307929783E+01  0.53878988455E+01  0.51100000000E-03 0. -1.
        -11    1    3    3    0    0  0.99075859739E+01  0.22388814753E+02  0.31849132477E+02  0.40171961935E+02  0.51100000000E-03 0.  1.
        -12    1    3    3    0    0 -0.69422738377E+01  0.32680573122E+01 -0.11400431923E+02  0.13742096371E+02  0.00000000000E+00 0.  1.
</event>
<event>
 7    1  0.7755875E-012  0.5930188E+02  0.7816164E-02  0.1266605E+00
        -11   -1    0    0    0    0  0.00000000000E+00  0.00000000000E+00  0.45593999997E+02  0.45594000000E+02  0.51100000000E-03 0.  1.
         11   -1    0    0    0    0 -0.00000000000E+00 -0.00000000000E+00 -0.45593999997E+02  0.45594000000E+02  0.51100000000E-03 0. -1.
    9900012    2    1    2    0    0 -0.27458680498E+02  0.18577614238E+01  0.16102608268E+02  0.59301883817E+02  0.49999890190E+02 0.  0.
         12    1    1    2    0    0  0.27458680498E+02 -0.18577614238E+01 -0.16102608268E+02  0.31886116183E+02  0.00000000000E+00 0. -1.
         11    1    3    3    0    0  0.92054116557E+01  0.49771901832E+01 -0.28915347922E+01  0.10856933250E+02  0.51100000000E-03 0. -1.
        -11    1    3    3    0    0 -0.34342435411E+02  0.38621538259E+01  0.21466371287E+02  0.40683217653E+02  0.51100000000E-03 0.  1.
         12    1    3    3    0    0 -0.23216567422E+01 -0.69815825854E+01 -0.24722282261E+01  0.77617329139E+01  0.00000000000E+00 0. -1.
</event>
<event>
 7    1  0.7755875E-012  0.5930194E+02  0.7816164E-02  0.1266605E+00
        -11   -1    0    0    0    0  0.00000000000E+00  0.00000000000E+00  0.45593999997E+02  0.45594000000E+02  0.51100000000E-03 0.  1.
         11   -1    0    0    0    0 -0.00000000000E+00 -0.00000000000E+00 -0.45593999997E+02  0.45594000000E+02  0.51100000000E-03 0. -1.
    9900012    2    1    2    0    0 -0.10368838545E+02  0.18712142799E+02  0.23644529238E+02  0.59301939350E+02  0.49999991468E+02 0.  0.
         12    1    1    2    0    0  0.10368838545E+02 -0.18712142799E+02 -0.23644529238E+02  0.31886060650E+02  0.00000000000E+00 0. -1.
         11    1    3    3    0    0  0.77230581927E+00 -0.46762422727E+01 -0.66582576648E+01  0.81728877065E+01  0.51100000000E-03 0. -1.
        -11    1    3    3    0    0  0.80416520631E+01  0.19995224050E+02  0.13738910872E+02  0.25558458970E+02  0.51100000000E-03 0.  1.
        -12    1    3    3    0    0 -0.19182796427E+02  0.33931610219E+01  0.16563876031E+02  0.25570592673E+02  0.00000000000E+00 0.  1.
</event>
<event>
 7    1  0.7755875E-012  0.5930196E+02  0.7816164E-02  0.1266605E+00
        -11   -1    0    0    0    0  0.00000000000E+00  0.00000000000E+00  0.45593999997E+02  0.45594000000E+02  0.51100000000E-03 0.  1.
         11   -1    0    0    0    0 -0.00000000000E+00 -0.00000000000E+00 -0.45593999997E+02  0.45594000000E+02  0.51100000000E-03 0. -1.
    9900012    2    1    2    0    0  0.27576519035E+02  0.21512141452E+01  0.15862775534E+02  0.59301956470E+02  0.50000022691E+02 0.  0.
         12    1    1    2    0    0 -0.27576519035E+02 -0.21512141452E+01 -0.15862775534E+02  0.31886043530E+02  0.00000000000E+00 0. -1.
         11    1    3    3    0    0  0.18629417560E+01  0.13337249964E+02  0.82520973468E+01  0.15793983015E+02  0.51100000000E-03 0. -1.
        -11    1    3    3    0    0  0.26932434442E+01 -0.17633154590E+02  0.81144392693E+01  0.19596576894E+02  0.51100000000E-03 0.  1.
        -12    1    3    3    0    0  0.23020333834E+02  0.64471187711E+01 -0.50376108158E+00  0.23911396561E+02  0.00000000000E+00 0.  1.
</event>
<event>
 7    1  0.7755875E-012  0.5930194E+02  0.7816164E-02  0.1266605E+00
        -11   -1    0    0    0    0  0.00000000000E+00  0.00000000000E+00  0.45593999997E+02  0.45594000000E+02  0.51100000000E-03 0. -1.
         11   -1    0    0    0    0 -0.00000000000E+00 -0.00000000000E+00 -0.45593999997E+02  0.45594000000E+02  0.51100000000E-03 0.  1.
    9900012    2    1    2    0    0 -0.30450480710E+02 -0.91358191627E+01  0.24547399975E+01  0.59301941672E+02  0.49999995705E+02 0.  0.
         12    1    1    2    0    0  0.30450480710E+02  0.91358191627E+01 -0.24547399975E+01  0.31886058328E+02  0.00000000000E+00 0. -1.
         11    1    3    3    0    0 -0.22906087861E+02  0.66988290501E+01  0.16057501334E+02  0.28764674883E+02  0.51100000000E-03 0. -1.
        -11    1    3    3    0    0 -0.58107870674E+01  0.19149021811E+01 -0.10899905975E+02  0.12499601883E+02  0.51100000000E-03 0.  1.
         12    1    3    3    0    0 -0.17336057810E+01 -0.17749550394E+02 -0.27028553620E+01  0.18037664907E+02  0.00000000000E+00 0. -1.
</event>
<event>
 7    1  0.7755875E-012  0.5930193E+02  0.7816164E-02  0.1266605E+00
        -11   -1    0    0    0    0  0.00000000000E+00  0.00000000000E+00  0.45593999997E+02  0.45594000000E+02  0.51100000000E-03 0.  1.
         11   -1    0    0    0    0 -0.00000000000E+00 -0.00000000000E+00 -0.45593999997E+02  0.45594000000E+02  0.51100000000E-03 0. -1.
    9900012    2    1    2    0    0 -0.48400382467E+01  0.26702065087E+02  0.16742015094E+02  0.59301932203E+02  0.49999978435E+02 0.  0.
         12    1    1    2    0    0  0.48400382467E+01 -0.26702065087E+02 -0.16742015094E+02  0.31886067797E+02  0.00000000000E+00 0. -1.
         11    1    3    3    0    0  0.44925817222E+00  0.39501960713E+02  0.14188468457E+02  0.41975223293E+02  0.51100000000E-03 0. -1.
        -11    1    3    3    0    0 -0.22939258531E+00 -0.93685970793E+01  0.51400333258E+01  0.10688459900E+02  0.51100000000E-03 0.  1.
         12    1    3    3    0    0 -0.50599038336E+01 -0.34312985471E+01 -0.25864866887E+01  0.66382490098E+01  0.00000000000E+00 0. -1.
</event>
<event>
 7    1  0.7755875E-012  0.5930191E+02  0.7816164E-02  0.1266605E+00
        -11   -1    0    0    0    0  0.00000000000E+00  0.00000000000E+00  0.45593999997E+02  0.45594000000E+02  0.51100000000E-03 0. -1.
         11   -1    0    0    0    0 -0.00000000000E+00 -0.00000000000E+00 -0.45593999997E+02  0.45594000000E+02  0.51100000000E-03 0.  1.
    9900012    2    1    2    0    0  0.16736991207E+02 -0.43466372623E+01 -0.26789971006E+02  0.59301910922E+02  0.49999939624E+02 0.  0.
         12    1    1    2    0    0 -0.16736991207E+02  0.43466372623E+01  0.26789971006E+02  0.31886089078E+02  0.00000000000E+00 0. -1.
         11    1    3    3    0    0  0.28787296016E+02 -0.95910871451E+01 -0.53709748649E+01  0.30814683770E+02  0.51100000000E-03 0. -1.
        -11    1    3    3    0    0 -0.82285071265E+01 -0.34554180000E+01 -0.76324411569E+01  0.11743185316E+02  0.51100000000E-03 0.  1.
         12    1    3    3    0    0 -0.38217976825E+01  0.86998678828E+01 -0.13786554984E+02  0.16744041837E+02  0.00000000000E+00 0. -1.
</event>
<event>
 7    1  0.7755875E-012  0.5930195E+02  0.7816164E-02  0.1266605E+00
        -11   -1    0    0    0    0  0.00000000000E+00  0.00000000000E+00  0.45593999997E+02  0.45594000000E+02  0.51100000000E-03 0.  1.
         11   -1    0    0    0    0 -0.00000000000E+00 -0.00000000000E+00 -0.45593999997E+02  0.45594000000E+02  0.51100000000E-03 0. -1.
    9900012    2    1    2    0    0  0.21571210733E+02  0.15086466645E+02  0.17994488177E+02  0.59301949554E+02  0.50000010079E+02 0.  0.
         12    1    1    2    0    0 -0.21571210733E+02 -0.15086466645E+02 -0.17994488177E+02  0.31886050446E+02  0.00000000000E+00 0. -1.
         11    1    3    3    0    0 -0.10791936084E+02  0.76710823317E+01  0.57989490241E+00  0.13253213457E+02  0.51100000000E-03 0. -1.
        -11    1    3    3    0    0  0.12216830410E+02  0.10698997693E+02  0.19675599796E+02  0.25511736995E+02  0.51100000000E-03 0.  1.
         12    1    3    3    0    0  0.20146316408E+02 -0.32836133799E+01 -0.22610065220E+01  0.20536999102E+02  0.00000000000E+00 0. -1.
</event>
<event>
 7    1  0.7755875E-012  0.5930195E+02  0.7816164E-02  0.1266605E+00
        -11   -1    0    0    0    0  0.00000000000E+00  0.00000000000E+00  0.45593999997E+02  0.45594000000E+02  0.51100000000E-03 0.  1.
         11   -1    0    0    0    0 -0.00000000000E+00 -0.00000000000E+00 -0.45593999997E+02  0.45594000000E+02  0.51100000000E-03 0. -1.
    9900012    2    1    2    0    0 -0.13939768008E+02  0.24609000354E+02  0.14724145719E+02  0.59301945090E+02  0.50000001938E+02 0.  0.
         12    1    1    2    0    0  0.13939768008E+02 -0.24609000354E+02 -0.14724145719E+02  0.31886054910E+02  0.00000000000E+00 0. -1.
         11    1    3    3    0    0 -0.27217237783E+02  0.12822369444E+02  0.11518132082E+02  0.32215812230E+02  0.51100000000E-03 0. -1.
        -11    1    3    3    0    0  0.26674973019E+01  0.12539357978E+02  0.83208832939E+01  0.15283590527E+02  0.51100000000E-03 0.  1.
        -12    1    3    3    0    0  0.10609972473E+02 -0.75272706757E+00 -0.51148696568E+01  0.11802542333E+02  0.00000000000E+00 0.  1.
</event>
<event>
 7    1  0.7755875E-012  0.5930195E+02  0.7816164E-02  0.1266605E+00
        -11   -1    0    0    0    0  0.00000000000E+00  0.00000000000E+00  0.45593999997E+02  0.45594000000E+02  0.51100000000E-03 0.  1.
         11   -1    0    0    0    0 -0.00000000000E+00 -0.00000000000E+00 -0.45593999997E+02  0.45594000000E+02  0.51100000000E-03 0. -1.
    9900012    2    1    2    0    0  0.96415363779E+01 -0.15567969377E+02  0.26103627210E+02  0.59301949009E+02  0.50000009086E+02 0.  0.
         12    1    1    2    0    0 -0.96415363779E+01  0.15567969377E+02 -0.26103627210E+02  0.31886050991E+02  0.00000000000E+00 0. -1.
         11    1    3    3    0    0  0.13518964821E+01  0.30128473549E+01 -0.22861143866E+01  0.40163655875E+01  0.51100000000E-03 0. -1.
        -11    1    3    3    0    0  0.14355158430E+02 -0.50566883021E+01  0.35663243433E+02  0.38775089975E+02  0.51100000000E-03 0.  1.
        -12    1    3    3    0    0 -0.60655185342E+01 -0.13524128430E+02 -0.72735018370E+01  0.16510493447E+02  0.00000000000E+00 0.  1.
</event>
<event>
 7    1  0.7755875E-012  0.5930195E+02  0.7816164E-02  0.1266605E+00
        -11   -1    0    0    0    0  0.00000000000E+00  0.00000000000E+00  0.45593999997E+02  0.45594000000E+02  0.51100000000E-03 0. -1.
         11   -1    0    0    0    0 -0.00000000000E+00 -0.00000000000E+00 -0.45593999997E+02  0.45594000000E+02  0.51100000000E-03 0.  1.
    9900012    2    1    2    0    0 -0.21919019082E+02 -0.15119247948E+02 -0.17540962044E+02  0.59301946537E+02  0.50000004577E+02 0.  0.
         12    1    1    2    0    0  0.21919019082E+02  0.15119247948E+02  0.17540962044E+02  0.31886053463E+02  0.00000000000E+00 0. -1.
         11    1    3    3    0    0  0.14482227162E+02 -0.33112923680E+01 -0.22612861260E+00  0.14857681351E+02  0.51100000000E-03 0. -1.
        -11    1    3    3    0    0 -0.24461710909E+02 -0.11512495691E+02 -0.53908676065E+01  0.27567631589E+02  0.51100000000E-03 0.  1.
         12    1    3    3    0    0 -0.11939535335E+02 -0.29545988913E+00 -0.11923965825E+02  0.16876633597E+02  0.00000000000E+00 0. -1.
</event>
<event>
 7    1  0.7755875E-012  0.5930197E+02  0.7816164E-02  0.1266605E+00
        -11   -1    0    0    0    0  0.00000000000E+00  0.00000000000E+00  0.45593999997E+02  0.45594000000E+02  0.51100000000E-03 0.  1.
         11   -1    0    0    0    0 -0.00000000000E+00 -0.00000000000E+00 -0.45593999997E+02  0.45594000000E+02  0.51100000000E-03 0. -1.
    9900012    2    1    2    0    0 -0.26416616324E+02 -0.17743470203E+02  0.20125892135E+01  0.59301970642E+02  0.50000048539E+02 0.  0.
         12    1    1    2    0    0  0.26416616324E+02  0.17743470203E+02 -0.20125892135E+01  0.31886029358E+02  0.00000000000E+00 0. -1.
         11    1    3    3    0    0 -0.20335858673E+02 -0.17896163691E+02 -0.16557100745E+02  0.31748344968E+02  0.51100000000E-03 0. -1.
        -11    1    3    3    0    0 -0.11488959621E+02  0.53000885861E+01  0.13651071745E+02  0.18612868995E+02  0.51100000000E-03 0.  1.
        -12    1    3    3    0    0  0.54082019711E+01 -0.51473950986E+01  0.49186182142E+01  0.89407566793E+01  0.00000000000E+00 0.  1.
</event>
<event>
 7    1  0.7755875E-012  0.5930177E+02  0.7816164E-02  0.1266605E+00
        -11   -1    0    0    0    0  0.00000000000E+00  0.00000000000E+00  0.45593999997E+02  0.45594000000E+02  0.51100000000E-03 0.  1.
         11   -1    0    0    0    0 -0.00000000000E+00 -0.00000000000E+00 -0.45593999997E+02  0.45594000000E+02  0.51100000000E-03 0. -1.
    9900012    2    1    2    0    0 -0.24625898735E+01 -0.20706730998E+02  0.24122572194E+02  0.59301771832E+02  0.49999685956E+02 0.  0.
         12    1    1    2    0    0  0.24625898735E+01  0.20706730998E+02 -0.24122572194E+02  0.31886228168E+02  0.00000000000E+00 0. -1.
         11    1    3    3    0    0  0.92278113493E+01 -0.16397186524E+02  0.54191908179E+01  0.19580292581E+02  0.51100000000E-03 0. -1.
        -11    1    3    3    0    0 -0.20807703604E+02 -0.10951823534E+02  0.14805136642E+02  0.27786598195E+02  0.51100000000E-03 0.  1.
        -12    1    3    3    0    0  0.91173023809E+01  0.66422790599E+01  0.38982447346E+01  0.11934881056E+02  0.00000000000E+00 0.  1.
</event>
<event>
 7    1  0.7755875E-012  0.5930191E+02  0.7816164E-02  0.1266605E+00
        -11   -1    0    0    0    0  0.00000000000E+00  0.00000000000E+00  0.45593999997E+02  0.45594000000E+02  0.51100000000E-03 0.  1.
         11   -1    0    0    0    0 -0.00000000000E+00 -0.00000000000E+00 -0.45593999997E+02  0.45594000000E+02  0.51100000000E-03 0. -1.
    9900012    2    1    2    0    0 -0.29417886080E+02  0.10759921920E+02  0.59610877422E+01  0.59301913564E+02  0.49999944441E+02 0.  0.
         12    1    1    2    0    0  0.29417886080E+02 -0.10759921920E+02 -0.59610877422E+01  0.31886086436E+02  0.00000000000E+00 0. -1.
         11    1    3    3    0    0 -0.31698520458E+01  0.18731949624E+02 -0.10903208837E+02  0.21904653888E+02  0.51100000000E-03 0. -1.
        -11    1    3    3    0    0 -0.25008325694E+02 -0.17100373765E+01  0.76883880422E+01  0.26219303820E+02  0.51100000000E-03 0.  1.
         12    1    3    3    0    0 -0.12397083407E+01 -0.62619903278E+01  0.91759085375E+01  0.11177955856E+02  0.00000000000E+00 0. -1.
</event>
<event>
 7    1  0.7755875E-012  0.5930192E+02  0.7816164E-02  0.1266605E+00
        -11   -1    0    0    0    0  0.00000000000E+00  0.00000000000E+00  0.45593999997E+02  0.45594000000E+02  0.51100000000E-03 0.  1.
         11   -1    0    0    0    0 -0.00000000000E+00 -0.00000000000E+00 -0.45593999997E+02  0.45594000000E+02  0.51100000000E-03 0. -1.
    9900012    2    1    2    0    0 -0.74229448094E+01 -0.11483454310E+02  0.28805418251E+02  0.59301922268E+02  0.49999960315E+02 0.  0.
         12    1    1    2    0    0  0.74229448094E+01  0.11483454310E+02 -0.28805418251E+02  0.31886077732E+02  0.00000000000E+00 0. -1.
         11    1    3    3    0    0 -0.20191838583E+02 -0.10521756650E+02 -0.46332754736E+01  0.23235424469E+02  0.51100000000E-03 0. -1.
        -11    1    3    3    0    0  0.40439148248E+01 -0.18903083424E+01  0.80564650215E+01  0.92104908470E+01  0.51100000000E-03 0.  1.
         12    1    3    3    0    0  0.87249789488E+01  0.92861068288E+00  0.25382228703E+02  0.26856006952E+02  0.00000000000E+00 0. -1.
</event>
<event>
 7    1  0.7755875E-012  0.5930178E+02  0.7816164E-02  0.1266605E+00
        -11   -1    0    0    0    0  0.00000000000E+00  0.00000000000E+00  0.45593999997E+02  0.45594000000E+02  0.51100000000E-03 0. -1.
         11   -1    0    0    0    0 -0.00000000000E+00 -0.00000000000E+00 -0.45593999997E+02  0.45594000000E+02  0.51100000000E-03 0.  1.
    9900012    2    1    2    0    0  0.23352481245E+02  0.30916812686E+01 -0.21490326421E+02  0.59301780359E+02  0.49999701506E+02 0.  0.
         12    1    1    2    0    0 -0.23352481245E+02 -0.30916812686E+01  0.21490326421E+02  0.31886219641E+02  0.00000000000E+00 0. -1.
         11    1    3    3    0    0  0.66919441836E+01 -0.79193040998E+01 -0.20293931330E+02  0.22789057538E+02  0.51100000000E-03 0. -1.
        -11    1    3    3    0    0  0.22588054924E+02  0.16313892663E+02  0.20136633390E+01  0.27935965338E+02  0.51100000000E-03 0.  1.
        -12    1    3    3    0    0 -0.59275178631E+01 -0.53029072944E+01 -0.32100584300E+01  0.85767574825E+01  0.00000000000E+00 0.  1.
</event>
<event>
 7    1  0.7755875E-012  0.5930190E+02  0.7816164E-02  0.1266605E+00
        -11   -1    0    0    0    0  0.00000000000E+00  0.00000000000E+00  0.45593999997E+02  0.45594000000E+02  0.51100000000E-03 0.  1.
         11   -1    0    0    0    0 -0.00000000000E+00 -0.00000000000E+00 -0.45593999997E+02  0.45594000000E+02  0.51100000000E-03 0. -1.
    9900012    2    1    2    0    0  0.47284743561E+01  0.31529332613E+02  0.51574253242E+00  0.59301901538E+02  0.49999922509E+02 0.  0.
         12    1    1    2    0    0 -0.47284743561E+01 -0.31529332613E+02 -0.51574253242E+00  0.31886098462E+02  0.00000000000E+00 0. -1.
         11    1    3    3    0    0  0.72661423165E+01  0.33167406287E+02  0.15939741888E+01  0.33991387409E+02  0.51100000000E-03 0. -1.
        -11    1    3    3    0    0  0.10042392538E+02 -0.96267685565E+00  0.50715519719E+01  0.11291458466E+02  0.51100000000E-03 0.  1.
         12    1    3    3    0    0 -0.12580060499E+02 -0.67539681849E+00 -0.61497836283E+01  0.14019055663E+02  0.00000000000E+00 0. -1.
</event>
<event>
 7    1  0.7755875E-012  0.5930193E+02  0.7816164E-02  0.1266605E+00
        -11   -1    0    0    0    0  0.00000000000E+00  0.00000000000E+00  0.45593999997E+02  0.45594000000E+02  0.51100000000E-03 0. -1.
         11   -1    0    0    0    0 -0.00000000000E+00 -0.00000000000E+00 -0.45593999997E+02  0.45594000000E+02  0.51100000000E-03 0.  1.
    9900012    2    1    2    0    0  0.15399275709E+02 -0.23267224120E+02  0.15434380285E+02  0.59301929289E+02  0.49999973121E+02 0.  0.
         12    1    1    2    0    0 -0.15399275709E+02  0.23267224120E+02 -0.15434380285E+02  0.31886070711E+02  0.00000000000E+00 0. -1.
         11    1    3    3    0    0 -0.46826518734E+01 -0.20353122855E+02  0.16425274251E+02  0.26570029601E+02  0.51100000000E-03 0. -1.
        -11    1    3    3    0    0  0.90273997647E+00  0.95598817945E+01 -0.20878658790E+01  0.98267727958E+01  0.51100000000E-03 0.  1.
        -12    1    3    3    0    0  0.19179187606E+02 -0.12473983059E+02  0.10969719122E+01  0.22905126892E+02  0.00000000000E+00 0.  1.
</event>
<event>
 7    1  0.7755875E-012  0.5930195E+02  0.7816164E-02  0.1266605E+00
        -11   -1    0    0    0    0  0.00000000000E+00  0.00000000000E+00  0.45593999997E+02  0.45594000000E+02  0.51100000000E-03 0. -1.
         11   -1    0    0    0    0 -0.00000000000E+00 -0.00000000000E+00 -0.45593999997E+02  0.45594000000E+02  0.51100000000E-03 0.  1.
    9900012    2    1    2    0    0 -0.48122780404E+01 -0.49361430072E+01 -0.31131926712E+02  0.59301946802E+02  0.50000005060E+02 0.  0.
         12    1    1    2    0    0  0.48122780404E+01  0.49361430072E+01  0.31131926712E+02  0.31886053198E+02  0.00000000000E+00 0. -1.
         11    1    3    3    0    0  0.73886031513E+01  0.75947549620E+01 -0.95527044184E+00  0.10638811087E+02  0.51100000000E-03 0. -1.
        -11    1    3    3    0    0 -0.61442534156E+01 -0.18181574639E+02 -0.34380343714E+02  0.39374224317E+02  0.51100000000E-03 0.  1.
        -12    1    3    3    0    0 -0.60566277761E+01  0.56506766694E+01  0.42036874439E+01  0.92889113984E+01  0.00000000000E+00 0.  1.
</event>
<event>
 7    1  0.7755875E-012  0.5930196E+02  0.7816164E-02  0.1266605E+00
        -11   -1    0    0    0    0  0.00000000000E+00  0.00000000000E+00  0.45593999997E+02  0.45594000000E+02  0.51100000000E-03 0.  1.
         11   -1    0    0    0    0 -0.00000000000E+00 -0.00000000000E+00 -0.45593999997E+02  0.45594000000E+02  0.51100000000E-03 0. -1.
    9900012    2    1    2    0    0  0.23949009199E+02 -0.12498317000E+02  0.16939799712E+02  0.59301956286E+02  0.50000022356E+02 0.  0.
         12    1    1    2    0    0 -0.23949009199E+02  0.12498317000E+02 -0.16939799712E+02  0.31886043714E+02  0.00000000000E+00 0. -1.
         11    1    3    3    0    0 -0.62211627290E+01 -0.17335578964E+02  0.34780884283E+01  0.18743592587E+02  0.51100000000E-03 0. -1.
        -11    1    3    3    0    0  0.21758022896E+02 -0.41135346990E+00  0.19269770649E+02  0.29067246742E+02  0.51100000000E-03 0.  1.
        -12    1    3    3    0    0  0.84121490328E+01  0.52486154335E+01 -0.58080593655E+01  0.11491116957E+02  0.00000000000E+00 0.  1.
</event>
<event>
 7    1  0.7755875E-012  0.5930198E+02  0.7816164E-02  0.1266605E+00
        -11   -1    0    0    0    0  0.00000000000E+00  0.00000000000E+00  0.45593999997E+02  0.45594000000E+02  0.51100000000E-03 0.  1.
         11   -1    0    0    0    0 -0.00000000000E+00 -0.00000000000E+00 -0.45593999997E+02  0.45594000000E+02  0.51100000000E-03 0. -1.
    9900012    2    1    2    0    0  0.20244221543E+02  0.22145705167E+02  0.10791547481E+02  0.59301980175E+02  0.50000065924E+02 0.  0.
         12    1    1    2    0    0 -0.20244221543E+02 -0.22145705167E+02 -0.10791547481E+02  0.31886019825E+02  0.00000000000E+00 0. -1.
         11    1    3    3    0    0  0.20986715943E+02  0.38487867286E+01  0.11922507632E+02  0.24441800135E+02  0.51100000000E-03 0. -1.
        -11    1    3    3    0    0 -0.55930253631E+01 -0.60734234684E-02 -0.11848742687E+02  0.13102468207E+02  0.51100000000E-03 0.  1.
        -12    1    3    3    0    0  0.48505309636E+01  0.18302991862E+02  0.10717782536E+02  0.21757711833E+02  0.00000000000E+00 0.  1.
</event>
<event>
 7    1  0.7755875E-012  0.5930190E+02  0.7816164E-02  0.1266605E+00
        -11   -1    0    0    0    0  0.00000000000E+00  0.00000000000E+00  0.45593999997E+02  0.45594000000E+02  0.51100000000E-03 0.  1.
         11   -1    0    0    0    0 -0.00000000000E+00 -0.00000000000E+00 -0.45593999997E+02  0.45594000000E+02  0.51100000000E-03 0. -1.
    9900012    2    1    2    0    0  0.14437212332E+01  0.11550082891E+00  0.31853193552E+02  0.59301896273E+02  0.49999912907E+02 0.  0.
         12    1    1    2    0    0 -0.14437212332E+01 -0.11550082891E+00 -0.31853193552E+02  0.31886103727E+02  0.00000000000E+00 0. -1.
         11    1    3    3    0    0 -0.13607895302E+02  0.83639449534E+01  0.77075806642E+01  0.17735196354E+02  0.51100000000E-03 0.  1.
        -11    1    3    3    0    0  0.77145509876E+01 -0.13819648323E+02  0.11155140940E+00  0.15827489399E+02  0.51100000000E-03 0. -1.
        -12    1    3    3    0    0  0.73370655479E+01  0.55712041984E+01  0.24034061478E+02  0.25739210520E+02  0.00000000000E+00 0.  1.
</event>
<event>
 7    1  0.7755875E-012  0.5930192E+02  0.7816164E-02  0.1266605E+00
        -11   -1    0    0    0    0  0.00000000000E+00  0.00000000000E+00  0.45593999997E+02  0.45594000000E+02  0.51100000000E-03 0. -1.
         11   -1    0    0    0    0 -0.00000000000E+00 -0.00000000000E+00 -0.45593999997E+02  0.45594000000E+02  0.51100000000E-03 0.  1.
    9900012    2    1    2    0    0  0.13100329632E+02 -0.28610122553E+02 -0.51540777686E+01  0.59301917352E+02  0.49999951350E+02 0.  0.
         12    1    1    2    0    0 -0.13100329632E+02  0.28610122553E+02  0.51540777686E+01  0.31886082648E+02  0.00000000000E+00 0. -1.
         11    1    3    3    0    0 -0.53014654960E+01  0.40995418372E+01 -0.95922816480E+01  0.11701437824E+02  0.51100000000E-03 0. -1.
        -11    1    3    3    0    0  0.26233998430E+02 -0.24202015933E+02  0.17911393156E+01  0.35737493325E+02  0.51100000000E-03 0.  1.
         12    1    3    3    0    0 -0.78322033017E+01 -0.85076484573E+01  0.26470645638E+01  0.11862986202E+02  0.00000000000E+00 0. -1.
</event>
<event>
 7    1  0.7755875E-012  0.5930204E+02  0.7816164E-02  0.1266604E+00
        -11   -1    0    0    0    0  0.00000000000E+00  0.00000000000E+00  0.45593999997E+02  0.45594000000E+02  0.51100000000E-03 0. -1.
         11   -1    0    0    0    0 -0.00000000000E+00 -0.00000000000E+00 -0.45593999997E+02  0.45594000000E+02  0.51100000000E-03 0.  1.
    9900012    2    1    2    0    0 -0.40283573943E+00 -0.27404592439E+02 -0.16295412670E+02  0.59302040120E+02  0.50000175250E+02 0.  0.
         12    1    1    2    0    0  0.40283573943E+00  0.27404592439E+02  0.16295412670E+02  0.31885959880E+02  0.00000000000E+00 0. -1.
         11    1    3    3    0    0  0.21317125452E+01 -0.74203405701E-01  0.38416596032E+01  0.43940929996E+01  0.51100000000E-03 0. -1.
        -11    1    3    3    0    0 -0.15346485147E+02 -0.28718856621E+02 -0.25084681083E+02  0.41103875210E+02  0.51100000000E-03 0.  1.
        -12    1    3    3    0    0  0.12811936862E+02  0.13884675876E+01  0.49476088099E+01  0.13804071911E+02  0.00000000000E+00 0.  1.
</event>
<event>
 7    1  0.7755875E-012  0.5930195E+02  0.7816164E-02  0.1266605E+00
        -11   -1    0    0    0    0  0.00000000000E+00  0.00000000000E+00  0.45593999997E+02  0.45594000000E+02  0.51100000000E-03 0. -1.
         11   -1    0    0    0    0 -0.00000000000E+00 -0.00000000000E+00 -0.45593999997E+02  0.45594000000E+02  0.51100000000E-03 0.  1.
    9900012    2    1    2    0    0  0.30481059432E+02  0.91752709678E+01 -0.18546945025E+01  0.59301945476E+02  0.50000002642E+02 0.  0.
         12    1    1    2    0    0 -0.30481059432E+02 -0.91752709678E+01  0.18546945025E+01  0.31886054524E+02  0.00000000000E+00 0. -1.
         11    1    3    3    0    0  0.17817395664E+02 -0.99930653610E+01  0.11515553044E+02  0.23450563015E+02  0.51100000000E-03 0.  1.
        -11    1    3    3    0    0  0.18754845791E+02  0.19631555836E+02 -0.10652991213E+02  0.29165535264E+02  0.51100000000E-03 0. -1.
        -12    1    3    3    0    0 -0.60911820238E+01 -0.46321950674E+00 -0.27172563336E+01  0.66858471969E+01  0.00000000000E+00 0.  1.
</event>
<event>
 7    1  0.7755875E-012  0.5930193E+02  0.7816164E-02  0.1266605E+00
        -11   -1    0    0    0    0  0.00000000000E+00  0.00000000000E+00  0.45593999997E+02  0.45594000000E+02  0.51100000000E-03 0. -1.
         11   -1    0    0    0    0 -0.00000000000E+00 -0.00000000000E+00 -0.45593999997E+02  0.45594000000E+02  0.51100000000E-03 0.  1.
    9900012    2    1    2    0    0 -0.16488001240E+02 -0.19698914975E+02 -0.18889674956E+02  0.59301933199E+02  0.49999980250E+02 0.  0.
         12    1    1    2    0    0  0.16488001240E+02  0.19698914975E+02  0.18889674956E+02  0.31886066801E+02  0.00000000000E+00 0. -1.
         11    1    3    3    0    0  0.75369604584E+01  0.39868963368E+01  0.66159787726E+01  0.10792232889E+02  0.51100000000E-03 0. -1.
        -11    1    3    3    0    0 -0.27085307306E+02 -0.17159536257E+02 -0.26006119077E+02  0.41284159022E+02  0.51100000000E-03 0.  1.
        -12    1    3    3    0    0  0.30603456071E+01 -0.65262750555E+01  0.50046534880E+00  0.72255412876E+01  0.00000000000E+00 0.  1.
</event>
<event>
 7    1  0.7755875E-012  0.5930197E+02  0.7816164E-02  0.1266605E+00
        -11   -1    0    0    0    0  0.00000000000E+00  0.00000000000E+00  0.45593999997E+02  0.45594000000E+02  0.51100000000E-03 0. -1.
         11   -1    0    0    0    0 -0.00000000000E+00 -0.00000000000E+00 -0.45593999997E+02  0.45594000000E+02  0.51100000000E-03 0.  1.
    9900012    2    1    2    0    0  0.25079565101E+02  0.19505612049E+02 -0.26954772838E+01  0.59301967245E+02  0.50000042343E+02 0.  0.
         12    1    1    2    0    0 -0.25079565101E+02 -0.19505612049E+02  0.26954772838E+01  0.31886032755E+02  0.00000000000E+00 0. -1.
         11    1    3    3    0    0  0.12431515594E+01 -0.98026490119E+01  0.72540679110E+01  0.12258011868E+02  0.51100000000E-03 0. -1.
        -11    1    3    3    0    0  0.54685559487E+01  0.25655050858E+02 -0.90591155344E+00  0.26247045828E+02  0.51100000000E-03 0.  1.
         12    1    3    3    0    0  0.18367857593E+02  0.36532102024E+01 -0.90436336414E+01  0.20796909549E+02  0.00000000000E+00 0. -1.
</event>
<event>
 7    1  0.7755875E-012  0.5930203E+02  0.7816164E-02  0.1266604E+00
        -11   -1    0    0    0    0  0.00000000000E+00  0.00000000000E+00  0.45593999997E+02  0.45594000000E+02  0.51100000000E-03 0.  1.
         11   -1    0    0    0    0 -0.00000000000E+00 -0.00000000000E+00 -0.45593999997E+02  0.45594000000E+02  0.51100000000E-03 0. -1.
    9900012    2    1    2    0    0 -0.22662270398E+02 -0.15214481325E+02  0.16481992697E+02  0.59302030910E+02  0.50000158452E+02 0.  0.
         12    1    1    2    0    0  0.22662270398E+02  0.15214481325E+02 -0.16481992697E+02  0.31885969090E+02  0.00000000000E+00 0. -1.
         11    1    3    3    0    0  0.29664202873E+01 -0.45644214701E+01 -0.11390023152E+02  0.12624033442E+02  0.51100000000E-03 0. -1.
        -11    1    3    3    0    0 -0.14545162584E+02  0.67091710003E+01  0.74216023300E+01  0.17653750636E+02  0.51100000000E-03 0.  1.
         12    1    3    3    0    0 -0.11083528101E+02 -0.17359230855E+02  0.20450413519E+02  0.29024246832E+02  0.00000000000E+00 0. -1.
</event>
<event>
 7    1  0.7755875E-012  0.5930195E+02  0.7816164E-02  0.1266605E+00
        -11   -1    0    0    0    0  0.00000000000E+00  0.00000000000E+00  0.45593999997E+02  0.45594000000E+02  0.51100000000E-03 0. -1.
         11   -1    0    0    0    0 -0.00000000000E+00 -0.00000000000E+00 -0.45593999997E+02  0.45594000000E+02  0.51100000000E-03 0.  1.
    9900012    2    1    2    0    0 -0.93674347005E+01  0.51195036451E+01 -0.30046000683E+02  0.59301948073E+02  0.50000007377E+02 0.  0.
         12    1    1    2    0    0  0.93674347005E+01 -0.51195036451E+01  0.30046000683E+02  0.31886051927E+02  0.00000000000E+00 0. -1.
         11    1    3    3    0    0  0.17465024647E+02  0.71564368728E+01 -0.10491518244E+02  0.21594296236E+02  0.51100000000E-03 0. -1.
        -11    1    3    3    0    0 -0.46251377447E+01 -0.47100458986E+01 -0.12700282180E+02  0.14313406277E+02  0.51100000000E-03 0.  1.
         12    1    3    3    0    0 -0.22207321602E+02  0.26731126708E+01 -0.68542002591E+01  0.23394245559E+02  0.00000000000E+00 0. -1.
</event>
<event>
 7    1  0.7755875E-012  0.5930194E+02  0.7816164E-02  0.1266605E+00
        -11   -1    0    0    0    0  0.00000000000E+00  0.00000000000E+00  0.45593999997E+02  0.45594000000E+02  0.51100000000E-03 0.  1.
         11   -1    0    0    0    0 -0.00000000000E+00 -0.00000000000E+00 -0.45593999997E+02  0.45594000000E+02  0.51100000000E-03 0. -1.
    9900012    2    1    2    0    0 -0.87853330450E+01 -0.96086848156E+01  0.29106905642E+02  0.59301939461E+02  0.49999991672E+02 0.  0.
         12    1    1    2    0    0  0.87853330450E+01  0.96086848156E+01 -0.29106905642E+02  0.31886060539E+02  0.00000000000E+00 0. -1.
         11    1    3    3    0    0  0.82399234860E+01 -0.30263965268E+01 -0.17259985878E+01  0.89461995495E+01  0.51100000000E-03 0. -1.
        -11    1    3    3    0    0 -0.10648308488E+02 -0.17047971095E+02  0.32268202267E+02  0.38016531534E+02  0.51100000000E-03 0.  1.
        -12    1    3    3    0    0 -0.63769480435E+01  0.10465682806E+02 -0.14352980366E+01  0.12339208378E+02  0.00000000000E+00 0.  1.
</event>
<event>
 7    1  0.7755875E-012  0.5930191E+02  0.7816164E-02  0.1266605E+00
        -11   -1    0    0    0    0  0.00000000000E+00  0.00000000000E+00  0.45593999997E+02  0.45594000000E+02  0.51100000000E-03 0.  1.
         11   -1    0    0    0    0 -0.00000000000E+00 -0.00000000000E+00 -0.45593999997E+02  0.45594000000E+02  0.51100000000E-03 0. -1.
    9900012    2    1    2    0    0 -0.30391625733E+02  0.48060867258E+01  0.83650065932E+01  0.59301910249E+02  0.49999938395E+02 0.  0.
         12    1    1    2    0    0  0.30391625733E+02 -0.48060867258E+01 -0.83650065932E+01  0.31886089751E+02  0.00000000000E+00 0. -1.
         11    1    3    3    0    0 -0.21671347964E+02 -0.12153354862E+02 -0.13581652618E+02  0.28316296458E+02  0.51100000000E-03 0. -1.
        -11    1    3    3    0    0 -0.10275452086E+02  0.90599070159E+01  0.12204216684E+02  0.18346927150E+02  0.51100000000E-03 0.  1.
         12    1    3    3    0    0  0.15551743171E+01  0.78995345717E+01  0.97424425273E+01  0.12638686641E+02  0.00000000000E+00 0. -1.
</event>
<event>
 7    1  0.7755875E-012  0.5930191E+02  0.7816164E-02  0.1266605E+00
        -11   -1    0    0    0    0  0.00000000000E+00  0.00000000000E+00  0.45593999997E+02  0.45594000000E+02  0.51100000000E-03 0.  1.
         11   -1    0    0    0    0 -0.00000000000E+00 -0.00000000000E+00 -0.45593999997E+02  0.45594000000E+02  0.51100000000E-03 0. -1.
    9900012    2    1    2    0    0 -0.15605256497E+02  0.13996612417E+02  0.24026931150E+02  0.59301911969E+02  0.49999941532E+02 0.  0.
         12    1    1    2    0    0  0.15605256497E+02 -0.13996612417E+02 -0.24026931150E+02  0.31886088031E+02  0.00000000000E+00 0. -1.
         11    1    3    3    0    0  0.17773843318E+01 -0.16590094202E+02  0.10137433858E+02  0.19523265254E+02  0.51100000000E-03 0. -1.
        -11    1    3    3    0    0 -0.14237248246E+02  0.12964363340E+02  0.56119248868E+01  0.20056611270E+02  0.51100000000E-03 0.  1.
         12    1    3    3    0    0 -0.31453925820E+01  0.17622343280E+02  0.82775724049E+01  0.19722035445E+02  0.00000000000E+00 0. -1.
</event>
<event>
 7    1  0.7755875E-012  0.5930200E+02  0.7816164E-02  0.1266605E+00
        -11   -1    0    0    0    0  0.00000000000E+00  0.00000000000E+00  0.45593999997E+02  0.45594000000E+02  0.51100000000E-03 0.  1.
         11   -1    0    0    0    0 -0.00000000000E+00 -0.00000000000E+00 -0.45593999997E+02  0.45594000000E+02  0.51100000000E-03 0. -1.
    9900012    2    1    2    0    0  0.69329106105E+01 -0.31117772487E+02 -0.57969604476E+00  0.59301998972E+02  0.50000100204E+02 0.  0.
         12    1    1    2    0    0 -0.69329106105E+01  0.31117772487E+02  0.57969604476E+00  0.31886001028E+02  0.00000000000E+00 0. -1.
         11    1    3    3    0    0  0.50813570948E+01  0.77276575644E+01  0.89628917747E+01  0.12879064818E+02  0.51100000000E-03 0. -1.
        -11    1    3    3    0    0  0.41695055720E+01 -0.35000618933E+02 -0.15877033638E+02  0.38658870907E+02  0.51100000000E-03 0.  1.
        -12    1    3    3    0    0 -0.23179520563E+01 -0.38448111179E+01  0.63344458184E+01  0.77640632463E+01  0.00000000000E+00 0.  1.
</event>
<event>
 7    1  0.7755875E-012  0.5930204E+02  0.7816164E-02  0.1266604E+00
        -11   -1    0    0    0    0  0.00000000000E+00  0.00000000000E+00  0.45593999997E+02  0.45594000000E+02  0.51100000000E-03 0.  1.
         11   -1    0    0    0    0 -0.00000000000E+00 -0.00000000000E+00 -0.45593999997E+02  0.45594000000E+02  0.51100000000E-03 0. -1.
    9900012    2    1    2    0    0 -0.17174715705E+01 -0.12284935026E+02  0.29374221449E+02  0.59302043484E+02  0.50000181384E+02 0.  0.
         12    1    1    2    0    0  0.17174715705E+01  0.12284935026E+02 -0.29374221449E+02  0.31885956516E+02  0.00000000000E+00 0. -1.
         11    1    3    3    0    0  0.74316079210E+01  0.10964842220E+02  0.15612858689E+02  0.20474811792E+02  0.51100000000E-03 0.  1.
        -11    1    3    3    0    0 -0.45408570665E+01 -0.90984328615E+01 -0.76687008635E+01  0.12736162555E+02  0.51100000000E-03 0. -1.
        -12    1    3    3    0    0 -0.46082224250E+01 -0.14151344385E+02  0.21430063623E+02  0.26091069137E+02  0.00000000000E+00 0.  1.
</event>
<event>
 7    1  0.7755875E-012  0.5930194E+02  0.7816164E-02  0.1266605E+00
        -11   -1    0    0    0    0  0.00000000000E+00  0.00000000000E+00  0.45593999997E+02  0.45594000000E+02  0.51100000000E-03 0. -1.
         11   -1    0    0    0    0 -0.00000000000E+00 -0.00000000000E+00 -0.45593999997E+02  0.45594000000E+02  0.51100000000E-03 0.  1.
    9900012    2    1    2    0    0  0.17447696753E+02 -0.73653466676E+00 -0.26678764946E+02  0.59301935578E+02  0.49999984589E+02 0.  0.
         12    1    1    2    0    0 -0.17447696753E+02  0.73653466676E+00  0.26678764946E+02  0.31886064422E+02  0.00000000000E+00 0. -1.
         11    1    3    3    0    0  0.24392401405E+02 -0.13880452653E+02 -0.25190313957E+01  0.28178036333E+02  0.51100000000E-03 0. -1.
        -11    1    3    3    0    0 -0.10286623366E+02  0.73088642428E+01 -0.13165663057E+02  0.18236468978E+02  0.51100000000E-03 0.  1.
        -12    1    3    3    0    0  0.33419187140E+01  0.58350537433E+01 -0.10994070493E+02  0.12887430267E+02  0.00000000000E+00 0.  1.
</event>
<event>
 7    1  0.7755875E-012  0.5930169E+02  0.7816164E-02  0.1266606E+00
        -11   -1    0    0    0    0  0.00000000000E+00  0.00000000000E+00  0.45593999997E+02  0.45594000000E+02  0.51100000000E-03 0.  1.
         11   -1    0    0    0    0 -0.00000000000E+00 -0.00000000000E+00 -0.45593999997E+02  0.45594000000E+02  0.51100000000E-03 0. -1.
    9900012    2    1    2    0    0  0.24577092121E+02  0.20289527585E+02 -0.10190216860E+01  0.59301689585E+02  0.49999535955E+02 0.  0.
         12    1    1    2    0    0 -0.24577092121E+02 -0.20289527585E+02  0.10190216860E+01  0.31886310415E+02  0.00000000000E+00 0. -1.
         11    1    3    3    0    0  0.22184309639E+01 -0.15801169508E+02 -0.20856788673E+00  0.15957502767E+02  0.51100000000E-03 0. -1.
        -11    1    3    3    0    0  0.89343472547E+01  0.18013906700E+02  0.35246959707E+01  0.20414379183E+02  0.51100000000E-03 0.  1.
         12    1    3    3    0    0  0.13424313902E+02  0.18076790392E+02 -0.43351497699E+01  0.22929807634E+02  0.00000000000E+00 0. -1.
</event>
<event>
 7    1  0.7755875E-012  0.5930197E+02  0.7816164E-02  0.1266605E+00
        -11   -1    0    0    0    0  0.00000000000E+00  0.00000000000E+00  0.45593999997E+02  0.45594000000E+02  0.51100000000E-03 0.  1.
         11   -1    0    0    0    0 -0.00000000000E+00 -0.00000000000E+00 -0.45593999997E+02  0.45594000000E+02  0.51100000000E-03 0. -1.
    9900012    2    1    2    0    0 -0.13268118311E+02 -0.14608488730E+01  0.28957592046E+02  0.59301965752E+02  0.50000039621E+02 0.  0.
         12    1    1    2    0    0  0.13268118311E+02  0.14608488730E+01 -0.28957592046E+02  0.31886034248E+02  0.00000000000E+00 0. -1.
         11    1    3    3    0    0 -0.18301651633E+01 -0.84412577033E+00 -0.12672232904E+02  0.12831505753E+02  0.51100000000E-03 0. -1.
        -11    1    3    3    0    0  0.45229310546E+01 -0.84621892214E+00  0.76327234188E+01  0.89124328238E+01  0.51100000000E-03 0.  1.
         12    1    3    3    0    0 -0.15960884202E+02  0.22949581943E+00  0.33997101531E+02  0.37558027176E+02  0.00000000000E+00 0. -1.
</event>
<event>
 7    1  0.7755875E-012  0.5930196E+02  0.7816164E-02  0.1266605E+00
        -11   -1    0    0    0    0  0.00000000000E+00  0.00000000000E+00  0.45593999997E+02  0.45594000000E+02  0.51100000000E-03 0.  1.
         11   -1    0    0    0    0 -0.00000000000E+00 -0.00000000000E+00 -0.45593999997E+02  0.45594000000E+02  0.51100000000E-03 0. -1.
    9900012    2    1    2    0    0  0.26236105644E+02  0.17947274129E+02 -0.25062957480E+01  0.59301962203E+02  0.50000033147E+02 0.  0.
         12    1    1    2    0    0 -0.26236105644E+02 -0.17947274129E+02  0.25062957480E+01  0.31886037797E+02  0.00000000000E+00 0. -1.
         11    1    3    3    0    0  0.60766247158E+01  0.15375698968E+02 -0.76196716830E+01  0.18204309477E+02  0.51100000000E-03 0. -1.
        -11    1    3    3    0    0 -0.67591390777E+01 -0.91049426232E+01  0.16143885757E+00  0.11340723258E+02  0.51100000000E-03 0.  1.
        -12    1    3    3    0    0  0.26918620006E+02  0.11676517784E+02  0.49519370775E+01  0.29756929468E+02  0.00000000000E+00 0.  1.
</event>
<event>
 7    1  0.7755875E-012  0.5930194E+02  0.7816164E-02  0.1266605E+00
        -11   -1    0    0    0    0  0.00000000000E+00  0.00000000000E+00  0.45593999997E+02  0.45594000000E+02  0.51100000000E-03 0. -1.
         11   -1    0    0    0    0 -0.00000000000E+00 -0.00000000000E+00 -0.45593999997E+02  0.45594000000E+02  0.51100000000E-03 0.  1.
    9900012    2    1    2    0    0  0.29513978854E+02 -0.12016351777E+02 -0.11195074404E+01  0.59301937924E+02  0.49999988868E+02 0.  0.
         12    1    1    2    0    0 -0.29513978854E+02  0.12016351777E+02  0.11195074404E+01  0.31886062076E+02  0.00000000000E+00 0. -1.
         11    1    3    3    0    0  0.35712920651E+02  0.71402160193E+00 -0.40887624018E+00  0.35722397852E+02  0.51100000000E-03 0. -1.
        -11    1    3    3    0    0  0.11531681216E+01 -0.12478092646E+02 -0.65935780155E+01  0.14160079947E+02  0.51100000000E-03 0.  1.
         12    1    3    3    0    0 -0.73521099185E+01 -0.25228073306E+00  0.58829468152E+01  0.94194601253E+01  0.00000000000E+00 0. -1.
</event>
<event>
 7    1  0.7755875E-012  0.5930195E+02  0.7816164E-02  0.1266605E+00
        -11   -1    0    0    0    0  0.00000000000E+00  0.00000000000E+00  0.45593999997E+02  0.45594000000E+02  0.51100000000E-03 0. -1.
         11   -1    0    0    0    0 -0.00000000000E+00 -0.00000000000E+00 -0.45593999997E+02  0.45594000000E+02  0.51100000000E-03 0.  1.
    9900012    2    1    2    0    0 -0.31079796782E+02  0.39037380406E+01  0.59604555064E+01  0.59301953388E+02  0.50000017072E+02 0.  0.
         12    1    1    2    0    0  0.31079796782E+02 -0.39037380406E+01 -0.59604555064E+01  0.31886046612E+02  0.00000000000E+00 0. -1.
         11    1    3    3    0    0 -0.13193938584E+02 -0.80749089010E+01 -0.12889229522E+02  0.20134954856E+02  0.51100000000E-03 0.  1.
        -11    1    3    3    0    0 -0.12425019461E+02  0.20049707620E+02  0.88194624679E+01  0.25182430437E+02  0.51100000000E-03 0. -1.
         12    1    3    3    0    0 -0.54608387362E+01 -0.80710606783E+01  0.10030222561E+02  0.13984568095E+02  0.00000000000E+00 0. -1.
</event>
<event>
 7    1  0.7755875E-012  0.5930195E+02  0.7816164E-02  0.1266605E+00
        -11   -1    0    0    0    0  0.00000000000E+00  0.00000000000E+00  0.45593999997E+02  0.45594000000E+02  0.51100000000E-03 0. -1.
         11   -1    0    0    0    0 -0.00000000000E+00 -0.00000000000E+00 -0.45593999997E+02  0.45594000000E+02  0.51100000000E-03 0.  1.
    9900012    2    1    2    0    0  0.12784265161E+02  0.28991491258E+02 -0.35743844185E+01  0.59301949366E+02  0.50000009735E+02 0.  0.
         12    1    1    2    0    0 -0.12784265161E+02 -0.28991491258E+02  0.35743844185E+01  0.31886050634E+02  0.00000000000E+00 0. -1.
         11    1    3    3    0    0 -0.72950097189E+01  0.16177825213E+02  0.18100472645E+01  0.17838594865E+02  0.51100000000E-03 0. -1.
        -11    1    3    3    0    0  0.13042446989E+02  0.22344480016E+01 -0.18797407096E+02  0.22987837982E+02  0.51100000000E-03 0.  1.
        -12    1    3    3    0    0  0.70368278915E+01  0.10579218044E+02  0.13412975413E+02  0.18475516518E+02  0.00000000000E+00 0.  1.
</event>
<event>
 7    1  0.7755875E-012  0.5930193E+02  0.7816164E-02  0.1266605E+00
        -11   -1    0    0    0    0  0.00000000000E+00  0.00000000000E+00  0.45593999997E+02  0.45594000000E+02  0.51100000000E-03 0.  1.
         11   -1    0    0    0    0 -0.00000000000E+00 -0.00000000000E+00 -0.45593999997E+02  0.45594000000E+02  0.51100000000E-03 0. -1.
    9900012    2    1    2    0    0 -0.17991101121E+02  0.19070134428E+02 -0.18148606488E+02  0.59301926800E+02  0.49999968581E+02 0.  0.
         12    1    1    2    0    0  0.17991101121E+02 -0.19070134428E+02  0.18148606488E+02  0.31886073200E+02  0.00000000000E+00 0. -1.
         11    1    3    3    0    0 -0.16186164731E+02  0.67574796953E+01 -0.16958154025E+02  0.24397427093E+02  0.51100000000E-03 0. -1.
        -11    1    3    3    0    0  0.55649618951E+01  0.38616695605E+01  0.14275713252E+02  0.15801179760E+02  0.51100000000E-03 0.  1.
        -12    1    3    3    0    0 -0.73698982849E+01  0.84509851723E+01 -0.15466165715E+02  0.19103319948E+02  0.00000000000E+00 0.  1.
</event>
<event>
 7    1  0.7755875E-012  0.5930194E+02  0.7816164E-02  0.1266605E+00
        -11   -1    0    0    0    0  0.00000000000E+00  0.00000000000E+00  0.45593999997E+02  0.45594000000E+02  0.51100000000E-03 0.  1.
         11   -1    0    0    0    0 -0.00000000000E+00 -0.00000000000E+00 -0.45593999997E+02  0.45594000000E+02  0.51100000000E-03 0. -1.
    9900012    2    1    2    0    0 -0.23322308936E+02  0.16221911539E+02  0.14478960620E+02  0.59301940213E+02  0.49999993044E+02 0.  0.
         12    1    1    2    0    0  0.23322308936E+02 -0.16221911539E+02 -0.14478960620E+02  0.31886059787E+02  0.00000000000E+00 0. -1.
         11    1    3    3    0    0  0.94930640731E+01 -0.97390072007E+01  0.19715826133E+00  0.13601668956E+02  0.51100000000E-03 0. -1.
        -11    1    3    3    0    0 -0.15816150784E+02  0.65825634624E+01  0.91315098109E+01  0.19413017258E+02  0.51100000000E-03 0.  1.
         12    1    3    3    0    0 -0.16999222225E+02  0.19378355277E+02  0.51502925475E+01  0.26287253999E+02  0.00000000000E+00 0. -1.
</event>
<event>
 7    1  0.7755875E-012  0.5930196E+02  0.7816164E-02  0.1266605E+00
        -11   -1    0    0    0    0  0.00000000000E+00  0.00000000000E+00  0.45593999997E+02  0.45594000000E+02  0.51100000000E-03 0.  1.
         11   -1    0    0    0    0 -0.00000000000E+00 -0.00000000000E+00 -0.45593999997E+02  0.45594000000E+02  0.51100000000E-03 0. -1.
    9900012    2    1    2    0    0  0.11970379041E+02  0.16833353126E+02  0.24291307389E+02  0.59301962829E+02  0.50000034288E+02 0.  0.
         12    1    1    2    0    0 -0.11970379041E+02 -0.16833353126E+02 -0.24291307389E+02  0.31886037171E+02  0.00000000000E+00 0. -1.
         11    1    3    3    0    0  0.10539942317E+02  0.16869578009E+02 -0.16593644159E+01  0.19960624659E+02  0.51100000000E-03 0. -1.
        -11    1    3    3    0    0 -0.49845119965E+01 -0.12048495687E+02  0.42356828026E+01  0.13709581220E+02  0.51100000000E-03 0.  1.
         12    1    3    3    0    0  0.64149487205E+01  0.12012270804E+02  0.21714989002E+02  0.25631756949E+02  0.00000000000E+00 0. -1.
</event>
<event>
 7    1  0.7755875E-012  0.5930193E+02  0.7816164E-02  0.1266605E+00
        -11   -1    0    0    0    0  0.00000000000E+00  0.00000000000E+00  0.45593999997E+02  0.45594000000E+02  0.51100000000E-03 0. -1.
         11   -1    0    0    0    0 -0.00000000000E+00 -0.00000000000E+00 -0.45593999997E+02  0.45594000000E+02  0.51100000000E-03 0.  1.
    9900012    2    1    2    0    0 -0.44171117302E+01  0.22766472478E+02 -0.21883740478E+02  0.59301933412E+02  0.49999980639E+02 0.  0.
         12    1    1    2    0    0  0.44171117302E+01 -0.22766472478E+02  0.21883740478E+02  0.31886066588E+02  0.00000000000E+00 0. -1.
         11    1    3    3    0    0  0.37152842941E+01  0.25117415087E+02 -0.16026199946E+01  0.25441231675E+02  0.51100000000E-03 0. -1.
        -11    1    3    3    0    0 -0.42728226147E+00 -0.73245728463E+01 -0.23123344014E+02  0.24259451275E+02  0.51100000000E-03 0.  1.
         12    1    3    3    0    0 -0.77051137629E+01  0.49736302379E+01  0.28422235301E+01  0.96012504622E+01  0.00000000000E+00 0. -1.
</event>
<event>
 7    1  0.7755875E-012  0.5930196E+02  0.7816164E-02  0.1266605E+00
        -11   -1    0    0    0    0  0.00000000000E+00  0.00000000000E+00  0.45593999997E+02  0.45594000000E+02  0.51100000000E-03 0. -1.
         11   -1    0    0    0    0 -0.00000000000E+00 -0.00000000000E+00 -0.45593999997E+02  0.45594000000E+02  0.51100000000E-03 0.  1.
    9900012    2    1    2    0    0 -0.22020183755E+02  0.23059735473E+02 -0.28211813525E+00  0.59301960997E+02  0.50000030947E+02 0.  0.
         12    1    1    2    0    0  0.22020183755E+02 -0.23059735473E+02  0.28211813525E+00  0.31886039003E+02  0.00000000000E+00 0. -1.
         11    1    3    3    0    0  0.12210424360E+02  0.89785583176E+01  0.98197944701E+01  0.18059272859E+02  0.51100000000E-03 0. -1.
        -11    1    3    3    0    0 -0.12982173825E+02  0.11165346636E+02 -0.99306619294E+01  0.19794439860E+02  0.51100000000E-03 0.  1.
         12    1    3    3    0    0 -0.21248434290E+02  0.29158305186E+01 -0.17125067598E+00  0.21448248278E+02  0.00000000000E+00 0. -1.
</event>
<event>
 7    1  0.7755875E-012  0.5930193E+02  0.7816164E-02  0.1266605E+00
        -11   -1    0    0    0    0  0.00000000000E+00  0.00000000000E+00  0.45593999997E+02  0.45594000000E+02  0.51100000000E-03 0. -1.
         11   -1    0    0    0    0 -0.00000000000E+00 -0.00000000000E+00 -0.45593999997E+02  0.45594000000E+02  0.51100000000E-03 0.  1.
    9900012    2    1    2    0    0  0.14888049655E+02  0.22953705792E+02 -0.16376646166E+02  0.59301934521E+02  0.49999982662E+02 0.  0.
         12    1    1    2    0    0 -0.14888049655E+02 -0.22953705792E+02  0.16376646166E+02  0.31886065479E+02  0.00000000000E+00 0. -1.
         11    1    3    3    0    0  0.10217157331E+02  0.15342941455E+02 -0.12411509337E+02  0.22222549824E+02  0.51100000000E-03 0. -1.
        -11    1    3    3    0    0  0.13551349643E+02 -0.78215406701E+01 -0.96569376333E+01  0.18386734901E+02  0.51100000000E-03 0.  1.
        -12    1    3    3    0    0 -0.88804573185E+01  0.15432305007E+02  0.56918008042E+01  0.18692649796E+02  0.00000000000E+00 0.  1.
</event>
<event>
 7    1  0.7755875E-012  0.5930195E+02  0.7816164E-02  0.1266605E+00
        -11   -1    0    0    0    0  0.00000000000E+00  0.00000000000E+00  0.45593999997E+02  0.45594000000E+02  0.51100000000E-03 0.  1.
         11   -1    0    0    0    0 -0.00000000000E+00 -0.00000000000E+00 -0.45593999997E+02  0.45594000000E+02  0.51100000000E-03 0. -1.
    9900012    2    1    2    0    0 -0.25610597665E+02 -0.27648107321E+01 -0.18792898523E+02  0.59301954054E+02  0.50000018286E+02 0.  0.
         12    1    1    2    0    0  0.25610597665E+02  0.27648107321E+01  0.18792898523E+02  0.31886045946E+02  0.00000000000E+00 0. -1.
         11    1    3    3    0    0 -0.24964510645E+02  0.79873667496E+01 -0.18155941217E+02  0.31885153615E+02  0.51100000000E-03 0. -1.
        -11    1    3    3    0    0  0.10228468405E+02  0.11314831676E+01  0.33500539309E+01  0.10822415704E+02  0.51100000000E-03 0.  1.
        -12    1    3    3    0    0 -0.10874555425E+02 -0.11883660649E+02 -0.39870112371E+01  0.16594384735E+02  0.00000000000E+00 0.  1.
</event>
<event>
 7    1  0.7755875E-012  0.5930196E+02  0.7816164E-02  0.1266605E+00
        -11   -1    0    0    0    0  0.00000000000E+00  0.00000000000E+00  0.45593999997E+02  0.45594000000E+02  0.51100000000E-03 0.  1.
         11   -1    0    0    0    0 -0.00000000000E+00 -0.00000000000E+00 -0.45593999997E+02  0.45594000000E+02  0.51100000000E-03 0. -1.
    9900012    2    1    2    0    0 -0.24261367440E+02 -0.20069938937E+02  0.50302029961E+01  0.59301963226E+02  0.50000035012E+02 0.  0.
         12    1    1    2    0    0  0.24261367440E+02  0.20069938937E+02 -0.50302029961E+01  0.31886036774E+02  0.00000000000E+00 0. -1.
         11    1    3    3    0    0  0.87178901790E+01 -0.44250315801E+01 -0.49180125207E+01  0.10943918908E+02  0.51100000000E-03 0. -1.
        -11    1    3    3    0    0 -0.20240027491E+02  0.53664470698E+01  0.11215339668E+02  0.23753764147E+02  0.51100000000E-03 0.  1.
        -12    1    3    3    0    0 -0.12739230128E+02 -0.21011354427E+02 -0.12671241513E+01  0.24604280171E+02  0.00000000000E+00 0.  1.
</event>
<event>
 7    1  0.7755875E-012  0.5930185E+02  0.7816164E-02  0.1266605E+00
        -11   -1    0    0    0    0  0.00000000000E+00  0.00000000000E+00  0.45593999997E+02  0.45594000000E+02  0.51100000000E-03 0.  1.
         11   -1    0    0    0    0 -0.00000000000E+00 -0.00000000000E+00 -0.45593999997E+02  0.45594000000E+02  0.51100000000E-03 0. -1.
    9900012    2    1    2    0    0 -0.15794007106E+02  0.21992652640E+02  0.16840392642E+02  0.59301854812E+02  0.49999837292E+02 0.  0.
         12    1    1    2    0    0  0.15794007106E+02 -0.21992652640E+02 -0.16840392642E+02  0.31886145188E+02  0.00000000000E+00 0. -1.
         11    1    3    3    0    0  0.62947878726E+01  0.14214967814E+02  0.24085433922E+01  0.15731838604E+02  0.51100000000E-03 0. -1.
        -11    1    3    3    0    0 -0.16149507040E+02  0.10344790913E+02  0.24798751044E+02  0.31349630465E+02  0.51100000000E-03 0.  1.
        -12    1    3    3    0    0 -0.59392879388E+01 -0.25671060880E+01 -0.10366901795E+02  0.12220385743E+02  0.00000000000E+00 0.  1.
</event>
<event>
 7    1  0.7755875E-012  0.5930196E+02  0.7816164E-02  0.1266605E+00
        -11   -1    0    0    0    0  0.00000000000E+00  0.00000000000E+00  0.45593999997E+02  0.45594000000E+02  0.51100000000E-03 0. -1.
         11   -1    0    0    0    0 -0.00000000000E+00 -0.00000000000E+00 -0.45593999997E+02  0.45594000000E+02  0.51100000000E-03 0.  1.
    9900012    2    1    2    0    0 -0.18053906421E+02  0.12637265925E+02 -0.23045069746E+02  0.59301964394E+02  0.50000037143E+02 0.  0.
         12    1    1    2    0    0  0.18053906421E+02 -0.12637265925E+02  0.23045069746E+02  0.31886035606E+02  0.00000000000E+00 0. -1.
         11    1    3    3    0    0 -0.86387507101E+00  0.14624536183E+02 -0.10023665017E+02  0.17750977419E+02  0.51100000000E-03 0.  1.
        -11    1    3    3    0    0 -0.17061350790E+02 -0.32946831657E+01  0.89460959883E+01  0.19544238579E+02  0.51100000000E-03 0. -1.
        -12    1    3    3    0    0 -0.12868055989E+00  0.13074129077E+01 -0.21967500717E+02  0.22006748396E+02  0.00000000000E+00 0.  1.
</event>
<event>
 7    1  0.7755875E-012  0.5930192E+02  0.7816164E-02  0.1266605E+00
        -11   -1    0    0    0    0  0.00000000000E+00  0.00000000000E+00  0.45593999997E+02  0.45594000000E+02  0.51100000000E-03 0.  1.
         11   -1    0    0    0    0 -0.00000000000E+00 -0.00000000000E+00 -0.45593999997E+02  0.45594000000E+02  0.51100000000E-03 0. -1.
    9900012    2    1    2    0    0 -0.27343482321E+01 -0.23120223206E+02 -0.21787631674E+02  0.59301917216E+02  0.49999951101E+02 0.  0.
         12    1    1    2    0    0  0.27343482321E+01  0.23120223206E+02  0.21787631674E+02  0.31886082784E+02  0.00000000000E+00 0. -1.
         11    1    3    3    0    0  0.64643136433E+01 -0.17224922475E+02  0.12011941965E+02  0.21972074440E+02  0.51100000000E-03 0. -1.
        -11    1    3    3    0    0 -0.10410007716E+02 -0.28881533311E+01 -0.16451893049E+02  0.19681831100E+02  0.51100000000E-03 0.  1.
         12    1    3    3    0    0  0.12113458405E+01 -0.30071473999E+01 -0.17347680590E+02  0.17648011675E+02  0.00000000000E+00 0. -1.
</event>
<event>
 7    1  0.7755875E-012  0.5930194E+02  0.7816164E-02  0.1266605E+00
        -11   -1    0    0    0    0  0.00000000000E+00  0.00000000000E+00  0.45593999997E+02  0.45594000000E+02  0.51100000000E-03 0.  1.
         11   -1    0    0    0    0 -0.00000000000E+00 -0.00000000000E+00 -0.45593999997E+02  0.45594000000E+02  0.51100000000E-03 0. -1.
    9900012    2    1    2    0    0  0.38766598511E+01 -0.12066436270E+02  0.29259075500E+02  0.59301939175E+02  0.49999991149E+02 0.  0.
         12    1    1    2    0    0 -0.38766598511E+01  0.12066436270E+02 -0.29259075500E+02  0.31886060825E+02  0.00000000000E+00 0. -1.
         11    1    3    3    0    0 -0.23075758551E+01  0.11251888996E+02  0.23582896826E+01  0.11725674514E+02  0.51100000000E-03 0. -1.
        -11    1    3    3    0    0 -0.18691830946E+01 -0.27120117791E+02  0.27476898105E+02  0.38651967145E+02  0.51100000000E-03 0.  1.
         12    1    3    3    0    0  0.80534188008E+01  0.38017925246E+01 -0.57611228806E+00  0.89242975158E+01  0.00000000000E+00 0. -1.
</event>
<event>
 7    1  0.7755875E-012  0.5930182E+02  0.7816164E-02  0.1266605E+00
        -11   -1    0    0    0    0  0.00000000000E+00  0.00000000000E+00  0.45593999997E+02  0.45594000000E+02  0.51100000000E-03 0.  1.
         11   -1    0    0    0    0 -0.00000000000E+00 -0.00000000000E+00 -0.45593999997E+02  0.45594000000E+02  0.51100000000E-03 0. -1.
    9900012    2    1    2    0    0  0.27643365879E+02 -0.21020304674E+01  0.15752914601E+02  0.59301819175E+02  0.49999772297E+02 0.  0.
         12    1    1    2    0    0 -0.27643365879E+02  0.21020304674E+01 -0.15752914601E+02  0.31886180825E+02  0.00000000000E+00 0. -1.
         11    1    3    3    0    0  0.70513794874E+01  0.14310724847E+02  0.55532619578E+01  0.16892528436E+02  0.51100000000E-03 0. -1.
        -11    1    3    3    0    0  0.28078264503E+02 -0.16908289779E+02  0.47103698472E+01  0.33112939843E+02  0.51100000000E-03 0.  1.
         12    1    3    3    0    0 -0.74862781107E+01  0.49553446396E+00  0.54892827955E+01  0.92963508951E+01  0.00000000000E+00 0. -1.
</event>
<event>
 7    1  0.7755875E-012  0.5930196E+02  0.7816164E-02  0.1266605E+00
        -11   -1    0    0    0    0  0.00000000000E+00  0.00000000000E+00  0.45593999997E+02  0.45594000000E+02  0.51100000000E-03 0. -1.
         11   -1    0    0    0    0 -0.00000000000E+00 -0.00000000000E+00 -0.45593999997E+02  0.45594000000E+02  0.51100000000E-03 0.  1.
    9900012    2    1    2    0    0 -0.23374539084E+02  0.31909762191E+01 -0.21451523342E+02  0.59301964494E+02  0.50000037325E+02 0.  0.
         12    1    1    2    0    0  0.23374539084E+02 -0.31909762191E+01  0.21451523342E+02  0.31886035506E+02  0.00000000000E+00 0. -1.
         11    1    3    3    0    0  0.60860317206E+01  0.11519829831E+02 -0.16571036836E+02  0.21079504821E+02  0.51100000000E-03 0. -1.
        -11    1    3    3    0    0 -0.23937163478E+02 -0.15392908394E+02 -0.62877995958E+01  0.29145597407E+02  0.51100000000E-03 0.  1.
         12    1    3    3    0    0 -0.55234073268E+01  0.70640547819E+01  0.14073130895E+01  0.90768622658E+01  0.00000000000E+00 0. -1.
</event>
<event>
 7    1  0.7755875E-012  0.5930193E+02  0.7816164E-02  0.1266605E+00
        -11   -1    0    0    0    0  0.00000000000E+00  0.00000000000E+00  0.45593999997E+02  0.45594000000E+02  0.51100000000E-03 0. -1.
         11   -1    0    0    0    0 -0.00000000000E+00 -0.00000000000E+00 -0.45593999997E+02  0.45594000000E+02  0.51100000000E-03 0.  1.
    9900012    2    1    2    0    0 -0.17037548860E+02  0.24595610212E+02  0.11022678348E+02  0.59301928577E+02  0.49999971821E+02 0.  0.
         12    1    1    2    0    0  0.17037548860E+02 -0.24595610212E+02 -0.11022678348E+02  0.31886071423E+02  0.00000000000E+00 0. -1.
         11    1    3    3    0    0  0.67829979474E+01 -0.15971238586E+01 -0.55055147490E+01  0.88809097893E+01  0.51100000000E-03 0. -1.
        -11    1    3    3    0    0 -0.19435363204E+02  0.19421845821E+02 -0.45513834549E+01  0.27850610937E+02  0.51100000000E-03 0.  1.
        -12    1    3    3    0    0 -0.43851836037E+01  0.67708882499E+01  0.21079576551E+02  0.22570407850E+02  0.00000000000E+00 0.  1.
</event>
<event>
 7    1  0.7755875E-012  0.5930184E+02  0.7816164E-02  0.1266605E+00
        -11   -1    0    0    0    0  0.00000000000E+00  0.00000000000E+00  0.45593999997E+02  0.45594000000E+02  0.51100000000E-03 0. -1.
         11   -1    0    0    0    0 -0.00000000000E+00 -0.00000000000E+00 -0.45593999997E+02  0.45594000000E+02  0.51100000000E-03 0.  1.
    9900012    2    1    2    0    0  0.25279943790E+02 -0.49502404641E+01 -0.18792205998E+02  0.59301836152E+02  0.49999803260E+02 0.  0.
         12    1    1    2    0    0 -0.25279943790E+02  0.49502404641E+01  0.18792205998E+02  0.31886163848E+02  0.00000000000E+00 0. -1.
         11    1    3    3    0    0  0.20350494716E+02 -0.82001504787E+01 -0.43139584621E+00  0.21944730705E+02  0.51100000000E-03 0. -1.
        -11    1    3    3    0    0  0.94532802453E+01  0.29979230982E+01 -0.26360018717E+02  0.28163853382E+02  0.51100000000E-03 0.  1.
         12    1    3    3    0    0 -0.45238311719E+01  0.25198691643E+00  0.79992085646E+01  0.91932520654E+01  0.00000000000E+00 0. -1.
</event>
<event>
 7    1  0.7755875E-012  0.5930190E+02  0.7816164E-02  0.1266605E+00
        -11   -1    0    0    0    0  0.00000000000E+00  0.00000000000E+00  0.45593999997E+02  0.45594000000E+02  0.51100000000E-03 0. -1.
         11   -1    0    0    0    0 -0.00000000000E+00 -0.00000000000E+00 -0.45593999997E+02  0.45594000000E+02  0.51100000000E-03 0.  1.
    9900012    2    1    2    0    0 -0.15828009644E+02 -0.25832748513E+02  0.99431837839E+01  0.59301895051E+02  0.49999910679E+02 0.  0.
         12    1    1    2    0    0  0.15828009644E+02  0.25832748513E+02 -0.99431837839E+01  0.31886104949E+02  0.00000000000E+00 0. -1.
         11    1    3    3    0    0 -0.74588431607E+01 -0.11426810556E+02  0.22057174100E+02  0.25936947976E+02  0.51100000000E-03 0. -1.
        -11    1    3    3    0    0 -0.97078235377E+01  0.51937070675E+01 -0.70633112623E+01  0.13080779686E+02  0.51100000000E-03 0.  1.
        -12    1    3    3    0    0  0.13386570540E+01 -0.19599645025E+02 -0.50506790533E+01  0.20284167390E+02  0.00000000000E+00 0.  1.
</event>
<event>
 7    1  0.7755875E-012  0.5930207E+02  0.7816164E-02  0.1266604E+00
        -11   -1    0    0    0    0  0.00000000000E+00  0.00000000000E+00  0.45593999997E+02  0.45594000000E+02  0.51100000000E-03 0.  1.
         11   -1    0    0    0    0 -0.00000000000E+00 -0.00000000000E+00 -0.45593999997E+02  0.45594000000E+02  0.51100000000E-03 0. -1.
    9900012    2    1    2    0    0 -0.20399335035E+02 -0.67360034301E+01 -0.23562814487E+02  0.59302065191E+02  0.50000220972E+02 0.  0.
         12    1    1    2    0    0  0.20399335035E+02  0.67360034301E+01  0.23562814487E+02  0.31885934809E+02  0.00000000000E+00 0. -1.
         11    1    3    3    0    0  0.97748608669E+01  0.81322318204E+01 -0.13301672246E+02  0.18401510377E+02  0.51100000000E-03 0. -1.
        -11    1    3    3    0    0 -0.22244141745E+02 -0.87343286585E+01  0.32058359254E+01  0.24111568247E+02  0.51100000000E-03 0.  1.
         12    1    3    3    0    0 -0.79300541571E+01 -0.61339065920E+01 -0.13466978167E+02  0.16788986567E+02  0.00000000000E+00 0. -1.
</event>
<event>
 7    1  0.7755875E-012  0.5930208E+02  0.7816164E-02  0.1266604E+00
        -11   -1    0    0    0    0  0.00000000000E+00  0.00000000000E+00  0.45593999997E+02  0.45594000000E+02  0.51100000000E-03 0.  1.
         11   -1    0    0    0    0 -0.00000000000E+00 -0.00000000000E+00 -0.45593999997E+02  0.45594000000E+02  0.51100000000E-03 0. -1.
    9900012    2    1    2    0    0  0.14431163418E+02  0.19341998746E+02  0.20840841085E+02  0.59302077554E+02  0.50000243520E+02 0.  0.
         12    1    1    2    0    0 -0.14431163418E+02 -0.19341998746E+02 -0.20840841085E+02  0.31885922446E+02  0.00000000000E+00 0. -1.
         11    1    3    3    0    0  0.22049339047E+02 -0.69384512115E+01  0.14844204379E+01  0.23162878964E+02  0.51100000000E-03 0. -1.
        -11    1    3    3    0    0 -0.51655823146E+01  0.26410817498E+02  0.14200294737E+02  0.30427995210E+02  0.51100000000E-03 0.  1.
         12    1    3    3    0    0 -0.24525933141E+01 -0.13036754068E+00  0.51561259096E+01  0.57112033807E+01  0.00000000000E+00 0. -1.
</event>
<event>
 7    1  0.7755875E-012  0.5930191E+02  0.7816164E-02  0.1266605E+00
        -11   -1    0    0    0    0  0.00000000000E+00  0.00000000000E+00  0.45593999997E+02  0.45594000000E+02  0.51100000000E-03 0.  1.
         11   -1    0    0    0    0 -0.00000000000E+00 -0.00000000000E+00 -0.45593999997E+02  0.45594000000E+02  0.51100000000E-03 0. -1.
    9900012    2    1    2    0    0 -0.30761522914E+01 -0.31026795703E+02  0.66781479632E+01  0.59301914873E+02  0.49999946829E+02 0.  0.
         12    1    1    2    0    0  0.30761522914E+01  0.31026795703E+02 -0.66781479632E+01  0.31886085127E+02  0.00000000000E+00 0. -1.
         11    1    3    3    0    0 -0.12939347990E+02 -0.21597939414E+02  0.20970824683E+02  0.32766952887E+02  0.51100000000E-03 0.  1.
        -11    1    3    3    0    0  0.13847071968E+02 -0.10587507601E+02 -0.84554493790E+01  0.19373470101E+02  0.51100000000E-03 0. -1.
        -12    1    3    3    0    0 -0.39838762696E+01  0.11586513124E+01 -0.58372273408E+01  0.71614918853E+01  0.00000000000E+00 0.  1.
</event>
<event>
 7    1  0.7755875E-012  0.5930194E+02  0.7816164E-02  0.1266605E+00
        -11   -1    0    0    0    0  0.00000000000E+00  0.00000000000E+00  0.45593999997E+02  0.45594000000E+02  0.51100000000E-03 0.  1.
         11   -1    0    0    0    0 -0.00000000000E+00 -0.00000000000E+00 -0.45593999997E+02  0.45594000000E+02  0.51100000000E-03 0. -1.
    9900012    2    1    2    0    0 -0.27571935090E+02 -0.61941365508E+01  0.14769626652E+02  0.59301940293E+02  0.49999993188E+02 0.  0.
         12    1    1    2    0    0  0.27571935090E+02  0.61941365508E+01 -0.14769626652E+02  0.31886059707E+02  0.00000000000E+00 0. -1.
         11    1    3    3    0    0 -0.32299294973E+02  0.25086136146E+01  0.96599767189E+01  0.33806105196E+02  0.51100000000E-03 0. -1.
        -11    1    3    3    0    0 -0.14351742510E+01 -0.15623015877E+02  0.37434833455E+01  0.16129228688E+02  0.51100000000E-03 0.  1.
         12    1    3    3    0    0  0.61625341343E+01  0.69202657119E+01  0.13661665873E+01  0.93666064092E+01  0.00000000000E+00 0. -1.
</event>
<event>
 7    1  0.7755875E-012  0.5930211E+02  0.7816164E-02  0.1266604E+00
        -11   -1    0    0    0    0  0.00000000000E+00  0.00000000000E+00  0.45593999997E+02  0.45594000000E+02  0.51100000000E-03 0. -1.
         11   -1    0    0    0    0 -0.00000000000E+00 -0.00000000000E+00 -0.45593999997E+02  0.45594000000E+02  0.51100000000E-03 0.  1.
    9900012    2    1    2    0    0  0.23383206353E+02  0.19537632697E+02  0.93923523043E+01  0.59302114211E+02  0.50000310373E+02 0.  0.
         12    1    1    2    0    0 -0.23383206353E+02 -0.19537632697E+02 -0.93923523043E+01  0.31885885789E+02  0.00000000000E+00 0. -1.
         11    1    3    3    0    0 -0.25116153792E+01  0.65321355484E+01  0.20667470104E+02  0.21820204568E+02  0.51100000000E-03 0. -1.
        -11    1    3    3    0    0  0.20377456055E+02  0.18610900749E+02 -0.67610087995E+01  0.28413334584E+02  0.51100000000E-03 0.  1.
         12    1    3    3    0    0  0.55173656768E+01 -0.56054035999E+01 -0.45141090002E+01  0.90685750587E+01  0.00000000000E+00 0. -1.
</event>
<event>
 7    1  0.7755875E-012  0.5930184E+02  0.7816164E-02  0.1266605E+00
        -11   -1    0    0    0    0  0.00000000000E+00  0.00000000000E+00  0.45593999997E+02  0.45594000000E+02  0.51100000000E-03 0. -1.
         11   -1    0    0    0    0 -0.00000000000E+00 -0.00000000000E+00 -0.45593999997E+02  0.45594000000E+02  0.51100000000E-03 0.  1.
    9900012    2    1    2    0    0  0.20031179428E+02 -0.19567550083E+02  0.15250904529E+02  0.59301839139E+02  0.49999808707E+02 0.  0.
         12    1    1    2    0    0 -0.20031179428E+02  0.19567550083E+02 -0.15250904529E+02  0.31886160861E+02  0.00000000000E+00 0. -1.
         11    1    3    3    0    0  0.97702045735E+01  0.36843012733E+00  0.18597260356E+02  0.21010728954E+02  0.51100000000E-03 0. -1.
        -11    1    3    3    0    0 -0.41658327470E+01 -0.20011631868E+02 -0.95809076097E+01  0.22574617680E+02  0.51100000000E-03 0.  1.
        -12    1    3    3    0    0  0.14426807601E+02  0.75651657482E-01  0.62345517822E+01  0.15716492505E+02  0.00000000000E+00 0.  1.
</event>
<event>
 7    1  0.7755875E-012  0.5930193E+02  0.7816164E-02  0.1266605E+00
        -11   -1    0    0    0    0  0.00000000000E+00  0.00000000000E+00  0.45593999997E+02  0.45594000000E+02  0.51100000000E-03 0.  1.
         11   -1    0    0    0    0 -0.00000000000E+00 -0.00000000000E+00 -0.45593999997E+02  0.45594000000E+02  0.51100000000E-03 0. -1.
    9900012    2    1    2    0    0 -0.25692733803E+02 -0.12728113095E+02  0.13949911634E+02  0.59301929878E+02  0.49999974194E+02 0.  0.
         12    1    1    2    0    0  0.25692733803E+02  0.12728113095E+02 -0.13949911634E+02  0.31886070122E+02  0.00000000000E+00 0. -1.
         11    1    3    3    0    0  0.38430613133E+01  0.21837585289E+01 -0.49186576454E+01  0.66129505415E+01  0.51100000000E-03 0. -1.
        -11    1    3    3    0    0 -0.30606949839E+02 -0.16403014958E+02  0.10138033636E+01  0.34740064417E+02  0.51100000000E-03 0.  1.
        -12    1    3    3    0    0  0.10711547229E+01  0.14911433335E+01  0.17854765916E+02  0.17948914920E+02  0.00000000000E+00 0.  1.
</event>
<event>
 7    1  0.7755875E-012  0.5930194E+02  0.7816164E-02  0.1266605E+00
        -11   -1    0    0    0    0  0.00000000000E+00  0.00000000000E+00  0.45593999997E+02  0.45594000000E+02  0.51100000000E-03 0.  1.
         11   -1    0    0    0    0 -0.00000000000E+00 -0.00000000000E+00 -0.45593999997E+02  0.45594000000E+02  0.51100000000E-03 0. -1.
    9900012    2    1    2    0    0  0.28643466174E+02 -0.98636051450E+01  0.99489775382E+01  0.59301936979E+02  0.49999987144E+02 0.  0.
         12    1    1    2    0    0 -0.28643466174E+02  0.98636051450E+01 -0.99489775382E+01  0.31886063021E+02  0.00000000000E+00 0. -1.
         11    1    3    3    0    0  0.23074446295E+02 -0.26065969939E+02  0.26399802816E+01  0.34911808272E+02  0.51100000000E-03 0.  1.
        -11    1    3    3    0    0 -0.46670452981E+01  0.96127045930E+00  0.26351936360E+01  0.54451444857E+01  0.51100000000E-03 0. -1.
         12    1    3    3    0    0  0.10236065177E+02  0.15241094335E+02  0.46738036206E+01  0.18944984221E+02  0.00000000000E+00 0. -1.
</event>
<event>
 7    1  0.7755875E-012  0.5930192E+02  0.7816164E-02  0.1266605E+00
        -11   -1    0    0    0    0  0.00000000000E+00  0.00000000000E+00  0.45593999997E+02  0.45594000000E+02  0.51100000000E-03 0. -1.
         11   -1    0    0    0    0 -0.00000000000E+00 -0.00000000000E+00 -0.45593999997E+02  0.45594000000E+02  0.51100000000E-03 0.  1.
    9900012    2    1    2    0    0 -0.26641055313E+02 -0.93244262684E+01 -0.14833442992E+02  0.59301924914E+02  0.49999965141E+02 0.  0.
         12    1    1    2    0    0  0.26641055313E+02  0.93244262684E+01  0.14833442992E+02  0.31886075086E+02  0.00000000000E+00 0. -1.
         11    1    3    3    0    0 -0.99051671460E+01  0.64171344643E+01  0.33810543463E+01  0.12276949119E+02  0.51100000000E-03 0. -1.
        -11    1    3    3    0    0  0.57435484805E+01 -0.17815713734E+02 -0.15469831562E+02  0.24283815471E+02  0.51100000000E-03 0.  1.
        -12    1    3    3    0    0 -0.22479436647E+02  0.20741530013E+01 -0.27446657760E+01  0.22741160324E+02  0.00000000000E+00 0.  1.
</event>
<event>
 7    1  0.7755875E-012  0.5930193E+02  0.7816164E-02  0.1266605E+00
        -11   -1    0    0    0    0  0.00000000000E+00  0.00000000000E+00  0.45593999997E+02  0.45594000000E+02  0.51100000000E-03 0. -1.
         11   -1    0    0    0    0 -0.00000000000E+00 -0.00000000000E+00 -0.45593999997E+02  0.45594000000E+02  0.51100000000E-03 0.  1.
    9900012    2    1    2    0    0 -0.31620452916E+02 -0.28952527049E+01  0.29130518890E+01  0.59301930908E+02  0.49999976073E+02 0.  0.
         12    1    1    2    0    0  0.31620452916E+02  0.28952527049E+01 -0.29130518890E+01  0.31886069092E+02  0.00000000000E+00 0. -1.
         11    1    3    3    0    0 -0.64411242693E+01 -0.73569205098E+01 -0.17803834605E+02  0.20312284168E+02  0.51100000000E-03 0. -1.
        -11    1    3    3    0    0 -0.13895408961E+02  0.95972010367E+01  0.26739549478E+01  0.17097914880E+02  0.51100000000E-03 0.  1.
         12    1    3    3    0    0 -0.11283919686E+02 -0.51355332318E+01  0.18042931546E+02  0.21891731860E+02  0.00000000000E+00 0. -1.
</event>
<event>
 7    1  0.7755875E-012  0.5930197E+02  0.7816164E-02  0.1266605E+00
        -11   -1    0    0    0    0  0.00000000000E+00  0.00000000000E+00  0.45593999997E+02  0.45594000000E+02  0.51100000000E-03 0.  1.
         11   -1    0    0    0    0 -0.00000000000E+00 -0.00000000000E+00 -0.45593999997E+02  0.45594000000E+02  0.51100000000E-03 0. -1.
    9900012    2    1    2    0    0 -0.19879824966E+02 -0.24829896813E+02 -0.22333173128E+01  0.59301969788E+02  0.50000046981E+02 0.  0.
         12    1    1    2    0    0  0.19879824966E+02  0.24829896813E+02  0.22333173128E+01  0.31886030212E+02  0.00000000000E+00 0. -1.
         11    1    3    3    0    0 -0.24414470045E+02  0.72109243935E+00 -0.50305034201E+01  0.24937768280E+02  0.51100000000E-03 0. -1.
        -11    1    3    3    0    0  0.60005627195E+01 -0.29235499034E+02  0.42396413395E+01  0.30144580204E+02  0.51100000000E-03 0.  1.
         12    1    3    3    0    0 -0.14659176409E+01  0.36845097809E+01 -0.14424552322E+01  0.42196213044E+01  0.00000000000E+00 0. -1.
</event>
<event>
 7    1  0.7755875E-012  0.5930196E+02  0.7816164E-02  0.1266605E+00
        -11   -1    0    0    0    0  0.00000000000E+00  0.00000000000E+00  0.45593999997E+02  0.45594000000E+02  0.51100000000E-03 0.  1.
         11   -1    0    0    0    0 -0.00000000000E+00 -0.00000000000E+00 -0.45593999997E+02  0.45594000000E+02  0.51100000000E-03 0. -1.
    9900012    2    1    2    0    0  0.28927091707E+02 -0.12772437378E+02 -0.40997260868E+01  0.59301960027E+02  0.50000029178E+02 0.  0.
         12    1    1    2    0    0 -0.28927091707E+02  0.12772437378E+02  0.40997260868E+01  0.31886039973E+02  0.00000000000E+00 0. -1.
         11    1    3    3    0    0  0.24544533002E+02  0.11997147731E+01 -0.48822140316E+01  0.25054129998E+02  0.51100000000E-03 0. -1.
        -11    1    3    3    0    0 -0.48476567743E+01 -0.95505401982E+01  0.13939394538E+02  0.17578945208E+02  0.51100000000E-03 0.  1.
        -12    1    3    3    0    0  0.92302154791E+01 -0.44216119530E+01 -0.13156906593E+02  0.16668884821E+02  0.00000000000E+00 0.  1.
</event>
<event>
 7    1  0.7755875E-012  0.5930195E+02  0.7816164E-02  0.1266605E+00
        -11   -1    0    0    0    0  0.00000000000E+00  0.00000000000E+00  0.45593999997E+02  0.45594000000E+02  0.51100000000E-03 0. -1.
         11   -1    0    0    0    0 -0.00000000000E+00 -0.00000000000E+00 -0.45593999997E+02  0.45594000000E+02  0.51100000000E-03 0.  1.
    9900012    2    1    2    0    0  0.86538874282E+01 -0.29582150281E+02 -0.81686355476E+01  0.59301953058E+02  0.50000016470E+02 0.  0.
         12    1    1    2    0    0 -0.86538874282E+01  0.29582150281E+02  0.81686355476E+01  0.31886046942E+02  0.00000000000E+00 0. -1.
         11    1    3    3    0    0 -0.41951961889E+01 -0.19356507055E+02  0.72665358580E+00  0.19819234650E+02  0.51100000000E-03 0. -1.
        -11    1    3    3    0    0  0.69638018209E+01  0.38690355244E+01  0.11507562977E+02  0.13995998629E+02  0.51100000000E-03 0.  1.
        -12    1    3    3    0    0  0.58852817962E+01 -0.14094678750E+02 -0.20402852110E+02  0.25486719780E+02  0.00000000000E+00 0.  1.
</event>
<event>
 7    1  0.7755875E-012  0.5930192E+02  0.7816164E-02  0.1266605E+00
        -11   -1    0    0    0    0  0.00000000000E+00  0.00000000000E+00  0.45593999997E+02  0.45594000000E+02  0.51100000000E-03 0.  1.
         11   -1    0    0    0    0 -0.00000000000E+00 -0.00000000000E+00 -0.45593999997E+02  0.45594000000E+02  0.51100000000E-03 0. -1.
    9900012    2    1    2    0    0  0.90827441591E+00 -0.15849161225E+02  0.27653228489E+02  0.59301922791E+02  0.49999961268E+02 0.  0.
         12    1    1    2    0    0 -0.90827441591E+00  0.15849161225E+02 -0.27653228489E+02  0.31886077209E+02  0.00000000000E+00 0. -1.
         11    1    3    3    0    0  0.40955561951E+01  0.79169287585E+01  0.21828987858E+01  0.91769487786E+01  0.51100000000E-03 0. -1.
        -11    1    3    3    0    0  0.54979930137E+00 -0.31574309695E+02  0.26735401401E+02  0.41376575503E+02  0.51100000000E-03 0.  1.
        -12    1    3    3    0    0 -0.37370810805E+01  0.78082197121E+01 -0.12650716978E+01  0.87483985092E+01  0.00000000000E+00 0.  1.
</event>
<event>
 7    1  0.7755875E-012  0.5930194E+02  0.7816164E-02  0.1266605E+00
        -11   -1    0    0    0    0  0.00000000000E+00  0.00000000000E+00  0.45593999997E+02  0.45594000000E+02  0.51100000000E-03 0. -1.
         11   -1    0    0    0    0 -0.00000000000E+00 -0.00000000000E+00 -0.45593999997E+02  0.45594000000E+02  0.51100000000E-03 0.  1.
    9900012    2    1    2    0    0 -0.58297092293E+01  0.19694908640E+02 -0.24389462476E+02  0.59301940101E+02  0.49999992839E+02 0.  0.
         12    1    1    2    0    0  0.58297092293E+01 -0.19694908640E+02  0.24389462476E+02  0.31886059899E+02  0.00000000000E+00 0. -1.
         11    1    3    3    0    0 -0.81388334923E+01 -0.58198674113E+01 -0.16017033927E+01  0.10132962120E+02  0.51100000000E-03 0. -1.
        -11    1    3    3    0    0  0.14526961855E+02  0.41449076310E+01 -0.18983448444E+02  0.24260754215E+02  0.51100000000E-03 0.  1.
        -12    1    3    3    0    0 -0.12217837592E+02  0.21369868420E+02 -0.38043106391E+01  0.24908223766E+02  0.00000000000E+00 0.  1.
</event>
<event>
 7    1  0.7755875E-012  0.5930195E+02  0.7816164E-02  0.1266605E+00
        -11   -1    0    0    0    0  0.00000000000E+00  0.00000000000E+00  0.45593999997E+02  0.45594000000E+02  0.51100000000E-03 0.  1.
         11   -1    0    0    0    0 -0.00000000000E+00 -0.00000000000E+00 -0.45593999997E+02  0.45594000000E+02  0.51100000000E-03 0. -1.
    9900012    2    1    2    0    0  0.77979990461E+01 -0.15904993364E+02  0.26513060490E+02  0.59301953215E+02  0.50000016755E+02 0.  0.
         12    1    1    2    0    0 -0.77979990461E+01  0.15904993364E+02 -0.26513060490E+02  0.31886046785E+02  0.00000000000E+00 0. -1.
         11    1    3    3    0    0 -0.17827215532E+02  0.45314526813E+01  0.51325636889E+01  0.19096776882E+02  0.51100000000E-03 0. -1.
        -11    1    3    3    0    0  0.15366374564E+02 -0.66846516407E+01  0.87787083806E+01  0.18917604391E+02  0.51100000000E-03 0.  1.
         12    1    3    3    0    0  0.10258840014E+02 -0.13751794405E+02  0.12601788421E+02  0.21287571942E+02  0.00000000000E+00 0. -1.
</event>
<event>
 7    1  0.7755875E-012  0.5930193E+02  0.7816164E-02  0.1266605E+00
        -11   -1    0    0    0    0  0.00000000000E+00  0.00000000000E+00  0.45593999997E+02  0.45594000000E+02  0.51100000000E-03 0. -1.
         11   -1    0    0    0    0 -0.00000000000E+00 -0.00000000000E+00 -0.45593999997E+02  0.45594000000E+02  0.51100000000E-03 0.  1.
    9900012    2    1    2    0    0 -0.19364068150E+02 -0.24272135746E+02 -0.72537909069E+01  0.59301934211E+02  0.49999982096E+02 0.  0.
         12    1    1    2    0    0  0.19364068150E+02  0.24272135746E+02  0.72537909069E+01  0.31886065789E+02  0.00000000000E+00 0. -1.
         11    1    3    3    0    0 -0.94863904935E+01 -0.90187284093E+01  0.55850909369E+01  0.14231033264E+02  0.51100000000E-03 0. -1.
        -11    1    3    3    0    0  0.12912201999E+02 -0.13962102762E+02 -0.11458518753E+02  0.22202768438E+02  0.51100000000E-03 0.  1.
        -12    1    3    3    0    0 -0.22789879655E+02 -0.12913045744E+01 -0.13803630907E+01  0.22868132510E+02  0.00000000000E+00 0.  1.
</event>
<event>
 7    1  0.7755875E-012  0.5930195E+02  0.7816164E-02  0.1266605E+00
        -11   -1    0    0    0    0  0.00000000000E+00  0.00000000000E+00  0.45593999997E+02  0.45594000000E+02  0.51100000000E-03 0.  1.
         11   -1    0    0    0    0 -0.00000000000E+00 -0.00000000000E+00 -0.45593999997E+02  0.45594000000E+02  0.51100000000E-03 0. -1.
    9900012    2    1    2    0    0 -0.21934689981E+02 -0.12206399843E+02 -0.19661977341E+02  0.59301950156E+02  0.50000011177E+02 0.  0.
         12    1    1    2    0    0  0.21934689981E+02  0.12206399843E+02  0.19661977341E+02  0.31886049844E+02  0.00000000000E+00 0. -1.
         11    1    3    3    0    0  0.73975704378E+01  0.54233375580E+01 -0.13368494922E+02  0.16212751013E+02  0.51100000000E-03 0. -1.
        -11    1    3    3    0    0 -0.33352828062E+02 -0.14409255734E+02 -0.87664987073E+01  0.37374982145E+02  0.51100000000E-03 0.  1.
         12    1    3    3    0    0  0.40205676426E+01 -0.32204816674E+01  0.24730162888E+01  0.57142169982E+01  0.00000000000E+00 0. -1.
</event>
<event>
 7    1  0.7755875E-012  0.5930199E+02  0.7816164E-02  0.1266605E+00
        -11   -1    0    0    0    0  0.00000000000E+00  0.00000000000E+00  0.45593999997E+02  0.45594000000E+02  0.51100000000E-03 0. -1.
         11   -1    0    0    0    0 -0.00000000000E+00 -0.00000000000E+00 -0.45593999997E+02  0.45594000000E+02  0.51100000000E-03 0.  1.
    9900012    2    1    2    0    0  0.20514302677E+02 -0.17080955520E+02  0.17439085771E+02  0.59301994162E+02  0.50000091433E+02 0.  0.
         12    1    1    2    0    0 -0.20514302677E+02  0.17080955520E+02 -0.17439085771E+02  0.31886005838E+02  0.00000000000E+00 0. -1.
         11    1    3    3    0    0  0.11473575719E+02  0.14412568675E+02  0.54262984033E+01  0.19204421111E+02  0.51100000000E-03 0. -1.
        -11    1    3    3    0    0  0.66787582514E+01 -0.54315562377E+01 -0.39210312646E+01  0.94594979456E+01  0.51100000000E-03 0.  1.
         12    1    3    3    0    0  0.23619687060E+01 -0.26061967957E+02  0.15933818632E+02  0.30638075105E+02  0.00000000000E+00 0. -1.
</event>
<event>
 7    1  0.7755875E-012  0.5930199E+02  0.7816164E-02  0.1266605E+00
        -11   -1    0    0    0    0  0.00000000000E+00  0.00000000000E+00  0.45593999997E+02  0.45594000000E+02  0.51100000000E-03 0.  1.
         11   -1    0    0    0    0 -0.00000000000E+00 -0.00000000000E+00 -0.45593999997E+02  0.45594000000E+02  0.51100000000E-03 0. -1.
    9900012    2    1    2    0    0 -0.19698898105E+02  0.15923560492E+02  0.19367796263E+02  0.59301985865E+02  0.50000076302E+02 0.  0.
         12    1    1    2    0    0  0.19698898105E+02 -0.15923560492E+02 -0.19367796263E+02  0.31886014135E+02  0.00000000000E+00 0. -1.
         11    1    3    3    0    0 -0.10129856461E+01 -0.55204028904E+01  0.89020696774E+01  0.10523679622E+02  0.51100000000E-03 0. -1.
        -11    1    3    3    0    0  0.89375616812E+01  0.17398734841E+02  0.63096120996E+01  0.20552546995E+02  0.51100000000E-03 0.  1.
        -12    1    3    3    0    0 -0.27623474140E+02  0.40452285420E+01  0.41561144862E+01  0.28225759248E+02  0.00000000000E+00 0.  1.
</event>
<event>
 7    1  0.7755875E-012  0.5930195E+02  0.7816164E-02  0.1266605E+00
        -11   -1    0    0    0    0  0.00000000000E+00  0.00000000000E+00  0.45593999997E+02  0.45594000000E+02  0.51100000000E-03 0. -1.
         11   -1    0    0    0    0 -0.00000000000E+00 -0.00000000000E+00 -0.45593999997E+02  0.45594000000E+02  0.51100000000E-03 0.  1.
    9900012    2    1    2    0    0 -0.11293015991E+02 -0.29528566415E+02  0.41535274263E+01  0.59301949214E+02  0.50000009458E+02 0.  0.
         12    1    1    2    0    0  0.11293015991E+02  0.29528566415E+02 -0.41535274263E+01  0.31886050786E+02  0.00000000000E+00 0. -1.
         11    1    3    3    0    0  0.94778659348E+01 -0.32831079004E+01  0.16706188215E+02  0.19486032565E+02  0.51100000000E-03 0. -1.
        -11    1    3    3    0    0 -0.72983336827E+01  0.10048433720E+01 -0.29584636383E+01  0.79390107763E+01  0.51100000000E-03 0.  1.
         12    1    3    3    0    0 -0.13472548243E+02 -0.27250301886E+02 -0.95941971506E+01  0.31876905873E+02  0.00000000000E+00 0. -1.
</event>
<event>
 7    1  0.7755875E-012  0.5930198E+02  0.7816164E-02  0.1266605E+00
        -11   -1    0    0    0    0  0.00000000000E+00  0.00000000000E+00  0.45593999997E+02  0.45594000000E+02  0.51100000000E-03 0.  1.
         11   -1    0    0    0    0 -0.00000000000E+00 -0.00000000000E+00 -0.45593999997E+02  0.45594000000E+02  0.51100000000E-03 0. -1.
    9900012    2    1    2    0    0  0.66524607104E+00  0.25607803730E+02  0.18987262008E+02  0.59301979822E+02  0.50000065281E+02 0.  0.
         12    1    1    2    0    0 -0.66524607104E+00 -0.25607803730E+02 -0.18987262008E+02  0.31886020178E+02  0.00000000000E+00 0. -1.
         11    1    3    3    0    0  0.10194517220E+02  0.99740616189E+01 -0.13376790351E+02  0.19553736392E+02  0.51100000000E-03 0. -1.
        -11    1    3    3    0    0 -0.62139034761E+01  0.12748347940E+02  0.11030822091E+02  0.17966969913E+02  0.51100000000E-03 0.  1.
         12    1    3    3    0    0 -0.33153676728E+01  0.28853941714E+01  0.21333230268E+02  0.21781273517E+02  0.00000000000E+00 0. -1.
</event>
<event>
 7    1  0.7755875E-012  0.5930194E+02  0.7816164E-02  0.1266605E+00
        -11   -1    0    0    0    0  0.00000000000E+00  0.00000000000E+00  0.45593999997E+02  0.45594000000E+02  0.51100000000E-03 0.  1.
         11   -1    0    0    0    0 -0.00000000000E+00 -0.00000000000E+00 -0.45593999997E+02  0.45594000000E+02  0.51100000000E-03 0. -1.
    9900012    2    1    2    0    0  0.18258889165E+02 -0.25128047432E+02  0.72051937187E+01  0.59301943207E+02  0.49999998504E+02 0.  0.
         12    1    1    2    0    0 -0.18258889165E+02  0.25128047432E+02 -0.72051937187E+01  0.31886056793E+02  0.00000000000E+00 0. -1.
         11    1    3    3    0    0  0.78095272349E+01 -0.26263365650E+02  0.25320753262E+02  0.37308090770E+02  0.51100000000E-03 0.  1.
        -11    1    3    3    0    0  0.74499030382E+01 -0.72753338663E+00 -0.16484646037E+02  0.18104527482E+02  0.51100000000E-03 0. -1.
         12    1    3    3    0    0  0.29994588917E+01  0.18628516047E+01 -0.16309135062E+01  0.38893249554E+01  0.00000000000E+00 0. -1.
</event>
<event>
 7    1  0.7755875E-012  0.5930195E+02  0.7816164E-02  0.1266605E+00
        -11   -1    0    0    0    0  0.00000000000E+00  0.00000000000E+00  0.45593999997E+02  0.45594000000E+02  0.51100000000E-03 0. -1.
         11   -1    0    0    0    0 -0.00000000000E+00 -0.00000000000E+00 -0.45593999997E+02  0.45594000000E+02  0.51100000000E-03 0.  1.
    9900012    2    1    2    0    0  0.31068044678E+02  0.18862116614E+01 -0.69237929888E+01  0.59301951266E+02  0.50000013200E+02 0.  0.
         12    1    1    2    0    0 -0.31068044678E+02 -0.18862116614E+01  0.69237929888E+01  0.31886048734E+02  0.00000000000E+00 0. -1.
         11    1    3    3    0    0  0.44042935466E+01  0.15570721734E+02  0.12278244117E+00  0.16182096673E+02  0.51100000000E-03 0. -1.
        -11    1    3    3    0    0  0.27022216015E+02 -0.20592048511E+02 -0.10896605482E+01  0.33991469233E+02  0.51100000000E-03 0.  1.
        -12    1    3    3    0    0 -0.35846488398E+00  0.69075384387E+01 -0.59569148818E+01  0.91283853591E+01  0.00000000000E+00 0.  1.
</event>
<event>
 7    1  0.7913180E-012  0.5930191E+02  0.7816164E-02  0.1266605E+00
        -11   -1    0    0    0    0  0.00000000000E+00  0.00000000000E+00  0.45593999997E+02  0.45594000000E+02  0.51100000000E-03 0. -1.
         11   -1    0    0    0    0 -0.00000000000E+00 -0.00000000000E+00 -0.45593999997E+02  0.45594000000E+02  0.51100000000E-03 0.  1.
    9900012    2    1    2    0    0  0.16182446438E+02  0.21567058197E+02 -0.17020968515E+02  0.59301906774E+02  0.49999932059E+02 0.  0.
         12    1    1    2    0    0 -0.16182446438E+02 -0.21567058197E+02  0.17020968515E+02  0.31886093226E+02  0.00000000000E+00 0. -1.
         11    1    3    3    0    0 -0.50703121409E+01 -0.10184311094E+02  0.48929244553E+01  0.12384222529E+02  0.51100000000E-03 0. -1.
        -11    1    3    3    0    0  0.24783534011E+01  0.18053042690E+02 -0.10401601742E+02  0.20982085335E+02  0.51100000000E-03 0.  1.
         12    1    3    3    0    0  0.18774405178E+02  0.13698326601E+02 -0.11512291229E+02  0.25935598910E+02  0.00000000000E+00 0. -1.
</event>
<event>
 7    1  0.7755875E-012  0.5930194E+02  0.7816164E-02  0.1266605E+00
        -11   -1    0    0    0    0  0.00000000000E+00  0.00000000000E+00  0.45593999997E+02  0.45594000000E+02  0.51100000000E-03 0.  1.
         11   -1    0    0    0    0 -0.00000000000E+00 -0.00000000000E+00 -0.45593999997E+02  0.45594000000E+02  0.51100000000E-03 0. -1.
    9900012    2    1    2    0    0  0.25767828345E+02  0.11859862684E+02  0.14563077229E+02  0.59301944445E+02  0.50000000760E+02 0.  0.
         12    1    1    2    0    0 -0.25767828345E+02 -0.11859862684E+02 -0.14563077229E+02  0.31886055555E+02  0.00000000000E+00 0. -1.
         11    1    3    3    0    0  0.34893742176E+02  0.13435631658E+02 -0.62597588274E-01  0.37391086636E+02  0.51100000000E-03 0. -1.
        -11    1    3    3    0    0 -0.65644349667E+01  0.53542499856E+01  0.10349667377E+02  0.13374431368E+02  0.51100000000E-03 0.  1.
         12    1    3    3    0    0 -0.25614788641E+01 -0.69300189598E+01  0.42760074402E+01  0.85364264410E+01  0.00000000000E+00 0. -1.
</event>
<event>
 7    1  0.7755875E-012  0.5930194E+02  0.7816164E-02  0.1266605E+00
        -11   -1    0    0    0    0  0.00000000000E+00  0.00000000000E+00  0.45593999997E+02  0.45594000000E+02  0.51100000000E-03 0.  1.
         11   -1    0    0    0    0 -0.00000000000E+00 -0.00000000000E+00 -0.45593999997E+02  0.45594000000E+02  0.51100000000E-03 0. -1.
    9900012    2    1    2    0    0  0.25397040570E+02  0.21173930178E+01  0.19163188386E+02  0.59301940162E+02  0.49999992950E+02 0.  0.
         12    1    1    2    0    0 -0.25397040570E+02 -0.21173930178E+01 -0.19163188386E+02  0.31886059838E+02  0.00000000000E+00 0. -1.
         11    1    3    3    0    0 -0.75256230481E+01  0.97269272413E+01 -0.84574996402E+01  0.14925730007E+02  0.51100000000E-03 0. -1.
        -11    1    3    3    0    0  0.84875007685E+01 -0.46025869168E+01  0.11179189256E+02  0.14771450447E+02  0.51100000000E-03 0.  1.
         12    1    3    3    0    0  0.24435162849E+02 -0.30069473067E+01  0.16441498769E+02  0.29604759708E+02  0.00000000000E+00 0. -1.
</event>
<event>
 7    1  0.7755875E-012  0.5930193E+02  0.7816164E-02  0.1266605E+00
        -11   -1    0    0    0    0  0.00000000000E+00  0.00000000000E+00  0.45593999997E+02  0.45594000000E+02  0.51100000000E-03 0. -1.
         11   -1    0    0    0    0 -0.00000000000E+00 -0.00000000000E+00 -0.45593999997E+02  0.45594000000E+02  0.51100000000E-03 0.  1.
    9900012    2    1    2    0    0 -0.11723049726E+02  0.14986462310E+02 -0.25587062504E+02  0.59301926001E+02  0.49999967124E+02 0.  0.
         12    1    1    2    0    0  0.11723049726E+02 -0.14986462310E+02  0.25587062504E+02  0.31886073999E+02  0.00000000000E+00 0. -1.
         11    1    3    3    0    0 -0.12223147672E+02 -0.33448855873E+00  0.66850283638E+01  0.13935810924E+02  0.51100000000E-03 0. -1.
        -11    1    3    3    0    0  0.50484465150E+00  0.17271559638E+02 -0.49493114555E+01  0.17973795498E+02  0.51100000000E-03 0.  1.
        -12    1    3    3    0    0 -0.47467051913E-02 -0.19506087694E+01 -0.27322779413E+02  0.27392319579E+02  0.00000000000E+00 0.  1.
</event>
<event>
 7    1  0.7755875E-012  0.5930194E+02  0.7816164E-02  0.1266605E+00
        -11   -1    0    0    0    0  0.00000000000E+00  0.00000000000E+00  0.45593999997E+02  0.45594000000E+02  0.51100000000E-03 0.  1.
         11   -1    0    0    0    0 -0.00000000000E+00 -0.00000000000E+00 -0.45593999997E+02  0.45594000000E+02  0.51100000000E-03 0. -1.
    9900012    2    1    2    0    0  0.14842198743E+02 -0.26249033500E+02  0.10364273255E+02  0.59301940612E+02  0.49999993770E+02 0.  0.
         12    1    1    2    0    0 -0.14842198743E+02  0.26249033500E+02 -0.10364273255E+02  0.31886059388E+02  0.00000000000E+00 0. -1.
         11    1    3    3    0    0 -0.13288960790E+02 -0.21804864958E+02  0.11108292080E+02  0.27846773025E+02  0.51100000000E-03 0. -1.
        -11    1    3    3    0    0  0.24542850322E+02 -0.45942131539E+01  0.42250530910E+01  0.25324086762E+02  0.51100000000E-03 0.  1.
         12    1    3    3    0    0  0.35883092105E+01  0.15004461185E+00 -0.49690719155E+01  0.61310808246E+01  0.00000000000E+00 0. -1.
</event>
<event>
 7    1  0.7755875E-012  0.5930193E+02  0.7816164E-02  0.1266605E+00
        -11   -1    0    0    0    0  0.00000000000E+00  0.00000000000E+00  0.45593999997E+02  0.45594000000E+02  0.51100000000E-03 0.  1.
         11   -1    0    0    0    0 -0.00000000000E+00 -0.00000000000E+00 -0.45593999997E+02  0.45594000000E+02  0.51100000000E-03 0. -1.
    9900012    2    1    2    0    0  0.76201332950E+01 -0.30821655938E+02  0.29462572472E+01  0.59301931915E+02  0.49999977909E+02 0.  0.
         12    1    1    2    0    0 -0.76201332950E+01  0.30821655938E+02 -0.29462572472E+01  0.31886068085E+02  0.00000000000E+00 0. -1.
         11    1    3    3    0    0  0.21825440743E+02 -0.14952177457E+02 -0.96346062191E+01  0.28155694124E+02  0.51100000000E-03 0. -1.
        -11    1    3    3    0    0 -0.61724078279E+01 -0.15026077347E+02  0.15601281836E+02  0.22522913089E+02  0.51100000000E-03 0.  1.
         12    1    3    3    0    0 -0.80328996205E+01 -0.84340113415E+00 -0.30204183699E+01  0.86233247020E+01  0.00000000000E+00 0. -1.
</event>
<event>
 7    1  0.7755875E-012  0.5930190E+02  0.7816164E-02  0.1266605E+00
        -11   -1    0    0    0    0  0.00000000000E+00  0.00000000000E+00  0.45593999997E+02  0.45594000000E+02  0.51100000000E-03 0.  1.
         11   -1    0    0    0    0 -0.00000000000E+00 -0.00000000000E+00 -0.45593999997E+02  0.45594000000E+02  0.51100000000E-03 0. -1.
    9900012    2    1    2    0    0  0.19004185142E+02 -0.17522586933E+02  0.18668774192E+02  0.59301902159E+02  0.49999923641E+02 0.  0.
         12    1    1    2    0    0 -0.19004185142E+02  0.17522586933E+02 -0.18668774192E+02  0.31886097841E+02  0.00000000000E+00 0. -1.
         11    1    3    3    0    0 -0.71018462571E+01  0.76684997637E+01 -0.31918932388E+01  0.10928416701E+02  0.51100000000E-03 0. -1.
        -11    1    3    3    0    0  0.20590637543E+02 -0.27245796630E+02  0.24390930819E+02  0.41966954797E+02  0.51100000000E-03 0.  1.
        -12    1    3    3    0    0  0.55153938552E+01  0.20547099336E+01 -0.25302633880E+01  0.64065306604E+01  0.00000000000E+00 0.  1.
</event>
<event>
 7    1  0.7755875E-012  0.5930189E+02  0.7816164E-02  0.1266605E+00
        -11   -1    0    0    0    0  0.00000000000E+00  0.00000000000E+00  0.45593999997E+02  0.45594000000E+02  0.51100000000E-03 0.  1.
         11   -1    0    0    0    0 -0.00000000000E+00 -0.00000000000E+00 -0.45593999997E+02  0.45594000000E+02  0.51100000000E-03 0. -1.
    9900012    2    1    2    0    0 -0.18575143971E+02 -0.78757986731E+01  0.24691296727E+02  0.59301885273E+02  0.49999892846E+02 0.  0.
         12    1    1    2    0    0  0.18575143971E+02  0.78757986731E+01 -0.24691296727E+02  0.31886114727E+02  0.00000000000E+00 0. -1.
         11    1    3    3    0    0  0.60108719458E+01 -0.22560986022E+01  0.21953379558E+02  0.22872941147E+02  0.51100000000E-03 0. -1.
        -11    1    3    3    0    0 -0.28007613577E+02 -0.10064029452E+02 -0.84583934532E+00  0.29772916410E+02  0.51100000000E-03 0.  1.
        -12    1    3    3    0    0  0.34215976602E+01  0.44443293812E+01  0.35837565149E+01  0.66560277159E+01  0.00000000000E+00 0.  1.
</event>
<event>
 7    1  0.7755875E-012  0.5930195E+02  0.7816164E-02  0.1266605E+00
        -11   -1    0    0    0    0  0.00000000000E+00  0.00000000000E+00  0.45593999997E+02  0.45594000000E+02  0.51100000000E-03 0.  1.
         11   -1    0    0    0    0 -0.00000000000E+00 -0.00000000000E+00 -0.45593999997E+02  0.45594000000E+02  0.51100000000E-03 0. -1.
    9900012    2    1    2    0    0  0.13190747622E+02  0.14824762119E+01  0.28991839454E+02  0.59301947979E+02  0.50000007206E+02 0.  0.
         12    1    1    2    0    0 -0.13190747622E+02 -0.14824762119E+01 -0.28991839454E+02  0.31886052021E+02  0.00000000000E+00 0. -1.
         11    1    3    3    0    0  0.18393713859E+02  0.23746888844E+01 -0.80154166660E+01  0.20204325315E+02  0.51100000000E-03 0. -1.
        -11    1    3    3    0    0 -0.55291571111E+01  0.45150999848E+01  0.19172490882E+02  0.20458301814E+02  0.51100000000E-03 0.  1.
        -12    1    3    3    0    0  0.32619087350E+00 -0.54073126574E+01  0.17834765239E+02  0.18639320851E+02  0.00000000000E+00 0.  1.
</event>
<event>
 7    1  0.7755875E-012  0.5930193E+02  0.7816164E-02  0.1266605E+00
        -11   -1    0    0    0    0  0.00000000000E+00  0.00000000000E+00  0.45593999997E+02  0.45594000000E+02  0.51100000000E-03 0.  1.
         11   -1    0    0    0    0 -0.00000000000E+00 -0.00000000000E+00 -0.45593999997E+02  0.45594000000E+02  0.51100000000E-03 0. -1.
    9900012    2    1    2    0    0 -0.64152401763E+01  0.70082376696E+00  0.31226186342E+02  0.59301934486E+02  0.49999982598E+02 0.  0.
         12    1    1    2    0    0  0.64152401763E+01 -0.70082376696E+00 -0.31226186342E+02  0.31886065514E+02  0.00000000000E+00 0. -1.
         11    1    3    3    0    0  0.53748467307E+01  0.17084185664E+02  0.55944830041E+01  0.18763171841E+02  0.51100000000E-03 0. -1.
        -11    1    3    3    0    0 -0.94543895184E+01 -0.83810396366E+01  0.28934064290E+02  0.31572256542E+02  0.51100000000E-03 0.  1.
        -12    1    3    3    0    0 -0.23356973886E+01 -0.80023222604E+01 -0.33023609515E+01  0.89665061035E+01  0.00000000000E+00 0.  1.
</event>
<event>
 7    1  0.7755875E-012  0.5930192E+02  0.7816164E-02  0.1266605E+00
        -11   -1    0    0    0    0  0.00000000000E+00  0.00000000000E+00  0.45593999997E+02  0.45594000000E+02  0.51100000000E-03 0.  1.
         11   -1    0    0    0    0 -0.00000000000E+00 -0.00000000000E+00 -0.45593999997E+02  0.45594000000E+02  0.51100000000E-03 0. -1.
    9900012    2    1    2    0    0  0.27586735088E+02  0.72175380316E+01 -0.14268888239E+02  0.59301921853E+02  0.49999959558E+02 0.  0.
         12    1    1    2    0    0 -0.27586735088E+02 -0.72175380316E+01  0.14268888239E+02  0.31886078147E+02  0.00000000000E+00 0. -1.
         11    1    3    3    0    0  0.42306706401E+01 -0.22596576005E+01 -0.14812372646E+02  0.15569553950E+02  0.51100000000E-03 0. -1.
        -11    1    3    3    0    0  0.29301619469E+02  0.14764767869E+02 -0.60918746843E+01  0.33372057341E+02  0.51100000000E-03 0.  1.
        -12    1    3    3    0    0 -0.59455550218E+01 -0.52875722365E+01  0.66353590910E+01  0.10360310562E+02  0.00000000000E+00 0.  1.
</event>
<event>
 7    1  0.7755875E-012  0.5930195E+02  0.7816164E-02  0.1266605E+00
        -11   -1    0    0    0    0  0.00000000000E+00  0.00000000000E+00  0.45593999997E+02  0.45594000000E+02  0.51100000000E-03 0. -1.
         11   -1    0    0    0    0 -0.00000000000E+00 -0.00000000000E+00 -0.45593999997E+02  0.45594000000E+02  0.51100000000E-03 0.  1.
    9900012    2    1    2    0    0  0.14103050365E+02  0.28554370318E+02 -0.15723884196E+01  0.59301945067E+02  0.50000001895E+02 0.  0.
         12    1    1    2    0    0 -0.14103050365E+02 -0.28554370318E+02  0.15723884196E+01  0.31886054933E+02  0.00000000000E+00 0. -1.
         11    1    3    3    0    0 -0.11415936382E+02  0.11587264058E+02 -0.38077980724E+01  0.16705915666E+02  0.51100000000E-03 0. -1.
        -11    1    3    3    0    0  0.17932317992E+02  0.19124522200E+02  0.12990553801E+02  0.29258671642E+02  0.51100000000E-03 0.  1.
        -12    1    3    3    0    0  0.75866687553E+01 -0.21574159398E+01 -0.10755144148E+02  0.13337357759E+02  0.00000000000E+00 0.  1.
</event>
<event>
 7    1  0.7755875E-012  0.5930193E+02  0.7816164E-02  0.1266605E+00
        -11   -1    0    0    0    0  0.00000000000E+00  0.00000000000E+00  0.45593999997E+02  0.45594000000E+02  0.51100000000E-03 0.  1.
         11   -1    0    0    0    0 -0.00000000000E+00 -0.00000000000E+00 -0.45593999997E+02  0.45594000000E+02  0.51100000000E-03 0. -1.
    9900012    2    1    2    0    0 -0.24089755908E+02 -0.19110350397E+02 -0.84379997476E+01  0.59301926681E+02  0.49999968363E+02 0.  0.
         12    1    1    2    0    0  0.24089755908E+02  0.19110350397E+02  0.84379997476E+01  0.31886073319E+02  0.00000000000E+00 0. -1.
         11    1    3    3    0    0  0.43403107981E+01 -0.25903546669E+02 -0.96124275222E+01  0.27968389138E+02  0.51100000000E-03 0. -1.
        -11    1    3    3    0    0 -0.14847486713E+02  0.79877802355E+01 -0.28898911464E+01  0.17105670577E+02  0.51100000000E-03 0.  1.
         12    1    3    3    0    0 -0.13582579993E+02 -0.11945839636E+01  0.40643189210E+01  0.14227866966E+02  0.00000000000E+00 0. -1.
</event>
<event>
 7    1  0.7755875E-012  0.5930195E+02  0.7816164E-02  0.1266605E+00
        -11   -1    0    0    0    0  0.00000000000E+00  0.00000000000E+00  0.45593999997E+02  0.45594000000E+02  0.51100000000E-03 0. -1.
         11   -1    0    0    0    0 -0.00000000000E+00 -0.00000000000E+00 -0.45593999997E+02  0.45594000000E+02  0.51100000000E-03 0.  1.
    9900012    2    1    2    0    0  0.21691023669E+02  0.47755213057E+01 -0.22878249588E+02  0.59301946375E+02  0.50000004280E+02 0.  0.
         12    1    1    2    0    0 -0.21691023669E+02 -0.47755213057E+01  0.22878249588E+02  0.31886053625E+02  0.00000000000E+00 0. -1.
         11    1    3    3    0    0 -0.14136613721E+02 -0.68142510069E+01 -0.33468643082E+01  0.16046163567E+02  0.51100000000E-03 0. -1.
        -11    1    3    3    0    0  0.16959766644E+02  0.42279267318E+01 -0.45427475720E+01  0.18059501788E+02  0.51100000000E-03 0.  1.
         12    1    3    3    0    0  0.18867870746E+02  0.73618455808E+01 -0.14988637708E+02  0.25196281019E+02  0.00000000000E+00 0. -1.
</event>
<event>
 7    1  0.7755875E-012  0.5930194E+02  0.7816164E-02  0.1266605E+00
        -11   -1    0    0    0    0  0.00000000000E+00  0.00000000000E+00  0.45593999997E+02  0.45594000000E+02  0.51100000000E-03 0.  1.
         11   -1    0    0    0    0 -0.00000000000E+00 -0.00000000000E+00 -0.45593999997E+02  0.45594000000E+02  0.51100000000E-03 0. -1.
    9900012    2    1    2    0    0 -0.14829557215E+01  0.28549349500E+01  0.31723347417E+02  0.59301943759E+02  0.49999999511E+02 0.  0.
         12    1    1    2    0    0  0.14829557215E+01 -0.28549349500E+01 -0.31723347417E+02  0.31886056241E+02  0.00000000000E+00 0. -1.
         11    1    3    3    0    0 -0.53284287520E+01  0.40705639885E+01 -0.59884754399E+01  0.89901881240E+01  0.51100000000E-03 0. -1.
        -11    1    3    3    0    0  0.47690514068E+01 -0.16859302115E+02  0.17848389301E+02  0.25010896026E+02  0.51100000000E-03 0.  1.
        -12    1    3    3    0    0 -0.92357837633E+00  0.15643673076E+02  0.19863433555E+02  0.25300859609E+02  0.00000000000E+00 0.  1.
</event>
<event>
 7    1  0.7755875E-012  0.5930206E+02  0.7816164E-02  0.1266604E+00
        -11   -1    0    0    0    0  0.00000000000E+00  0.00000000000E+00  0.45593999997E+02  0.45594000000E+02  0.51100000000E-03 0. -1.
         11   -1    0    0    0    0 -0.00000000000E+00 -0.00000000000E+00 -0.45593999997E+02  0.45594000000E+02  0.51100000000E-03 0.  1.
    9900012    2    1    2    0    0  0.29544193810E+02 -0.30263351008E+01 -0.11605815166E+02  0.59302062070E+02  0.50000215279E+02 0.  0.
         12    1    1    2    0    0 -0.29544193810E+02  0.30263351008E+01  0.11605815166E+02  0.31885937930E+02  0.00000000000E+00 0. -1.
         11    1    3    3    0    0  0.16445891775E+02 -0.83685895866E+01  0.99035305224E+01  0.20942315178E+02  0.51100000000E-03 0. -1.
        -11    1    3    3    0    0  0.17481033149E+02  0.13105965114E+02 -0.10639113244E+02  0.24301102287E+02  0.51100000000E-03 0.  1.
        -12    1    3    3    0    0 -0.43827311129E+01 -0.77637106278E+01 -0.10870232445E+02  0.14058644605E+02  0.00000000000E+00 0.  1.
</event>
<event>
 7    1  0.7755875E-012  0.5930195E+02  0.7816164E-02  0.1266605E+00
        -11   -1    0    0    0    0  0.00000000000E+00  0.00000000000E+00  0.45593999997E+02  0.45594000000E+02  0.51100000000E-03 0.  1.
         11   -1    0    0    0    0 -0.00000000000E+00 -0.00000000000E+00 -0.45593999997E+02  0.45594000000E+02  0.51100000000E-03 0. -1.
    9900012    2    1    2    0    0 -0.36227105910E+01  0.28050873230E+02  0.14722261433E+02  0.59301945013E+02  0.50000001796E+02 0.  0.
         12    1    1    2    0    0  0.36227105910E+01 -0.28050873230E+02 -0.14722261433E+02  0.31886054987E+02  0.00000000000E+00 0. -1.
         11    1    3    3    0    0 -0.18148748113E+02 -0.85214001186E+00 -0.34648186367E+01  0.18496166335E+02  0.51100000000E-03 0. -1.
        -11    1    3    3    0    0  0.78908998147E+01  0.16417837237E+02  0.19404403765E+02  0.26614705806E+02  0.51100000000E-03 0.  1.
         12    1    3    3    0    0  0.66351377071E+01  0.12485176004E+02 -0.12173236952E+01  0.14191072871E+02  0.00000000000E+00 0. -1.
</event>
<event>
 7    1  0.7755875E-012  0.5930197E+02  0.7816164E-02  0.1266605E+00
        -11   -1    0    0    0    0  0.00000000000E+00  0.00000000000E+00  0.45593999997E+02  0.45594000000E+02  0.51100000000E-03 0. -1.
         11   -1    0    0    0    0 -0.00000000000E+00 -0.00000000000E+00 -0.45593999997E+02  0.45594000000E+02  0.51100000000E-03 0.  1.
    9900012    2    1    2    0    0  0.23671694315E+02  0.14694395904E+02 -0.15506283166E+02  0.59301965435E+02  0.50000039041E+02 0.  0.
         12    1    1    2    0    0 -0.23671694315E+02 -0.14694395904E+02  0.15506283166E+02  0.31886034565E+02  0.00000000000E+00 0. -1.
         11    1    3    3    0    0  0.28151354377E+02  0.21783809529E+02 -0.24655342129E+02  0.43300334948E+02  0.51100000000E-03 0.  1.
        -11    1    3    3    0    0 -0.75217723487E+01 -0.33880868969E+01  0.48824442508E+01  0.95861595130E+01  0.51100000000E-03 0. -1.
         12    1    3    3    0    0  0.30421122858E+01 -0.37013267278E+01  0.42666147127E+01  0.64154709735E+01  0.00000000000E+00 0. -1.
</event>
<event>
 7    1  0.7755875E-012  0.5930196E+02  0.7816164E-02  0.1266605E+00
        -11   -1    0    0    0    0  0.00000000000E+00  0.00000000000E+00  0.45593999997E+02  0.45594000000E+02  0.51100000000E-03 0.  1.
         11   -1    0    0    0    0 -0.00000000000E+00 -0.00000000000E+00 -0.45593999997E+02  0.45594000000E+02  0.51100000000E-03 0. -1.
    9900012    2    1    2    0    0 -0.16098977841E+01 -0.29766507306E+02  0.11317357849E+02  0.59301963609E+02  0.50000035711E+02 0.  0.
         12    1    1    2    0    0  0.16098977841E+01  0.29766507306E+02 -0.11317357849E+02  0.31886036391E+02  0.00000000000E+00 0. -1.
         11    1    3    3    0    0 -0.89440879562E+01 -0.35035679531E+01  0.18473233048E+02  0.20821432162E+02  0.51100000000E-03 0. -1.
        -11    1    3    3    0    0  0.70974732478E+01 -0.29026885814E+02  0.96636687046E+00  0.29897626858E+02  0.51100000000E-03 0.  1.
         12    1    3    3    0    0  0.23671692429E+00  0.27639464614E+01 -0.81222420693E+01  0.85829045885E+01  0.00000000000E+00 0. -1.
</event>
<event>
 7    1  0.7755875E-012  0.5930195E+02  0.7816164E-02  0.1266605E+00
        -11   -1    0    0    0    0  0.00000000000E+00  0.00000000000E+00  0.45593999997E+02  0.45594000000E+02  0.51100000000E-03 0. -1.
         11   -1    0    0    0    0 -0.00000000000E+00 -0.00000000000E+00 -0.45593999997E+02  0.45594000000E+02  0.51100000000E-03 0.  1.
    9900012    2    1    2    0    0  0.20701393097E+02  0.22573491740E+02 -0.88662352887E+01  0.59301947663E+02  0.50000006629E+02 0.  0.
         12    1    1    2    0    0 -0.20701393097E+02 -0.22573491740E+02  0.88662352887E+01  0.31886052337E+02  0.00000000000E+00 0. -1.
         11    1    3    3    0    0  0.22143822446E+02  0.77415043941E+01 -0.21287802508E+02  0.31677283638E+02  0.51100000000E-03 0.  1.
        -11    1    3    3    0    0 -0.51632316223E+01  0.17629769871E+02  0.53054574846E+01  0.19121078052E+02  0.51100000000E-03 0. -1.
        -12    1    3    3    0    0  0.37208022729E+01 -0.27977825259E+01  0.71161097350E+01  0.85035859716E+01  0.00000000000E+00 0.  1.
</event>
<event>
 7    1  0.7755875E-012  0.5930194E+02  0.7816164E-02  0.1266605E+00
        -11   -1    0    0    0    0  0.00000000000E+00  0.00000000000E+00  0.45593999997E+02  0.45594000000E+02  0.51100000000E-03 0. -1.
         11   -1    0    0    0    0 -0.00000000000E+00 -0.00000000000E+00 -0.45593999997E+02  0.45594000000E+02  0.51100000000E-03 0.  1.
    9900012    2    1    2    0    0 -0.22156438312E+01  0.28994417603E+02  0.13081879159E+02  0.59301938907E+02  0.49999990660E+02 0.  0.
         12    1    1    2    0    0  0.22156438312E+01 -0.28994417603E+02 -0.13081879159E+02  0.31886061093E+02  0.00000000000E+00 0. -1.
         11    1    3    3    0    0 -0.24706460608E+01  0.60118141550E+01  0.23767574451E+02  0.24640284027E+02  0.51100000000E-03 0. -1.
        -11    1    3    3    0    0  0.10099998728E+02  0.16515515611E+02 -0.95407353181E+00  0.19382530453E+02  0.51100000000E-03 0.  1.
         12    1    3    3    0    0 -0.98449964980E+01  0.64670878374E+01 -0.97316217609E+01  0.15279124426E+02  0.00000000000E+00 0. -1.
</event>
<event>
 7    1  0.7755875E-012  0.5930196E+02  0.7816164E-02  0.1266605E+00
        -11   -1    0    0    0    0  0.00000000000E+00  0.00000000000E+00  0.45593999997E+02  0.45594000000E+02  0.51100000000E-03 0.  1.
         11   -1    0    0    0    0 -0.00000000000E+00 -0.00000000000E+00 -0.45593999997E+02  0.45594000000E+02  0.51100000000E-03 0. -1.
    9900012    2    1    2    0    0  0.31501470341E+02  0.33723688368E+01 -0.36060682895E+01  0.59301964911E+02  0.50000038085E+02 0.  0.
         12    1    1    2    0    0 -0.31501470341E+02 -0.33723688368E+01  0.36060682895E+01  0.31886035089E+02  0.00000000000E+00 0. -1.
         11    1    3    3    0    0  0.15171272762E+02 -0.10799173648E+02 -0.21298252674E+02  0.28291433967E+02  0.51100000000E-03 0. -1.
        -11    1    3    3    0    0  0.15957057826E+02  0.56840994127E+01  0.11024285447E+02  0.20210679119E+02  0.51100000000E-03 0.  1.
         12    1    3    3    0    0  0.37313975310E+00  0.84874430720E+01  0.66678989373E+01  0.10799851824E+02  0.00000000000E+00 0. -1.
</event>
<event>
 7    1  0.7755875E-012  0.5930195E+02  0.7816164E-02  0.1266605E+00
        -11   -1    0    0    0    0  0.00000000000E+00  0.00000000000E+00  0.45593999997E+02  0.45594000000E+02  0.51100000000E-03 0.  1.
         11   -1    0    0    0    0 -0.00000000000E+00 -0.00000000000E+00 -0.45593999997E+02  0.45594000000E+02  0.51100000000E-03 0. -1.
    9900012    2    1    2    0    0  0.16105335484E+02 -0.59705283370E+01  0.26864305134E+02  0.59301953992E+02  0.50000018173E+02 0.  0.
         12    1    1    2    0    0 -0.16105335484E+02  0.59705283370E+01 -0.26864305134E+02  0.31886046008E+02  0.00000000000E+00 0. -1.
         11    1    3    3    0    0 -0.11333269074E+02  0.10998713306E+02  0.11940643780E+02  0.19798829674E+02  0.51100000000E-03 0. -1.
        -11    1    3    3    0    0  0.18417787798E+02 -0.17589899625E+02  0.16470254462E+02  0.30329667959E+02  0.51100000000E-03 0.  1.
         12    1    3    3    0    0  0.90208167596E+01  0.62065798184E+00 -0.15465931068E+01  0.91734563595E+01  0.00000000000E+00 0. -1.
</event>
<event>
 7    1  0.7755875E-012  0.5930195E+02  0.7816164E-02  0.1266605E+00
        -11   -1    0    0    0    0  0.00000000000E+00  0.00000000000E+00  0.45593999997E+02  0.45594000000E+02  0.51100000000E-03 0. -1.
         11   -1    0    0    0    0 -0.00000000000E+00 -0.00000000000E+00 -0.45593999997E+02  0.45594000000E+02  0.51100000000E-03 0.  1.
    9900012    2    1    2    0    0  0.20817036327E+02 -0.24043144338E+02 -0.23017617182E+01  0.59301954493E+02  0.50000019085E+02 0.  0.
         12    1    1    2    0    0 -0.20817036327E+02  0.24043144338E+02  0.23017617182E+01  0.31886045507E+02  0.00000000000E+00 0. -1.
         11    1    3    3    0    0 -0.13704318325E+02 -0.60839653955E+01 -0.36880043252E+00  0.14998632928E+02  0.51100000000E-03 0. -1.
        -11    1    3    3    0    0  0.92392049856E+01 -0.11254774458E+02 -0.91153268220E+01  0.17179116398E+02  0.51100000000E-03 0.  1.
         12    1    3    3    0    0  0.25282149666E+02 -0.67044044841E+01  0.71823655363E+01  0.27124205167E+02  0.00000000000E+00 0. -1.
</event>
<event>
 7    1  0.7755875E-012  0.5930195E+02  0.7816164E-02  0.1266605E+00
        -11   -1    0    0    0    0  0.00000000000E+00  0.00000000000E+00  0.45593999997E+02  0.45594000000E+02  0.51100000000E-03 0. -1.
         11   -1    0    0    0    0 -0.00000000000E+00 -0.00000000000E+00 -0.45593999997E+02  0.45594000000E+02  0.51100000000E-03 0.  1.
    9900012    2    1    2    0    0  0.21804554855E+02  0.53792511501E+01 -0.22635046080E+02  0.59301948717E+02  0.50000008552E+02 0.  0.
         12    1    1    2    0    0 -0.21804554855E+02 -0.53792511501E+01  0.22635046080E+02  0.31886051283E+02  0.00000000000E+00 0. -1.
         11    1    3    3    0    0  0.43711562784E+00 -0.79923432085E+01 -0.60890239598E+01  0.10057078755E+02  0.51100000000E-03 0. -1.
        -11    1    3    3    0    0 -0.78020146477E+01  0.13946223750E+02 -0.58903590664E+00  0.15991108561E+02  0.51100000000E-03 0.  1.
        -12    1    3    3    0    0  0.29169453875E+02 -0.57462939118E+00 -0.15956986214E+02  0.33253761401E+02  0.00000000000E+00 0.  1.
</event>
<event>
 7    1  0.7755875E-012  0.5930187E+02  0.7816164E-02  0.1266605E+00
        -11   -1    0    0    0    0  0.00000000000E+00  0.00000000000E+00  0.45593999997E+02  0.45594000000E+02  0.51100000000E-03 0.  1.
         11   -1    0    0    0    0 -0.00000000000E+00 -0.00000000000E+00 -0.45593999997E+02  0.45594000000E+02  0.51100000000E-03 0. -1.
    9900012    2    1    2    0    0  0.15904163658E+01 -0.28564998252E+02  0.14079666761E+02  0.59301865624E+02  0.49999857010E+02 0.  0.
         12    1    1    2    0    0 -0.15904163658E+01  0.28564998252E+02 -0.14079666761E+02  0.31886134376E+02  0.00000000000E+00 0. -1.
         11    1    3    3    0    0  0.11354222478E+02 -0.30151520382E+02  0.59117153377E+01  0.32756387589E+02  0.51100000000E-03 0. -1.
        -11    1    3    3    0    0 -0.28888603903E+01  0.12126697232E+02  0.57626193704E+01  0.13733538597E+02  0.51100000000E-03 0.  1.
        -12    1    3    3    0    0 -0.68749457220E+01 -0.10540175103E+02  0.24053320531E+01  0.12811939438E+02  0.00000000000E+00 0.  1.
</event>
<event>
 7    1  0.7755875E-012  0.5930193E+02  0.7816164E-02  0.1266605E+00
        -11   -1    0    0    0    0  0.00000000000E+00  0.00000000000E+00  0.45593999997E+02  0.45594000000E+02  0.51100000000E-03 0.  1.
         11   -1    0    0    0    0 -0.00000000000E+00 -0.00000000000E+00 -0.45593999997E+02  0.45594000000E+02  0.51100000000E-03 0. -1.
    9900012    2    1    2    0    0  0.11584942786E+02 -0.67244716948E+00  0.29699467017E+02  0.59301930539E+02  0.49999975400E+02 0.  0.
         12    1    1    2    0    0 -0.11584942786E+02  0.67244716948E+00 -0.29699467017E+02  0.31886069461E+02  0.00000000000E+00 0. -1.
         11    1    3    3    0    0  0.11627359504E+02  0.15085673637E+02  0.14408683264E+02  0.23882696493E+02  0.51100000000E-03 0. -1.
        -11    1    3    3    0    0 -0.70104388928E+01 -0.12490702436E+01  0.17760965603E+02  0.19135264026E+02  0.51100000000E-03 0.  1.
         12    1    3    3    0    0  0.69680221740E+01 -0.14509050563E+02 -0.24701818488E+01  0.16283970020E+02  0.00000000000E+00 0. -1.
</event>
<event>
 7    1  0.7755875E-012  0.5930193E+02  0.7816164E-02  0.1266605E+00
        -11   -1    0    0    0    0  0.00000000000E+00  0.00000000000E+00  0.45593999997E+02  0.45594000000E+02  0.51100000000E-03 0.  1.
         11   -1    0    0    0    0 -0.00000000000E+00 -0.00000000000E+00 -0.45593999997E+02  0.45594000000E+02  0.51100000000E-03 0. -1.
    9900012    2    1    2    0    0 -0.52508480160E+01  0.31203439525E+02  0.39363978107E+01  0.59301932967E+02  0.49999979828E+02 0.  0.
         12    1    1    2    0    0  0.52508480160E+01 -0.31203439525E+02 -0.39363978107E+01  0.31886067033E+02  0.00000000000E+00 0. -1.
         11    1    3    3    0    0  0.86395131305E+01  0.38245040906E+01 -0.11761769573E+01  0.95211034638E+01  0.51100000000E-03 0. -1.
        -11    1    3    3    0    0 -0.17924500354E+02  0.13843906086E+02  0.19304258043E+02  0.29758962138E+02  0.51100000000E-03 0.  1.
        -12    1    3    3    0    0  0.40341392075E+01  0.13535029349E+02 -0.14191683275E+02  0.20021867366E+02  0.00000000000E+00 0.  1.
</event>
<event>
 7    1  0.7755875E-012  0.5930194E+02  0.7816164E-02  0.1266605E+00
        -11   -1    0    0    0    0  0.00000000000E+00  0.00000000000E+00  0.45593999997E+02  0.45594000000E+02  0.51100000000E-03 0.  1.
         11   -1    0    0    0    0 -0.00000000000E+00 -0.00000000000E+00 -0.45593999997E+02  0.45594000000E+02  0.51100000000E-03 0. -1.
    9900012    2    1    2    0    0  0.17037204475E+02 -0.80320338164E+01  0.25728212007E+02  0.59301940403E+02  0.49999993389E+02 0.  0.
         12    1    1    2    0    0 -0.17037204475E+02  0.80320338164E+01 -0.25728212007E+02  0.31886059597E+02  0.00000000000E+00 0. -1.
         11    1    3    3    0    0  0.12738330681E+02  0.14577432448E+02  0.15263776217E+02  0.24652575321E+02  0.51100000000E-03 0. -1.
        -11    1    3    3    0    0 -0.80017423627E+01 -0.18097603545E+02  0.78569192821E+01  0.21290427797E+02  0.51100000000E-03 0.  1.
        -12    1    3    3    0    0  0.12300616157E+02 -0.45118627194E+01  0.26075165081E+01  0.13358937285E+02  0.00000000000E+00 0.  1.
</event>
<event>
 7    1  0.7755875E-012  0.5930197E+02  0.7816164E-02  0.1266605E+00
        -11   -1    0    0    0    0  0.00000000000E+00  0.00000000000E+00  0.45593999997E+02  0.45594000000E+02  0.51100000000E-03 0. -1.
         11   -1    0    0    0    0 -0.00000000000E+00 -0.00000000000E+00 -0.45593999997E+02  0.45594000000E+02  0.51100000000E-03 0.  1.
    9900012    2    1    2    0    0 -0.14654397042E+02 -0.21572593577E+02 -0.18346409549E+02  0.59301970306E+02  0.50000047925E+02 0.  0.
         12    1    1    2    0    0  0.14654397042E+02  0.21572593577E+02  0.18346409549E+02  0.31886029694E+02  0.00000000000E+00 0. -1.
         11    1    3    3    0    0 -0.23470075507E+01 -0.79866923664E+01  0.82343886051E+01  0.11709007446E+02  0.51100000000E-03 0.  1.
        -11    1    3    3    0    0 -0.10772141991E+02  0.78423676344E+01 -0.21854353005E+02  0.25595986379E+02  0.51100000000E-03 0. -1.
        -12    1    3    3    0    0 -0.15352475003E+01 -0.21428268845E+02 -0.47264451489E+01  0.21996976481E+02  0.00000000000E+00 0.  1.
</event>
<event>
 7    1  0.7755875E-012  0.5930197E+02  0.7816164E-02  0.1266605E+00
        -11   -1    0    0    0    0  0.00000000000E+00  0.00000000000E+00  0.45593999997E+02  0.45594000000E+02  0.51100000000E-03 0.  1.
         11   -1    0    0    0    0 -0.00000000000E+00 -0.00000000000E+00 -0.45593999997E+02  0.45594000000E+02  0.51100000000E-03 0. -1.
    9900012    2    1    2    0    0  0.11064145928E+02 -0.64216349438E+01  0.29207295572E+02  0.59301971162E+02  0.50000049486E+02 0.  0.
         12    1    1    2    0    0 -0.11064145928E+02  0.64216349438E+01 -0.29207295572E+02  0.31886028838E+02  0.00000000000E+00 0. -1.
         11    1    3    3    0    0  0.76557545841E+01  0.14280070033E+02  0.63599269639E+01  0.17406310627E+02  0.51100000000E-03 0. -1.
        -11    1    3    3    0    0 -0.55406791545E+01 -0.24102911501E+02  0.20281419953E+02  0.31984143945E+02  0.51100000000E-03 0.  1.
        -12    1    3    3    0    0  0.89490704983E+01  0.34012065242E+01  0.25659486548E+01  0.99115165894E+01  0.00000000000E+00 0.  1.
</event>
<event>
 7    1  0.7755875E-012  0.5930192E+02  0.7816164E-02  0.1266605E+00
        -11   -1    0    0    0    0  0.00000000000E+00  0.00000000000E+00  0.45593999997E+02  0.45594000000E+02  0.51100000000E-03 0. -1.
         11   -1    0    0    0    0 -0.00000000000E+00 -0.00000000000E+00 -0.45593999997E+02  0.45594000000E+02  0.51100000000E-03 0.  1.
    9900012    2    1    2    0    0 -0.27132300803E+02  0.12815256437E+02 -0.10785608269E+02  0.59301923256E+02  0.49999962117E+02 0.  0.
         12    1    1    2    0    0  0.27132300803E+02 -0.12815256437E+02  0.10785608269E+02  0.31886076744E+02  0.00000000000E+00 0. -1.
         11    1    3    3    0    0  0.34472343057E+01  0.72094897053E-02 -0.14813465891E+02  0.15209281650E+02  0.51100000000E-03 0. -1.
        -11    1    3    3    0    0 -0.30504465242E+02  0.20127501345E+02  0.40730824197E+01  0.36772662546E+02  0.51100000000E-03 0.  1.
        -12    1    3    3    0    0 -0.75069866499E-01 -0.73194543971E+01 -0.45224797496E-01  0.73199790600E+01  0.00000000000E+00 0.  1.
</event>
<event>
 7    1  0.7755875E-012  0.5930194E+02  0.7816164E-02  0.1266605E+00
        -11   -1    0    0    0    0  0.00000000000E+00  0.00000000000E+00  0.45593999997E+02  0.45594000000E+02  0.51100000000E-03 0.  1.
         11   -1    0    0    0    0 -0.00000000000E+00 -0.00000000000E+00 -0.45593999997E+02  0.45594000000E+02  0.51100000000E-03 0. -1.
    9900012    2    1    2    0    0 -0.12834591352E+02  0.99686176156E+00  0.29171910750E+02  0.59301939639E+02  0.49999991995E+02 0.  0.
         12    1    1    2    0    0  0.12834591352E+02 -0.99686176156E+00 -0.29171910750E+02  0.31886060361E+02  0.00000000000E+00 0. -1.
         11    1    3    3    0    0  0.58723196402E+01  0.11152595178E+02  0.78407961963E+01  0.14843941606E+02  0.51100000000E-03 0.  1.
        -11    1    3    3    0    0 -0.27826184127E+02 -0.97732083096E+01  0.13516597212E+02  0.32442418594E+02  0.51100000000E-03 0. -1.
         12    1    3    3    0    0  0.91192731348E+01 -0.38252510680E+00  0.78145173417E+01  0.12015579439E+02  0.00000000000E+00 0. -1.
</event>
<event>
 7    1  0.7755875E-012  0.5930195E+02  0.7816164E-02  0.1266605E+00
        -11   -1    0    0    0    0  0.00000000000E+00  0.00000000000E+00  0.45593999997E+02  0.45594000000E+02  0.51100000000E-03 0.  1.
         11   -1    0    0    0    0 -0.00000000000E+00 -0.00000000000E+00 -0.45593999997E+02  0.45594000000E+02  0.51100000000E-03 0. -1.
    9900012    2    1    2    0    0  0.13135481743E+02  0.20384454923E+02 -0.20703949717E+02  0.59301946355E+02  0.50000004245E+02 0.  0.
         12    1    1    2    0    0 -0.13135481743E+02 -0.20384454923E+02  0.20703949717E+02  0.31886053645E+02  0.00000000000E+00 0. -1.
         11    1    3    3    0    0 -0.44712640412E+00  0.41097063676E+01 -0.15556272737E+02  0.16096186821E+02  0.51100000000E-03 0. -1.
        -11    1    3    3    0    0  0.64491611683E+01  0.22791702464E+02  0.96138240033E+01  0.25563235187E+02  0.51100000000E-03 0.  1.
        -12    1    3    3    0    0  0.71334469789E+01 -0.65169539087E+01 -0.14761500984E+02  0.17642524347E+02  0.00000000000E+00 0.  1.
</event>
<event>
 7    1  0.7755875E-012  0.5930188E+02  0.7816164E-02  0.1266605E+00
        -11   -1    0    0    0    0  0.00000000000E+00  0.00000000000E+00  0.45593999997E+02  0.45594000000E+02  0.51100000000E-03 0.  1.
         11   -1    0    0    0    0 -0.00000000000E+00 -0.00000000000E+00 -0.45593999997E+02  0.45594000000E+02  0.51100000000E-03 0. -1.
    9900012    2    1    2    0    0  0.11072081615E+02  0.29850397331E+02  0.17570760941E+01  0.59301881884E+02  0.49999886664E+02 0.  0.
         12    1    1    2    0    0 -0.11072081615E+02 -0.29850397331E+02 -0.17570760941E+01  0.31886118116E+02  0.00000000000E+00 0. -1.
         11    1    3    3    0    0  0.18468108806E+02  0.41349211632E+01 -0.12689577905E+02  0.22785829008E+02  0.51100000000E-03 0. -1.
        -11    1    3    3    0    0 -0.12519645038E+02  0.13206123414E+02  0.14053691034E+02  0.22992377855E+02  0.51100000000E-03 0.  1.
         12    1    3    3    0    0  0.51236178470E+01  0.12509352755E+02  0.39296296518E+00  0.13523675021E+02  0.00000000000E+00 0. -1.
</event>
<event>
 7    1  0.7755875E-012  0.5930199E+02  0.7816164E-02  0.1266605E+00
        -11   -1    0    0    0    0  0.00000000000E+00  0.00000000000E+00  0.45593999997E+02  0.45594000000E+02  0.51100000000E-03 0.  1.
         11   -1    0    0    0    0 -0.00000000000E+00 -0.00000000000E+00 -0.45593999997E+02  0.45594000000E+02  0.51100000000E-03 0. -1.
    9900012    2    1    2    0    0 -0.25509460026E+02  0.18757003434E+02  0.37629227680E+01  0.59301994976E+02  0.50000092916E+02 0.  0.
         12    1    1    2    0    0  0.25509460026E+02 -0.18757003434E+02 -0.37629227680E+01  0.31886005024E+02  0.00000000000E+00 0. -1.
         11    1    3    3    0    0 -0.27796893162E+01  0.73700694082E+00 -0.18323262726E+02  0.18547555340E+02  0.51100000000E-03 0. -1.
        -11    1    3    3    0    0 -0.16254530081E+02  0.90205860001E+01  0.23065668439E+02  0.29624411905E+02  0.51100000000E-03 0.  1.
         12    1    3    3    0    0 -0.64752406289E+01  0.89994104934E+01 -0.97948294504E+00  0.11130027730E+02  0.00000000000E+00 0. -1.
</event>
<event>
 7    1  0.7755875E-012  0.5930195E+02  0.7816164E-02  0.1266605E+00
        -11   -1    0    0    0    0  0.00000000000E+00  0.00000000000E+00  0.45593999997E+02  0.45594000000E+02  0.51100000000E-03 0.  1.
         11   -1    0    0    0    0 -0.00000000000E+00 -0.00000000000E+00 -0.45593999997E+02  0.45594000000E+02  0.51100000000E-03 0. -1.
    9900012    2    1    2    0    0  0.21458851392E+01  0.16187732049E+02  0.27387453025E+02  0.59301951717E+02  0.50000014023E+02 0.  0.
         12    1    1    2    0    0 -0.21458851392E+01 -0.16187732049E+02 -0.27387453025E+02  0.31886048283E+02  0.00000000000E+00 0. -1.
         11    1    3    3    0    0 -0.54347724434E+00 -0.57366714439E+01 -0.95878475782E+01  0.11186223143E+02  0.51100000000E-03 0. -1.
        -11    1    3    3    0    0  0.11598456908E+02  0.15428431553E+02  0.27378079798E+02  0.33498058996E+02  0.51100000000E-03 0.  1.
         12    1    3    3    0    0 -0.89090945243E+01  0.64959719396E+01  0.95972208056E+01  0.14617669577E+02  0.00000000000E+00 0. -1.
</event>
<event>
 7    1  0.7755875E-012  0.5930192E+02  0.7816164E-02  0.1266605E+00
        -11   -1    0    0    0    0  0.00000000000E+00  0.00000000000E+00  0.45593999997E+02  0.45594000000E+02  0.51100000000E-03 0. -1.
         11   -1    0    0    0    0 -0.00000000000E+00 -0.00000000000E+00 -0.45593999997E+02  0.45594000000E+02  0.51100000000E-03 0.  1.
    9900012    2    1    2    0    0 -0.30742656535E+01 -0.28449567362E+02 -0.14067446327E+02  0.59301920928E+02  0.49999957872E+02 0.  0.
         12    1    1    2    0    0  0.30742656535E+01  0.28449567362E+02  0.14067446327E+02  0.31886079072E+02  0.00000000000E+00 0. -1.
         11    1    3    3    0    0  0.17429450733E+02  0.65285353411E+00 -0.15811674632E+01  0.17513196778E+02  0.51100000000E-03 0. -1.
        -11    1    3    3    0    0 -0.31936305121E+01 -0.18623088202E+02 -0.10067538968E+02  0.21409671440E+02  0.51100000000E-03 0.  1.
         12    1    3    3    0    0 -0.17310085874E+02 -0.10479332694E+02 -0.24187398963E+01  0.20379052710E+02  0.00000000000E+00 0. -1.
</event>
<event>
 7    1  0.7755875E-012  0.5930195E+02  0.7816164E-02  0.1266605E+00
        -11   -1    0    0    0    0  0.00000000000E+00  0.00000000000E+00  0.45593999997E+02  0.45594000000E+02  0.51100000000E-03 0.  1.
         11   -1    0    0    0    0 -0.00000000000E+00 -0.00000000000E+00 -0.45593999997E+02  0.45594000000E+02  0.51100000000E-03 0. -1.
    9900012    2    1    2    0    0 -0.10632771687E+02 -0.13233427266E+02  0.26991490484E+02  0.59301953059E+02  0.50000016472E+02 0.  0.
         12    1    1    2    0    0  0.10632771687E+02  0.13233427266E+02 -0.26991490484E+02  0.31886046941E+02  0.00000000000E+00 0. -1.
         11    1    3    3    0    0 -0.32756948289E+01  0.11500754429E+02  0.11957517733E+02  0.16910936096E+02  0.51100000000E-03 0. -1.
        -11    1    3    3    0    0  0.24090332939E+01 -0.26000548815E+02  0.18444573691E+02  0.31969270855E+02  0.51100000000E-03 0.  1.
         12    1    3    3    0    0 -0.97661101515E+01  0.12663671210E+01 -0.34106009400E+01  0.10421746108E+02  0.00000000000E+00 0. -1.
</event>
<event>
 7    1  0.7755875E-012  0.5930193E+02  0.7816164E-02  0.1266605E+00
        -11   -1    0    0    0    0  0.00000000000E+00  0.00000000000E+00  0.45593999997E+02  0.45594000000E+02  0.51100000000E-03 0.  1.
         11   -1    0    0    0    0 -0.00000000000E+00 -0.00000000000E+00 -0.45593999997E+02  0.45594000000E+02  0.51100000000E-03 0. -1.
    9900012    2    1    2    0    0 -0.19665859759E+02  0.23833905716E+02 -0.78689472298E+01  0.59301930436E+02  0.49999975212E+02 0.  0.
         12    1    1    2    0    0  0.19665859759E+02 -0.23833905716E+02  0.78689472298E+01  0.31886069564E+02  0.00000000000E+00 0. -1.
         11    1    3    3    0    0 -0.15938999129E+02  0.20759680739E+02  0.10377785315E+02  0.28155185418E+02  0.51100000000E-03 0.  1.
        -11    1    3    3    0    0  0.67200780181E+00 -0.58921793946E+01 -0.20128286549E+02  0.20983738755E+02  0.51100000000E-03 0. -1.
         12    1    3    3    0    0 -0.43988684319E+01  0.89664043714E+01  0.18815540042E+01  0.10163006263E+02  0.00000000000E+00 0. -1.
</event>
<event>
 7    1  0.7755875E-012  0.5930198E+02  0.7816164E-02  0.1266605E+00
        -11   -1    0    0    0    0  0.00000000000E+00  0.00000000000E+00  0.45593999997E+02  0.45594000000E+02  0.51100000000E-03 0. -1.
         11   -1    0    0    0    0 -0.00000000000E+00 -0.00000000000E+00 -0.45593999997E+02  0.45594000000E+02  0.51100000000E-03 0.  1.
    9900012    2    1    2    0    0 -0.29489908127E+02  0.12119951299E+02 -0.41266445589E+00  0.59301981234E+02  0.50000067855E+02 0.  0.
         12    1    1    2    0    0  0.29489908127E+02 -0.12119951299E+02  0.41266445589E+00  0.31886018766E+02  0.00000000000E+00 0. -1.
         11    1    3    3    0    0 -0.52053981781E+01  0.18391297027E+01  0.21056486327E+02  0.21768192046E+02  0.51100000000E-03 0. -1.
        -11    1    3    3    0    0 -0.22623332599E+02  0.50208558616E+01 -0.10894477915E+02  0.25606909630E+02  0.51100000000E-03 0.  1.
         12    1    3    3    0    0 -0.16611773494E+01  0.52599657347E+01 -0.10574672868E+02  0.11926879557E+02  0.00000000000E+00 0. -1.
</event>
<event>
 7    1  0.7755875E-012  0.5930194E+02  0.7816164E-02  0.1266605E+00
        -11   -1    0    0    0    0  0.00000000000E+00  0.00000000000E+00  0.45593999997E+02  0.45594000000E+02  0.51100000000E-03 0.  1.
         11   -1    0    0    0    0 -0.00000000000E+00 -0.00000000000E+00 -0.45593999997E+02  0.45594000000E+02  0.51100000000E-03 0. -1.
    9900012    2    1    2    0    0  0.29008190449E+01  0.63371250538E+01  0.31115057072E+02  0.59301942205E+02  0.49999996677E+02 0.  0.
         12    1    1    2    0    0 -0.29008190449E+01 -0.63371250538E+01 -0.31115057072E+02  0.31886057795E+02  0.00000000000E+00 0. -1.
         11    1    3    3    0    0  0.99529110399E+01  0.50341973929E+01  0.76596217846E+01  0.13530461474E+02  0.51100000000E-03 0. -1.
        -11    1    3    3    0    0 -0.18781816328E+02  0.11824567287E+02  0.19455897089E+02  0.29514554848E+02  0.51100000000E-03 0.  1.
        -12    1    3    3    0    0  0.11729724333E+02 -0.10521639626E+02  0.39995381987E+01  0.16256925883E+02  0.00000000000E+00 0.  1.
</event>
<event>
 7    1  0.7755875E-012  0.5930194E+02  0.7816164E-02  0.1266605E+00
        -11   -1    0    0    0    0  0.00000000000E+00  0.00000000000E+00  0.45593999997E+02  0.45594000000E+02  0.51100000000E-03 0. -1.
         11   -1    0    0    0    0 -0.00000000000E+00 -0.00000000000E+00 -0.45593999997E+02  0.45594000000E+02  0.51100000000E-03 0.  1.
    9900012    2    1    2    0    0  0.11512007669E+02 -0.22822079107E+02 -0.19061663728E+02  0.59301942868E+02  0.49999997885E+02 0.  0.
         12    1    1    2    0    0 -0.11512007669E+02  0.22822079107E+02  0.19061663728E+02  0.31886057132E+02  0.00000000000E+00 0. -1.
         11    1    3    3    0    0  0.77714327086E+01  0.58604943093E+01  0.56483493559E+00  0.97498512122E+01  0.51100000000E-03 0. -1.
        -11    1    3    3    0    0  0.56950634694E+01 -0.36117256464E+02 -0.11415251075E+02  0.38304019630E+02  0.51100000000E-03 0.  1.
        -12    1    3    3    0    0 -0.19544885090E+01  0.74346830477E+01 -0.82112475885E+01  0.11248072026E+02  0.00000000000E+00 0.  1.
</event>
<event>
 7    1  0.7755875E-012  0.5930196E+02  0.7816164E-02  0.1266605E+00
        -11   -1    0    0    0    0  0.00000000000E+00  0.00000000000E+00  0.45593999997E+02  0.45594000000E+02  0.51100000000E-03 0. -1.
         11   -1    0    0    0    0 -0.00000000000E+00 -0.00000000000E+00 -0.45593999997E+02  0.45594000000E+02  0.51100000000E-03 0.  1.
    9900012    2    1    2    0    0 -0.27348348645E+02  0.37769414714E+01 -0.15953746006E+02  0.59301961172E+02  0.50000031268E+02 0.  0.
         12    1    1    2    0    0  0.27348348645E+02 -0.37769414714E+01  0.15953746006E+02  0.31886038828E+02  0.00000000000E+00 0. -1.
         11    1    3    3    0    0 -0.94535419429E+01 -0.76287742726E+01  0.16147847813E+02  0.20206945376E+02  0.51100000000E-03 0. -1.
        -11    1    3    3    0    0 -0.14125371110E+02  0.52137729459E+01 -0.21177315122E+02  0.25984384029E+02  0.51100000000E-03 0.  1.
         12    1    3    3    0    0 -0.37694355925E+01  0.61919427981E+01 -0.10924278697E+02  0.13110631768E+02  0.00000000000E+00 0. -1.
</event>
<event>
 7    1  0.7755875E-012  0.5930180E+02  0.7816164E-02  0.1266605E+00
        -11   -1    0    0    0    0  0.00000000000E+00  0.00000000000E+00  0.45593999997E+02  0.45594000000E+02  0.51100000000E-03 0. -1.
         11   -1    0    0    0    0 -0.00000000000E+00 -0.00000000000E+00 -0.45593999997E+02  0.45594000000E+02  0.51100000000E-03 0.  1.
    9900012    2    1    2    0    0 -0.31803866056E+02  0.16568432214E+01  0.15807065805E+01  0.59301801436E+02  0.49999739946E+02 0.  0.
         12    1    1    2    0    0  0.31803866056E+02 -0.16568432214E+01 -0.15807065805E+01  0.31886198564E+02  0.00000000000E+00 0. -1.
         11    1    3    3    0    0 -0.11657178120E+02  0.19305726022E+02 -0.60725149121E+01  0.23355433984E+02  0.51100000000E-03 0. -1.
        -11    1    3    3    0    0 -0.23425954290E+02 -0.81505966117E+01  0.74417868091E+01  0.25895709117E+02  0.51100000000E-03 0.  1.
        -12    1    3    3    0    0  0.32792663542E+01 -0.94982861884E+01  0.21143468351E+00  0.10050658335E+02  0.00000000000E+00 0.  1.
</event>
<event>
 7    1  0.7755875E-012  0.5930195E+02  0.7816164E-02  0.1266605E+00
        -11   -1    0    0    0    0  0.00000000000E+00  0.00000000000E+00  0.45593999997E+02  0.45594000000E+02  0.51100000000E-03 0.  1.
         11   -1    0    0    0    0 -0.00000000000E+00 -0.00000000000E+00 -0.45593999997E+02  0.45594000000E+02  0.51100000000E-03 0. -1.
    9900012    2    1    2    0    0  0.34254966347E+01 -0.22969417150E+02  0.21849303088E+02  0.59301949808E+02  0.50000010541E+02 0.  0.
         12    1    1    2    0    0 -0.34254966347E+01  0.22969417150E+02 -0.21849303088E+02  0.31886050192E+02  0.00000000000E+00 0. -1.
         11    1    3    3    0    0 -0.55598121739E+01  0.19556521520E+01 -0.83637121692E+01  0.10231704074E+02  0.51100000000E-03 0. -1.
        -11    1    3    3    0    0 -0.34450100377E+01 -0.34638566354E+01  0.22607254336E+02  0.23129080090E+02  0.51100000000E-03 0.  1.
        -12    1    3    3    0    0  0.12430318846E+02 -0.21461212667E+02  0.76057609218E+01  0.25941165644E+02  0.00000000000E+00 0.  1.
</event>
<event>
 7    1  0.7755875E-012  0.5930179E+02  0.7816164E-02  0.1266605E+00
        -11   -1    0    0    0    0  0.00000000000E+00  0.00000000000E+00  0.45593999997E+02  0.45594000000E+02  0.51100000000E-03 0.  1.
         11   -1    0    0    0    0 -0.00000000000E+00 -0.00000000000E+00 -0.45593999997E+02  0.45594000000E+02  0.51100000000E-03 0. -1.
    9900012    2    1    2    0    0 -0.72044679466E+01 -0.25271085541E+02  0.18060953218E+02  0.59301793672E+02  0.49999725787E+02 0.  0.
         12    1    1    2    0    0  0.72044679466E+01  0.25271085541E+02 -0.18060953218E+02  0.31886206328E+02  0.00000000000E+00 0. -1.
         11    1    3    3    0    0 -0.12345672799E+02 -0.99700680919E+00 -0.51101262246E+01  0.13398621188E+02  0.51100000000E-03 0. -1.
        -11    1    3    3    0    0  0.12111051503E+02  0.12160281015E+01  0.12372517566E+02  0.17356136783E+02  0.51100000000E-03 0.  1.
        -12    1    3    3    0    0 -0.69698466500E+01 -0.25490106834E+02  0.10798561877E+02  0.28547035701E+02  0.00000000000E+00 0.  1.
</event>
<event>
 7    1  0.7755875E-012  0.5930193E+02  0.7816164E-02  0.1266605E+00
        -11   -1    0    0    0    0  0.00000000000E+00  0.00000000000E+00  0.45593999997E+02  0.45594000000E+02  0.51100000000E-03 0.  1.
         11   -1    0    0    0    0 -0.00000000000E+00 -0.00000000000E+00 -0.45593999997E+02  0.45594000000E+02  0.51100000000E-03 0. -1.
    9900012    2    1    2    0    0 -0.11947832914E+02  0.28749936787E+02  0.68856129284E+01  0.59301933419E+02  0.49999980653E+02 0.  0.
         12    1    1    2    0    0  0.11947832914E+02 -0.28749936787E+02 -0.68856129284E+01  0.31886066581E+02  0.00000000000E+00 0. -1.
         11    1    3    3    0    0 -0.11329618831E+01 -0.55403241137E+01  0.17403345597E+02  0.18299050034E+02  0.51100000000E-03 0. -1.
        -11    1    3    3    0    0 -0.94555436751E+01  0.16248962540E+02  0.21413788886E+01  0.18921458549E+02  0.51100000000E-03 0.  1.
         12    1    3    3    0    0 -0.13593273555E+01  0.18041298361E+02 -0.12659111557E+02  0.22081424837E+02  0.00000000000E+00 0. -1.
</event>
<event>
 7    1  0.8895236E-012  0.5930195E+02  0.7816164E-02  0.1266605E+00
        -11   -1    0    0    0    0  0.00000000000E+00  0.00000000000E+00  0.45593999997E+02  0.45594000000E+02  0.51100000000E-03 0. -1.
         11   -1    0    0    0    0 -0.00000000000E+00 -0.00000000000E+00 -0.45593999997E+02  0.45594000000E+02  0.51100000000E-03 0.  1.
    9900012    2    1    2    0    0  0.10921479638E+02  0.19302448977E+02 -0.22909756112E+02  0.59301950086E+02  0.50000011049E+02 0.  0.
         12    1    1    2    0    0 -0.10921479638E+02 -0.19302448977E+02  0.22909756112E+02  0.31886049914E+02  0.00000000000E+00 0. -1.
         11    1    3    3    0    0  0.12799303212E+02 -0.93365768756E+01 -0.95349820070E+01  0.18490800756E+02  0.51100000000E-03 0. -1.
        -11    1    3    3    0    0 -0.48180432401E+01  0.16635371466E+02 -0.20268386099E+02  0.26660018751E+02  0.51100000000E-03 0.  1.
         12    1    3    3    0    0  0.29402196656E+01  0.12003654387E+02  0.68936119942E+01  0.14151130579E+02  0.00000000000E+00 0. -1.
</event>
<event>
 7    1  0.7755875E-012  0.5930194E+02  0.7816164E-02  0.1266605E+00
        -11   -1    0    0    0    0  0.00000000000E+00  0.00000000000E+00  0.45593999997E+02  0.45594000000E+02  0.51100000000E-03 0. -1.
         11   -1    0    0    0    0 -0.00000000000E+00 -0.00000000000E+00 -0.45593999997E+02  0.45594000000E+02  0.51100000000E-03 0.  1.
    9900012    2    1    2    0    0 -0.14275421037E+02 -0.86673861274E+01 -0.27162645490E+02  0.59301944457E+02  0.50000000784E+02 0.  0.
         12    1    1    2    0    0  0.14275421037E+02  0.86673861274E+01  0.27162645490E+02  0.31886055543E+02  0.00000000000E+00 0. -1.
         11    1    3    3    0    0 -0.13143101721E+02 -0.17825463464E+02  0.49663816133E+01  0.22696986962E+02  0.51100000000E-03 0. -1.
        -11    1    3    3    0    0  0.19502534454E+01 -0.35619615846E+01 -0.46868159163E+01  0.62013952080E+01  0.51100000000E-03 0.  1.
         12    1    3    3    0    0 -0.30825727615E+01  0.12720038921E+02 -0.27442211187E+02  0.30403562288E+02  0.00000000000E+00 0. -1.
</event>
<event>
 7    1  0.7755875E-012  0.5930200E+02  0.7816164E-02  0.1266605E+00
        -11   -1    0    0    0    0  0.00000000000E+00  0.00000000000E+00  0.45593999997E+02  0.45594000000E+02  0.51100000000E-03 0. -1.
         11   -1    0    0    0    0 -0.00000000000E+00 -0.00000000000E+00 -0.45593999997E+02  0.45594000000E+02  0.51100000000E-03 0.  1.
    9900012    2    1    2    0    0 -0.24877411581E+02 -0.44783653047E+00  0.19940687494E+02  0.59301997079E+02  0.50000096753E+02 0.  0.
         12    1    1    2    0    0  0.24877411581E+02  0.44783653047E+00 -0.19940687494E+02  0.31886002921E+02  0.00000000000E+00 0. -1.
         11    1    3    3    0    0  0.10783039515E+02 -0.76844498129E+01  0.51416092217E+01  0.14204254847E+02  0.51100000000E-03 0. -1.
        -11    1    3    3    0    0 -0.21879944135E+02  0.14925611927E+02  0.65169267226E+01  0.27275926765E+02  0.51100000000E-03 0.  1.
        -12    1    3    3    0    0 -0.13780506961E+02 -0.76889986444E+01  0.82821515496E+01  0.17821815467E+02  0.00000000000E+00 0.  1.
</event>
<event>
 7    1  0.7755875E-012  0.5930194E+02  0.7816164E-02  0.1266605E+00
        -11   -1    0    0    0    0  0.00000000000E+00  0.00000000000E+00  0.45593999997E+02  0.45594000000E+02  0.51100000000E-03 0.  1.
         11   -1    0    0    0    0 -0.00000000000E+00 -0.00000000000E+00 -0.45593999997E+02  0.45594000000E+02  0.51100000000E-03 0. -1.
    9900012    2    1    2    0    0  0.17011792495E+02 -0.10368811070E+02  0.24895933444E+02  0.59301939896E+02  0.49999992465E+02 0.  0.
         12    1    1    2    0    0 -0.17011792495E+02  0.10368811070E+02 -0.24895933444E+02  0.31886060104E+02  0.00000000000E+00 0. -1.
         11    1    3    3    0    0  0.18221738836E+02  0.84348274908E+01  0.22189189779E+02  0.29925544678E+02  0.51100000000E-03 0. -1.
        -11    1    3    3    0    0 -0.70416765509E+01 -0.20657649501E+02  0.57105349508E+01  0.22559563410E+02  0.51100000000E-03 0.  1.
        -12    1    3    3    0    0  0.58317302103E+01  0.18540109399E+01 -0.30037912856E+01  0.68168318080E+01  0.00000000000E+00 0.  1.
</event>
<event>
 7    1  0.7755875E-012  0.5930195E+02  0.7816164E-02  0.1266605E+00
        -11   -1    0    0    0    0  0.00000000000E+00  0.00000000000E+00  0.45593999997E+02  0.45594000000E+02  0.51100000000E-03 0. -1.
         11   -1    0    0    0    0 -0.00000000000E+00 -0.00000000000E+00 -0.45593999997E+02  0.45594000000E+02  0.51100000000E-03 0.  1.
    9900012    2    1    2    0    0  0.16522836668E+02 -0.21845500951E+02  0.16324518525E+02  0.59301953703E+02  0.50000017646E+02 0.  0.
         12    1    1    2    0    0 -0.16522836668E+02  0.21845500951E+02 -0.16324518525E+02  0.31886046297E+02  0.00000000000E+00 0. -1.
         11    1    3    3    0    0 -0.31213272493E+01 -0.14003544701E+02  0.11221670444E+02  0.18214495212E+02  0.51100000000E-03 0. -1.
        -11    1    3    3    0    0  0.78875963904E+01  0.13851933811E+02  0.37517833226E+01  0.16375778622E+02  0.51100000000E-03 0.  1.
        -12    1    3    3    0    0  0.11756567527E+02 -0.21693890061E+02  0.13510647583E+01  0.24711679870E+02  0.00000000000E+00 0.  1.
</event>
<event>
 7    1  0.7755875E-012  0.5930196E+02  0.7816164E-02  0.1266605E+00
        -11   -1    0    0    0    0  0.00000000000E+00  0.00000000000E+00  0.45593999997E+02  0.45594000000E+02  0.51100000000E-03 0.  1.
         11   -1    0    0    0    0 -0.00000000000E+00 -0.00000000000E+00 -0.45593999997E+02  0.45594000000E+02  0.51100000000E-03 0. -1.
    9900012    2    1    2    0    0 -0.23816659371E+02 -0.11989665574E+02  0.17485248337E+02  0.59301964599E+02  0.50000037517E+02 0.  0.
         12    1    1    2    0    0  0.23816659371E+02  0.11989665574E+02 -0.17485248337E+02  0.31886035401E+02  0.00000000000E+00 0. -1.
         11    1    3    3    0    0 -0.25352111663E+02 -0.75107484787E+01 -0.51715670122E+01  0.26942271881E+02  0.51100000000E-03 0. -1.
        -11    1    3    3    0    0 -0.93978198915E+01 -0.46379371251E+01  0.17195183884E+02  0.20137125628E+02  0.51100000000E-03 0.  1.
         12    1    3    3    0    0  0.10933272183E+02  0.15902002956E+00  0.54616314654E+01  0.12222567090E+02  0.00000000000E+00 0. -1.
</event>
<event>
 7    1  0.7755875E-012  0.5930194E+02  0.7816164E-02  0.1266605E+00
        -11   -1    0    0    0    0  0.00000000000E+00  0.00000000000E+00  0.45593999997E+02  0.45594000000E+02  0.51100000000E-03 0.  1.
         11   -1    0    0    0    0 -0.00000000000E+00 -0.00000000000E+00 -0.45593999997E+02  0.45594000000E+02  0.51100000000E-03 0. -1.
    9900012    2    1    2    0    0  0.15479208713E+02  0.20030636866E+02 -0.19387840213E+02  0.59301942486E+02  0.49999997188E+02 0.  0.
         12    1    1    2    0    0 -0.15479208713E+02 -0.20030636866E+02  0.19387840213E+02  0.31886057514E+02  0.00000000000E+00 0. -1.
         11    1    3    3    0    0 -0.39235841382E+00  0.30877874217E+01  0.26771246419E+01  0.41055295512E+01  0.51100000000E-03 0. -1.
        -11    1    3    3    0    0  0.18391453108E+02 -0.10370263275E+02 -0.19928983538E+01  0.21207535263E+02  0.51100000000E-03 0.  1.
        -12    1    3    3    0    0 -0.25198859805E+01  0.27313112719E+02 -0.20072066501E+02  0.33988877672E+02  0.00000000000E+00 0.  1.
</event>
<event>
 7    1  0.7755875E-012  0.5930198E+02  0.7816164E-02  0.1266605E+00
        -11   -1    0    0    0    0  0.00000000000E+00  0.00000000000E+00  0.45593999997E+02  0.45594000000E+02  0.51100000000E-03 0.  1.
         11   -1    0    0    0    0 -0.00000000000E+00 -0.00000000000E+00 -0.45593999997E+02  0.45594000000E+02  0.51100000000E-03 0. -1.
    9900012    2    1    2    0    0  0.10092313035E+02 -0.27183003808E+02  0.13264529733E+02  0.59301980690E+02  0.50000066862E+02 0.  0.
         12    1    1    2    0    0 -0.10092313035E+02  0.27183003808E+02 -0.13264529733E+02  0.31886019310E+02  0.00000000000E+00 0. -1.
         11    1    3    3    0    0  0.10843672444E+01 -0.70882378810E+00 -0.13221074267E+02  0.13284392666E+02  0.51100000000E-03 0. -1.
        -11    1    3    3    0    0  0.12371904346E+02 -0.54494896130E+01  0.19263707129E+02  0.23534046971E+02  0.51100000000E-03 0.  1.
        -12    1    3    3    0    0 -0.33639585558E+01 -0.21024690407E+02  0.72218968706E+01  0.22483541053E+02  0.00000000000E+00 0.  1.
</event>
<event>
 7    1  0.7755875E-012  0.5930195E+02  0.7816164E-02  0.1266605E+00
        -11   -1    0    0    0    0  0.00000000000E+00  0.00000000000E+00  0.45593999997E+02  0.45594000000E+02  0.51100000000E-03 0.  1.
         11   -1    0    0    0    0 -0.00000000000E+00 -0.00000000000E+00 -0.45593999997E+02  0.45594000000E+02  0.51100000000E-03 0. -1.
    9900012    2    1    2    0    0  0.76941119210E+01  0.30901155223E+02  0.16246401305E+01  0.59301949634E+02  0.50000010224E+02 0.  0.
         12    1    1    2    0    0 -0.76941119210E+01 -0.30901155223E+02 -0.16246401305E+01  0.31886050366E+02  0.00000000000E+00 0. -1.
         11    1    3    3    0    0  0.31100466333E+01 -0.50808833016E+01 -0.23397276297E+01  0.64001633438E+01  0.51100000000E-03 0. -1.
        -11    1    3    3    0    0  0.17948544761E+02  0.31067588112E+02 -0.47726095366E+01  0.36195622555E+02  0.51100000000E-03 0.  1.
        -12    1    3    3    0    0 -0.13364479473E+02  0.49144504134E+01  0.87369772968E+01  0.16706163735E+02  0.00000000000E+00 0.  1.
</event>
<event>
 7    1  0.7755875E-012  0.5930194E+02  0.7816164E-02  0.1266605E+00
        -11   -1    0    0    0    0  0.00000000000E+00  0.00000000000E+00  0.45593999997E+02  0.45594000000E+02  0.51100000000E-03 0. -1.
         11   -1    0    0    0    0 -0.00000000000E+00 -0.00000000000E+00 -0.45593999997E+02  0.45594000000E+02  0.51100000000E-03 0.  1.
    9900012    2    1    2    0    0  0.11781628458E+02  0.14264675105E+02 -0.25969845700E+02  0.59301943319E+02  0.49999998708E+02 0.  0.
         12    1    1    2    0    0 -0.11781628458E+02 -0.14264675105E+02  0.25969845700E+02  0.31886056681E+02  0.00000000000E+00 0. -1.
         11    1    3    3    0    0 -0.42780461842E+01  0.96186275113E+01 -0.64962225814E+01  0.12370148845E+02  0.51100000000E-03 0. -1.
        -11    1    3    3    0    0  0.94987814989E+01 -0.15486085891E+02 -0.18205890803E+02  0.25719645533E+02  0.51100000000E-03 0.  1.
        -12    1    3    3    0    0  0.65608931438E+01  0.20132133484E+02 -0.12677323158E+01  0.21212148941E+02  0.00000000000E+00 0.  1.
</event>
<event>
 7    1  0.7755875E-012  0.5930193E+02  0.7816164E-02  0.1266605E+00
        -11   -1    0    0    0    0  0.00000000000E+00  0.00000000000E+00  0.45593999997E+02  0.45594000000E+02  0.51100000000E-03 0. -1.
         11   -1    0    0    0    0 -0.00000000000E+00 -0.00000000000E+00 -0.45593999997E+02  0.45594000000E+02  0.51100000000E-03 0.  1.
    9900012    2    1    2    0    0  0.23683986167E+02  0.21316147381E+02 -0.11882762186E+01  0.59301931877E+02  0.49999977841E+02 0.  0.
         12    1    1    2    0    0 -0.23683986167E+02 -0.21316147381E+02  0.11882762186E+01  0.31886068123E+02  0.00000000000E+00 0. -1.
         11    1    3    3    0    0 -0.10280170023E+02  0.46610960110E+01 -0.23048527795E+01  0.11520419191E+02  0.51100000000E-03 0. -1.
        -11    1    3    3    0    0  0.30068189770E+02  0.38525122565E+01 -0.82863513809E+01  0.31426127763E+02  0.51100000000E-03 0.  1.
         12    1    3    3    0    0  0.38959664202E+01  0.12802539114E+02  0.94029279417E+01  0.16355384923E+02  0.00000000000E+00 0. -1.
</event>
<event>
 7    1  0.7755875E-012  0.5930194E+02  0.7816164E-02  0.1266605E+00
        -11   -1    0    0    0    0  0.00000000000E+00  0.00000000000E+00  0.45593999997E+02  0.45594000000E+02  0.51100000000E-03 0.  1.
         11   -1    0    0    0    0 -0.00000000000E+00 -0.00000000000E+00 -0.45593999997E+02  0.45594000000E+02  0.51100000000E-03 0. -1.
    9900012    2    1    2    0    0  0.19949587812E+02  0.14250984208E+02  0.20387357221E+02  0.59301938167E+02  0.49999989311E+02 0.  0.
         12    1    1    2    0    0 -0.19949587812E+02 -0.14250984208E+02 -0.20387357221E+02  0.31886061833E+02  0.00000000000E+00 0. -1.
         11    1    3    3    0    0 -0.96148978730E+01  0.13207817307E+02  0.46741943798E+01  0.16992374539E+02  0.51100000000E-03 0. -1.
        -11    1    3    3    0    0  0.28626860563E+02  0.98553760443E+01  0.13649760110E+02  0.33210563591E+02  0.51100000000E-03 0.  1.
        -12    1    3    3    0    0  0.93762512189E+00 -0.88122091426E+01  0.20634027310E+01  0.90990000369E+01  0.00000000000E+00 0.  1.
</event>
<event>
 7    1  0.7755875E-012  0.5930196E+02  0.7816164E-02  0.1266605E+00
        -11   -1    0    0    0    0  0.00000000000E+00  0.00000000000E+00  0.45593999997E+02  0.45594000000E+02  0.51100000000E-03 0. -1.
         11   -1    0    0    0    0 -0.00000000000E+00 -0.00000000000E+00 -0.45593999997E+02  0.45594000000E+02  0.51100000000E-03 0.  1.
    9900012    2    1    2    0    0  0.13345170165E+02 -0.45650262938E+01 -0.28596971385E+02  0.59301955965E+02  0.50000021771E+02 0.  0.
         12    1    1    2    0    0 -0.13345170165E+02  0.45650262938E+01  0.28596971385E+02  0.31886044035E+02  0.00000000000E+00 0. -1.
         11    1    3    3    0    0 -0.12676018635E+02 -0.51603888193E+01  0.58896612627E+01  0.14899636615E+02  0.51100000000E-03 0. -1.
        -11    1    3    3    0    0  0.10839648555E+02  0.49632820129E+01 -0.17803807591E+02  0.21426798971E+02  0.51100000000E-03 0.  1.
         12    1    3    3    0    0  0.15181540245E+02 -0.43679194874E+01 -0.16682825056E+02  0.22975520379E+02  0.00000000000E+00 0. -1.
</event>
<event>
 7    1  0.7755875E-012  0.5930196E+02  0.7816164E-02  0.1266605E+00
        -11   -1    0    0    0    0  0.00000000000E+00  0.00000000000E+00  0.45593999997E+02  0.45594000000E+02  0.51100000000E-03 0.  1.
         11   -1    0    0    0    0 -0.00000000000E+00 -0.00000000000E+00 -0.45593999997E+02  0.45594000000E+02  0.51100000000E-03 0. -1.
    9900012    2    1    2    0    0  0.15893681403E+02 -0.14953505228E+02  0.23248718179E+02  0.59301963493E+02  0.50000035501E+02 0.  0.
         12    1    1    2    0    0 -0.15893681403E+02  0.14953505228E+02 -0.23248718179E+02  0.31886036507E+02  0.00000000000E+00 0. -1.
         11    1    3    3    0    0  0.50435411587E+01 -0.92617843592E+01  0.29922960255E+00  0.10550236753E+02  0.51100000000E-03 0. -1.
        -11    1    3    3    0    0  0.91791684879E+01  0.10317796817E+02  0.28545242217E+02  0.31710328266E+02  0.51100000000E-03 0.  1.
        -12    1    3    3    0    0  0.16709717560E+01 -0.16009517686E+02 -0.55957536402E+01  0.17041398474E+02  0.00000000000E+00 0.  1.
</event>
<event>
 7    1  0.7755875E-012  0.5930196E+02  0.7816164E-02  0.1266605E+00
        -11   -1    0    0    0    0  0.00000000000E+00  0.00000000000E+00  0.45593999997E+02  0.45594000000E+02  0.51100000000E-03 0.  1.
         11   -1    0    0    0    0 -0.00000000000E+00 -0.00000000000E+00 -0.45593999997E+02  0.45594000000E+02  0.51100000000E-03 0. -1.
    9900012    2    1    2    0    0  0.14037691951E+02 -0.27903065047E+02  0.64095009682E+01  0.59301960155E+02  0.50000029413E+02 0.  0.
         12    1    1    2    0    0 -0.14037691951E+02  0.27903065047E+02 -0.64095009682E+01  0.31886039845E+02  0.00000000000E+00 0. -1.
         11    1    3    3    0    0  0.18475034718E+02 -0.76109241336E+00 -0.14327776315E+02  0.23392121406E+02  0.51100000000E-03 0. -1.
        -11    1    3    3    0    0  0.11205115244E+01 -0.20592933082E+02  0.13231647172E+02  0.24503079932E+02  0.51100000000E-03 0.  1.
         12    1    3    3    0    0 -0.55578542909E+01 -0.65490395514E+01  0.75056301105E+01  0.11406758818E+02  0.00000000000E+00 0. -1.
</event>
<event>
 7    1  0.7755875E-012  0.5930196E+02  0.7816164E-02  0.1266605E+00
        -11   -1    0    0    0    0  0.00000000000E+00  0.00000000000E+00  0.45593999997E+02  0.45594000000E+02  0.51100000000E-03 0.  1.
         11   -1    0    0    0    0 -0.00000000000E+00 -0.00000000000E+00 -0.45593999997E+02  0.45594000000E+02  0.51100000000E-03 0. -1.
    9900012    2    1    2    0    0  0.31845832290E+01 -0.76334334028E+01  0.30794618624E+02  0.59301962114E+02  0.50000032985E+02 0.  0.
         12    1    1    2    0    0 -0.31845832290E+01  0.76334334028E+01 -0.30794618624E+02  0.31886037886E+02  0.00000000000E+00 0. -1.
         11    1    3    3    0    0  0.40454569689E+01 -0.71933738190E+01 -0.81048826539E+01  0.11567172173E+02  0.51100000000E-03 0. -1.
        -11    1    3    3    0    0 -0.39610787676E+01 -0.12775497524E+02  0.27813530012E+02  0.30862532851E+02  0.51100000000E-03 0.  1.
         12    1    3    3    0    0  0.31002050277E+01  0.12335437940E+02  0.11085971266E+02  0.16872257090E+02  0.00000000000E+00 0. -1.
</event>
<event>
 7    1  0.7755875E-012  0.5930189E+02  0.7816164E-02  0.1266605E+00
        -11   -1    0    0    0    0  0.00000000000E+00  0.00000000000E+00  0.45593999997E+02  0.45594000000E+02  0.51100000000E-03 0. -1.
         11   -1    0    0    0    0 -0.00000000000E+00 -0.00000000000E+00 -0.45593999997E+02  0.45594000000E+02  0.51100000000E-03 0.  1.
    9900012    2    1    2    0    0 -0.15504098347E+02  0.27444037344E+02 -0.48137086665E+01  0.59301889506E+02  0.49999900565E+02 0.  0.
         12    1    1    2    0    0  0.15504098347E+02 -0.27444037344E+02  0.48137086665E+01  0.31886110494E+02  0.00000000000E+00 0. -1.
         11    1    3    3    0    0 -0.17193182814E+02  0.19305978045E+02  0.11685949287E+02  0.28370543431E+02  0.51100000000E-03 0. -1.
        -11    1    3    3    0    0  0.11395781384E+02 -0.24567571033E+01 -0.89683844332E+01  0.14708208879E+02  0.51100000000E-03 0.  1.
         12    1    3    3    0    0 -0.97066969178E+01  0.10594816402E+02 -0.75312735202E+01  0.16223137196E+02  0.00000000000E+00 0. -1.
</event>
<event>
 7    1  0.7755875E-012  0.5930196E+02  0.7816164E-02  0.1266605E+00
        -11   -1    0    0    0    0  0.00000000000E+00  0.00000000000E+00  0.45593999997E+02  0.45594000000E+02  0.51100000000E-03 0.  1.
         11   -1    0    0    0    0 -0.00000000000E+00 -0.00000000000E+00 -0.45593999997E+02  0.45594000000E+02  0.51100000000E-03 0. -1.
    9900012    2    1    2    0    0 -0.18530500939E+02  0.19655933749E+02  0.16940606680E+02  0.59301963067E+02  0.50000034723E+02 0.  0.
         12    1    1    2    0    0  0.18530500939E+02 -0.19655933749E+02 -0.16940606680E+02  0.31886036933E+02  0.00000000000E+00 0. -1.
         11    1    3    3    0    0  0.10798209673E+02  0.98956904836E+01  0.89515616272E+01  0.17165560816E+02  0.51100000000E-03 0. -1.
        -11    1    3    3    0    0 -0.32483675932E+02  0.13868764515E+02  0.38965205530E+01  0.35534697183E+02  0.51100000000E-03 0.  1.
        -12    1    3    3    0    0  0.31549653197E+01 -0.41085212493E+01  0.40925244998E+01  0.66017050681E+01  0.00000000000E+00 0.  1.
</event>
<event>
 7    1  0.7755875E-012  0.5930193E+02  0.7816164E-02  0.1266605E+00
        -11   -1    0    0    0    0  0.00000000000E+00  0.00000000000E+00  0.45593999997E+02  0.45594000000E+02  0.51100000000E-03 0.  1.
         11   -1    0    0    0    0 -0.00000000000E+00 -0.00000000000E+00 -0.45593999997E+02  0.45594000000E+02  0.51100000000E-03 0. -1.
    9900012    2    1    2    0    0 -0.50597303050E+01  0.69554390296E+00  0.31474381311E+02  0.59301932024E+02  0.49999978107E+02 0.  0.
         12    1    1    2    0    0  0.50597303050E+01 -0.69554390296E+00 -0.31474381311E+02  0.31886067976E+02  0.00000000000E+00 0. -1.
         11    1    3    3    0    0 -0.18480989246E+01 -0.18752527113E+02  0.50231559815E+01  0.19501406078E+02  0.51100000000E-03 0. -1.
        -11    1    3    3    0    0  0.70008653828E+01  0.18087869513E+02  0.18258189581E+02  0.26637278890E+02  0.51100000000E-03 0.  1.
        -12    1    3    3    0    0 -0.10212496763E+02  0.13602015027E+01  0.81930357484E+01  0.13163247055E+02  0.00000000000E+00 0.  1.
</event>
<event>
 7    1  0.7755875E-012  0.5930190E+02  0.7816164E-02  0.1266605E+00
        -11   -1    0    0    0    0  0.00000000000E+00  0.00000000000E+00  0.45593999997E+02  0.45594000000E+02  0.51100000000E-03 0.  1.
         11   -1    0    0    0    0 -0.00000000000E+00 -0.00000000000E+00 -0.45593999997E+02  0.45594000000E+02  0.51100000000E-03 0. -1.
    9900012    2    1    2    0    0  0.14404183197E+02 -0.85046274169E+01  0.27146164964E+02  0.59301898744E+02  0.49999917413E+02 0.  0.
         12    1    1    2    0    0 -0.14404183197E+02  0.85046274169E+01 -0.27146164964E+02  0.31886101256E+02  0.00000000000E+00 0. -1.
         11    1    3    3    0    0 -0.11650204433E+02  0.71183799733E+01  0.17917825739E+02  0.22526585987E+02  0.51100000000E-03 0.  1.
        -11    1    3    3    0    0  0.15882600008E+02 -0.74210977903E+01 -0.42125088552E+01  0.18029833791E+02  0.51100000000E-03 0. -1.
         12    1    3    3    0    0  0.10171787622E+02 -0.82019096000E+01  0.13440848081E+02  0.18745478965E+02  0.00000000000E+00 0. -1.
</event>
<event>
 7    1  0.7755875E-012  0.5930195E+02  0.7816164E-02  0.1266605E+00
        -11   -1    0    0    0    0  0.00000000000E+00  0.00000000000E+00  0.45593999997E+02  0.45594000000E+02  0.51100000000E-03 0. -1.
         11   -1    0    0    0    0 -0.00000000000E+00 -0.00000000000E+00 -0.45593999997E+02  0.45594000000E+02  0.51100000000E-03 0.  1.
    9900012    2    1    2    0    0  0.16394948509E+02 -0.25776355046E+02  0.91381249586E+01  0.59301950639E+02  0.50000012057E+02 0.  0.
         12    1    1    2    0    0 -0.16394948509E+02  0.25776355046E+02 -0.91381249586E+01  0.31886049361E+02  0.00000000000E+00 0. -1.
         11    1    3    3    0    0  0.21895820010E+02  0.36701463249E+01  0.15538239898E+02  0.27098594195E+02  0.51100000000E-03 0. -1.
        -11    1    3    3    0    0 -0.62418956541E+00 -0.20418061286E+02 -0.77609058258E+01  0.21852196658E+02  0.51100000000E-03 0.  1.
         12    1    3    3    0    0 -0.48766819353E+01 -0.90284400853E+01  0.13607908864E+01  0.10351159786E+02  0.00000000000E+00 0. -1.
</event>
<event>
 7    1  0.7755875E-012  0.5930197E+02  0.7816164E-02  0.1266605E+00
        -11   -1    0    0    0    0  0.00000000000E+00  0.00000000000E+00  0.45593999997E+02  0.45594000000E+02  0.51100000000E-03 0. -1.
         11   -1    0    0    0    0 -0.00000000000E+00 -0.00000000000E+00 -0.45593999997E+02  0.45594000000E+02  0.51100000000E-03 0.  1.
    9900012    2    1    2    0    0  0.14511476342E+02  0.23177638768E+02 -0.16399174550E+02  0.59301971549E+02  0.50000050192E+02 0.  0.
         12    1    1    2    0    0 -0.14511476342E+02 -0.23177638768E+02  0.16399174550E+02  0.31886028451E+02  0.00000000000E+00 0. -1.
         11    1    3    3    0    0  0.29657660599E+01  0.77417933141E+00  0.12710805121E+02  0.13075155412E+02  0.51100000000E-03 0. -1.
        -11    1    3    3    0    0 -0.31589483019E+01  0.12627668398E+02 -0.24864965750E+02  0.28066055754E+02  0.51100000000E-03 0.  1.
        -12    1    3    3    0    0  0.14704658584E+02  0.97757910383E+01 -0.42450139206E+01  0.18160760383E+02  0.00000000000E+00 0.  1.
</event>
<event>
 7    1  0.7755875E-012  0.5930202E+02  0.7816164E-02  0.1266604E+00
        -11   -1    0    0    0    0  0.00000000000E+00  0.00000000000E+00  0.45593999997E+02  0.45594000000E+02  0.51100000000E-03 0.  1.
         11   -1    0    0    0    0 -0.00000000000E+00 -0.00000000000E+00 -0.45593999997E+02  0.45594000000E+02  0.51100000000E-03 0. -1.
    9900012    2    1    2    0    0  0.21478785325E+02  0.11511057877E+02  0.20563877832E+02  0.59302019633E+02  0.50000137885E+02 0.  0.
         12    1    1    2    0    0 -0.21478785325E+02 -0.11511057877E+02 -0.20563877832E+02  0.31885980367E+02  0.00000000000E+00 0. -1.
         11    1    3    3    0    0  0.19627224755E+01  0.24213743568E+02  0.37117438420E+01  0.24575082903E+02  0.51100000000E-03 0. -1.
        -11    1    3    3    0    0  0.21396731606E+02 -0.11039290118E+02  0.77627519717E+01  0.25297161267E+02  0.51100000000E-03 0.  1.
         12    1    3    3    0    0 -0.18806687561E+01 -0.16633955729E+01  0.90893820183E+01  0.94297754627E+01  0.00000000000E+00 0. -1.
</event>
<event>
 7    1  0.7755875E-012  0.5930195E+02  0.7816164E-02  0.1266605E+00
        -11   -1    0    0    0    0  0.00000000000E+00  0.00000000000E+00  0.45593999997E+02  0.45594000000E+02  0.51100000000E-03 0.  1.
         11   -1    0    0    0    0 -0.00000000000E+00 -0.00000000000E+00 -0.45593999997E+02  0.45594000000E+02  0.51100000000E-03 0. -1.
    9900012    2    1    2    0    0  0.17195346829E+02 -0.23055429945E+02 -0.13765451654E+02  0.59301945654E+02  0.50000002966E+02 0.  0.
         12    1    1    2    0    0 -0.17195346829E+02  0.23055429945E+02  0.13765451654E+02  0.31886054346E+02  0.00000000000E+00 0. -1.
         11    1    3    3    0    0 -0.15307146072E+01 -0.14865928384E+02  0.15397926762E+02  0.21457750646E+02  0.51100000000E-03 0. -1.
        -11    1    3    3    0    0  0.14737391164E+02 -0.11681675982E+02 -0.22268811360E+02  0.29147078957E+02  0.51100000000E-03 0.  1.
        -12    1    3    3    0    0  0.39886702723E+01  0.34921744207E+01 -0.68945670563E+01  0.86971160518E+01  0.00000000000E+00 0.  1.
</event>
<event>
 7    1  0.7755875E-012  0.5930202E+02  0.7816164E-02  0.1266604E+00
        -11   -1    0    0    0    0  0.00000000000E+00  0.00000000000E+00  0.45593999997E+02  0.45594000000E+02  0.51100000000E-03 0. -1.
         11   -1    0    0    0    0 -0.00000000000E+00 -0.00000000000E+00 -0.45593999997E+02  0.45594000000E+02  0.51100000000E-03 0.  1.
    9900012    2    1    2    0    0 -0.23847757124E+02  0.76699061783E+01 -0.19727459056E+02  0.59302021555E+02  0.50000141390E+02 0.  0.
         12    1    1    2    0    0  0.23847757124E+02 -0.76699061783E+01  0.19727459056E+02  0.31885978445E+02  0.00000000000E+00 0. -1.
         11    1    3    3    0    0 -0.14095625950E+02 -0.33918107678E+01  0.88879435780E+01  0.17005487129E+02  0.51100000000E-03 0. -1.
        -11    1    3    3    0    0  0.41638123088E+01 -0.64136414001E+01 -0.12854841969E+02  0.14957242101E+02  0.51100000000E-03 0.  1.
         12    1    3    3    0    0 -0.13915943483E+02  0.17475358346E+02 -0.15760560665E+02  0.27339292325E+02  0.00000000000E+00 0. -1.
</event>
<event>
 7    1  0.7755875E-012  0.5930195E+02  0.7816164E-02  0.1266605E+00
        -11   -1    0    0    0    0  0.00000000000E+00  0.00000000000E+00  0.45593999997E+02  0.45594000000E+02  0.51100000000E-03 0.  1.
         11   -1    0    0    0    0 -0.00000000000E+00 -0.00000000000E+00 -0.45593999997E+02  0.45594000000E+02  0.51100000000E-03 0. -1.
    9900012    2    1    2    0    0 -0.31715589644E+02 -0.25832645990E+01 -0.20415823125E+01  0.59301953823E+02  0.50000017864E+02 0.  0.
         12    1    1    2    0    0  0.31715589644E+02  0.25832645990E+01  0.20415823125E+01  0.31886046177E+02  0.00000000000E+00 0. -1.
         11    1    3    3    0    0  0.54606528159E+01 -0.96544551115E+01 -0.97824978117E+01  0.14789337253E+02  0.51100000000E-03 0. -1.
        -11    1    3    3    0    0 -0.11755576118E+02 -0.72094062632E+01  0.67128050183E+01  0.15337237692E+02  0.51100000000E-03 0.  1.
         12    1    3    3    0    0 -0.25420666342E+02  0.14280596776E+02  0.10281104809E+01  0.29175378879E+02  0.00000000000E+00 0. -1.
</event>
<event>
 7    1  0.7755875E-012  0.5930192E+02  0.7816164E-02  0.1266605E+00
        -11   -1    0    0    0    0  0.00000000000E+00  0.00000000000E+00  0.45593999997E+02  0.45594000000E+02  0.51100000000E-03 0.  1.
         11   -1    0    0    0    0 -0.00000000000E+00 -0.00000000000E+00 -0.45593999997E+02  0.45594000000E+02  0.51100000000E-03 0. -1.
    9900012    2    1    2    0    0  0.68998685692E+01  0.14812525363E+02  0.27380703219E+02  0.59301921491E+02  0.49999958899E+02 0.  0.
         12    1    1    2    0    0 -0.68998685692E+01 -0.14812525363E+02 -0.27380703219E+02  0.31886078509E+02  0.00000000000E+00 0. -1.
         11    1    3    3    0    0  0.35679886779E+01  0.17012718932E+02  0.92455041646E+01  0.19688638759E+02  0.51100000000E-03 0. -1.
        -11    1    3    3    0    0  0.62017868997E+01 -0.70197415454E+01  0.27303282317E+02  0.28865345272E+02  0.51100000000E-03 0.  1.
        -12    1    3    3    0    0 -0.28699070083E+01  0.48195479757E+01 -0.91680832630E+01  0.10747937460E+02  0.00000000000E+00 0.  1.
</event>
<event>
 7    1  0.7755875E-012  0.5930194E+02  0.7816164E-02  0.1266605E+00
        -11   -1    0    0    0    0  0.00000000000E+00  0.00000000000E+00  0.45593999997E+02  0.45594000000E+02  0.51100000000E-03 0.  1.
         11   -1    0    0    0    0 -0.00000000000E+00 -0.00000000000E+00 -0.45593999997E+02  0.45594000000E+02  0.51100000000E-03 0. -1.
    9900012    2    1    2    0    0 -0.13726407787E+02  0.28625213589E+02  0.29839320904E+01  0.59301937614E+02  0.49999988304E+02 0.  0.
         12    1    1    2    0    0  0.13726407787E+02 -0.28625213589E+02 -0.29839320904E+01  0.31886062386E+02  0.00000000000E+00 0. -1.
         11    1    3    3    0    0 -0.16136928075E+02 -0.32825163704E+01  0.25290889935E+00  0.16469344996E+02  0.51100000000E-03 0. -1.
        -11    1    3    3    0    0  0.85065279452E+01  0.33537096033E+02 -0.24249277744E+01  0.34683974728E+02  0.51100000000E-03 0.  1.
        -12    1    3    3    0    0 -0.60960076570E+01 -0.16293660736E+01  0.51559509654E+01  0.81486178898E+01  0.00000000000E+00 0.  1.
</event>
<event>
 7    1  0.7755875E-012  0.5930194E+02  0.7816164E-02  0.1266605E+00
        -11   -1    0    0    0    0  0.00000000000E+00  0.00000000000E+00  0.45593999997E+02  0.45594000000E+02  0.51100000000E-03 0.  1.
         11   -1    0    0    0    0 -0.00000000000E+00 -0.00000000000E+00 -0.45593999997E+02  0.45594000000E+02  0.51100000000E-03 0. -1.
    9900012    2    1    2    0    0  0.21459687542E+02  0.21613458913E+02  0.94372289965E+01  0.59301935854E+02  0.49999985093E+02 0.  0.
         12    1    1    2    0    0 -0.21459687542E+02 -0.21613458913E+02 -0.94372289965E+01  0.31886064146E+02  0.00000000000E+00 0. -1.
         11    1    3    3    0    0  0.37583505769E+01  0.65610172659E+01 -0.74944148663E+01  0.10646050961E+02  0.51100000000E-03 0. -1.
        -11    1    3    3    0    0 -0.47519166771E+01 -0.76539653959E+01  0.13919943452E+02  0.16580974771E+02  0.51100000000E-03 0.  1.
        -12    1    3    3    0    0  0.22453253642E+02  0.22706407043E+02  0.30117004107E+01  0.32074910121E+02  0.00000000000E+00 0.  1.
</event>
<event>
 7    1  0.7755875E-012  0.5930194E+02  0.7816164E-02  0.1266605E+00
        -11   -1    0    0    0    0  0.00000000000E+00  0.00000000000E+00  0.45593999997E+02  0.45594000000E+02  0.51100000000E-03 0.  1.
         11   -1    0    0    0    0 -0.00000000000E+00 -0.00000000000E+00 -0.45593999997E+02  0.45594000000E+02  0.51100000000E-03 0. -1.
    9900012    2    1    2    0    0  0.15373171438E+02 -0.27745639710E+02 -0.32505243533E+01  0.59301939855E+02  0.49999992390E+02 0.  0.
         12    1    1    2    0    0 -0.15373171438E+02  0.27745639710E+02  0.32505243533E+01  0.31886060145E+02  0.00000000000E+00 0. -1.
         11    1    3    3    0    0  0.15668053288E+02 -0.13564506896E+01 -0.15317248994E+02  0.21953267850E+02  0.51100000000E-03 0. -1.
        -11    1    3    3    0    0  0.28582559843E+01 -0.60766067558E+01  0.15141793805E+02  0.16564078508E+02  0.51100000000E-03 0.  1.
        -12    1    3    3    0    0 -0.31531378339E+01 -0.20312582265E+02 -0.30750691644E+01  0.20784593497E+02  0.00000000000E+00 0.  1.
</event>
<event>
 7    1  0.7755875E-012  0.5930193E+02  0.7816164E-02  0.1266605E+00
        -11   -1    0    0    0    0  0.00000000000E+00  0.00000000000E+00  0.45593999997E+02  0.45594000000E+02  0.51100000000E-03 0.  1.
         11   -1    0    0    0    0 -0.00000000000E+00 -0.00000000000E+00 -0.45593999997E+02  0.45594000000E+02  0.51100000000E-03 0. -1.
    9900012    2    1    2    0    0 -0.97156549466E+00 -0.16063551630E+02  0.27527074391E+02  0.59301930079E+02  0.49999974561E+02 0.  0.
         12    1    1    2    0    0  0.97156549466E+00  0.16063551630E+02 -0.27527074391E+02  0.31886069921E+02  0.00000000000E+00 0. -1.
         11    1    3    3    0    0  0.14407500979E+02  0.75922426349E+01 -0.59573470604E+00  0.16296414722E+02  0.51100000000E-03 0. -1.
        -11    1    3    3    0    0 -0.23485860394E+01 -0.16109936710E+02  0.20347380052E+02  0.26058814102E+02  0.51100000000E-03 0.  1.
         12    1    3    3    0    0 -0.13030480434E+02 -0.75458575544E+01  0.77754290458E+01  0.16946701255E+02  0.00000000000E+00 0. -1.
</event>
<event>
 7    1  0.7755875E-012  0.5930183E+02  0.7816164E-02  0.1266605E+00
        -11   -1    0    0    0    0  0.00000000000E+00  0.00000000000E+00  0.45593999997E+02  0.45594000000E+02  0.51100000000E-03 0.  1.
         11   -1    0    0    0    0 -0.00000000000E+00 -0.00000000000E+00 -0.45593999997E+02  0.45594000000E+02  0.51100000000E-03 0. -1.
    9900012    2    1    2    0    0  0.18432741614E+02  0.20151180066E+02 -0.16458800013E+02  0.59301825577E+02  0.49999783975E+02 0.  0.
         12    1    1    2    0    0 -0.18432741614E+02 -0.20151180066E+02  0.16458800013E+02  0.31886174423E+02  0.00000000000E+00 0. -1.
         11    1    3    3    0    0  0.18913651907E+02 -0.49218251665E+01 -0.11321134021E+02  0.22585806764E+02  0.51100000000E-03 0. -1.
        -11    1    3    3    0    0 -0.43498439233E+01  0.29178499574E+02 -0.77460285832E+01  0.30500933405E+02  0.51100000000E-03 0.  1.
        -12    1    3    3    0    0  0.38689336302E+01 -0.41054943411E+01  0.26083625911E+01  0.62150854078E+01  0.00000000000E+00 0.  1.
</event>
<event>
 7    1  0.7755875E-012  0.5930192E+02  0.7816164E-02  0.1266605E+00
        -11   -1    0    0    0    0  0.00000000000E+00  0.00000000000E+00  0.45593999997E+02  0.45594000000E+02  0.51100000000E-03 0.  1.
         11   -1    0    0    0    0 -0.00000000000E+00 -0.00000000000E+00 -0.45593999997E+02  0.45594000000E+02  0.51100000000E-03 0. -1.
    9900012    2    1    2    0    0 -0.20292883695E+01 -0.30898318019E+02  0.76090608518E+01  0.59301923497E+02  0.49999962557E+02 0.  0.
         12    1    1    2    0    0  0.20292883695E+01  0.30898318019E+02 -0.76090608518E+01  0.31886076503E+02  0.00000000000E+00 0. -1.
         11    1    3    3    0    0  0.36592511366E+01  0.51087173842E+01  0.64099680243E+01  0.89764582395E+01  0.51100000000E-03 0. -1.
        -11    1    3    3    0    0 -0.70329963102E+01 -0.18447417117E+02  0.17459778695E+02  0.26355532772E+02  0.51100000000E-03 0.  1.
        -12    1    3    3    0    0  0.13444568042E+01 -0.17559618287E+02 -0.16260685867E+02  0.23969932485E+02  0.00000000000E+00 0.  1.
</event>
<event>
 7    1  0.7755875E-012  0.5930194E+02  0.7816164E-02  0.1266605E+00
        -11   -1    0    0    0    0  0.00000000000E+00  0.00000000000E+00  0.45593999997E+02  0.45594000000E+02  0.51100000000E-03 0.  1.
         11   -1    0    0    0    0 -0.00000000000E+00 -0.00000000000E+00 -0.45593999997E+02  0.45594000000E+02  0.51100000000E-03 0. -1.
    9900012    2    1    2    0    0  0.30771867469E+02  0.35459377503E+01  0.75656557992E+01  0.59301942707E+02  0.49999997591E+02 0.  0.
         12    1    1    2    0    0 -0.30771867469E+02 -0.35459377503E+01 -0.75656557992E+01  0.31886057293E+02  0.00000000000E+00 0. -1.
         11    1    3    3    0    0  0.19796816106E+02 -0.13357204881E+01 -0.19914748874E+02  0.28112191308E+02  0.51100000000E-03 0. -1.
        -11    1    3    3    0    0  0.54096254954E+01  0.32980830032E+01  0.52792475224E+01  0.82469299840E+01  0.51100000000E-03 0.  1.
         12    1    3    3    0    0  0.55654258667E+01  0.15835752353E+01  0.22201157151E+02  0.22942821414E+02  0.00000000000E+00 0. -1.
</event>
<event>
 7    1  0.7755875E-012  0.5930195E+02  0.7816164E-02  0.1266605E+00
        -11   -1    0    0    0    0  0.00000000000E+00  0.00000000000E+00  0.45593999997E+02  0.45594000000E+02  0.51100000000E-03 0. -1.
         11   -1    0    0    0    0 -0.00000000000E+00 -0.00000000000E+00 -0.45593999997E+02  0.45594000000E+02  0.51100000000E-03 0.  1.
    9900012    2    1    2    0    0 -0.29871495979E+02  0.97763391564E+01  0.53700242165E+01  0.59301949140E+02  0.50000009324E+02 0.  0.
         12    1    1    2    0    0  0.29871495979E+02 -0.97763391564E+01 -0.53700242165E+01  0.31886050860E+02  0.00000000000E+00 0. -1.
         11    1    3    3    0    0 -0.34745612915E+02  0.19883943293E+01  0.18739222456E+02  0.39526823643E+02  0.51100000000E-03 0. -1.
        -11    1    3    3    0    0  0.55140612152E+01  0.43804850568E+01 -0.14507170664E+02  0.16126113027E+02  0.51100000000E-03 0.  1.
        -12    1    3    3    0    0 -0.63994427999E+00  0.34074597703E+01  0.11379724246E+01  0.36490124701E+01  0.00000000000E+00 0.  1.
</event>
<event>
 7    1  0.7755875E-012  0.5930166E+02  0.7816164E-02  0.1266606E+00
        -11   -1    0    0    0    0  0.00000000000E+00  0.00000000000E+00  0.45593999997E+02  0.45594000000E+02  0.51100000000E-03 0.  1.
         11   -1    0    0    0    0 -0.00000000000E+00 -0.00000000000E+00 -0.45593999997E+02  0.45594000000E+02  0.51100000000E-03 0. -1.
    9900012    2    1    2    0    0 -0.15956689762E+02  0.24200023315E+01  0.27500294770E+02  0.59301661673E+02  0.49999485050E+02 0.  0.
         12    1    1    2    0    0  0.15956689762E+02 -0.24200023315E+01 -0.27500294770E+02  0.31886338327E+02  0.00000000000E+00 0. -1.
         11    1    3    3    0    0  0.17849608341E+01 -0.17632533057E+02  0.65520002193E+01  0.18894999717E+02  0.51100000000E-03 0.  1.
        -11    1    3    3    0    0 -0.22649365521E+01  0.15447153191E+02  0.18281142909E+02  0.24040479730E+02  0.51100000000E-03 0. -1.
        -12    1    3    3    0    0 -0.15476714044E+02  0.46053821969E+01  0.26671516416E+01  0.16366182226E+02  0.00000000000E+00 0.  1.
</event>
<event>
 7    1  0.7755875E-012  0.5930195E+02  0.7816164E-02  0.1266605E+00
        -11   -1    0    0    0    0  0.00000000000E+00  0.00000000000E+00  0.45593999997E+02  0.45594000000E+02  0.51100000000E-03 0. -1.
         11   -1    0    0    0    0 -0.00000000000E+00 -0.00000000000E+00 -0.45593999997E+02  0.45594000000E+02  0.51100000000E-03 0.  1.
    9900012    2    1    2    0    0 -0.24242952569E+02 -0.36272026889E+01  0.20392229177E+02  0.59301947259E+02  0.50000005892E+02 0.  0.
         12    1    1    2    0    0  0.24242952569E+02  0.36272026889E+01 -0.20392229177E+02  0.31886052741E+02  0.00000000000E+00 0. -1.
         11    1    3    3    0    0  0.80577086514E+01  0.93086414004E+01  0.31943892850E+01  0.12719339472E+02  0.51100000000E-03 0. -1.
        -11    1    3    3    0    0 -0.23976466507E+02 -0.11086288859E+02 -0.10546189699E+01  0.26436508247E+02  0.51100000000E-03 0.  1.
         12    1    3    3    0    0 -0.83241947133E+01 -0.18495552300E+01  0.18252458862E+02  0.20146099540E+02  0.00000000000E+00 0. -1.
</event>
<event>
 7    1  0.7755875E-012  0.5930194E+02  0.7816164E-02  0.1266605E+00
        -11   -1    0    0    0    0  0.00000000000E+00  0.00000000000E+00  0.45593999997E+02  0.45594000000E+02  0.51100000000E-03 0. -1.
         11   -1    0    0    0    0 -0.00000000000E+00 -0.00000000000E+00 -0.45593999997E+02  0.45594000000E+02  0.51100000000E-03 0.  1.
    9900012    2    1    2    0    0  0.48297675421E+01 -0.30883547329E+02 -0.62929121085E+01  0.59301938892E+02  0.49999990634E+02 0.  0.
         12    1    1    2    0    0 -0.48297675421E+01  0.30883547329E+02  0.62929121085E+01  0.31886061108E+02  0.00000000000E+00 0. -1.
         11    1    3    3    0    0 -0.14759403602E+02 -0.92158214037E+01  0.89595246944E+01  0.19571521194E+02  0.51100000000E-03 0. -1.
        -11    1    3    3    0    0  0.13841597332E+02 -0.23937442055E+02 -0.17972444401E+02  0.32978776612E+02  0.51100000000E-03 0.  1.
        -12    1    3    3    0    0  0.57475738118E+01  0.22697161291E+01  0.27200075982E+01  0.67516410866E+01  0.00000000000E+00 0.  1.
</event>
<event>
 7    1  0.7755875E-012  0.5930196E+02  0.7816164E-02  0.1266605E+00
        -11   -1    0    0    0    0  0.00000000000E+00  0.00000000000E+00  0.45593999997E+02  0.45594000000E+02  0.51100000000E-03 0.  1.
         11   -1    0    0    0    0 -0.00000000000E+00 -0.00000000000E+00 -0.45593999997E+02  0.45594000000E+02  0.51100000000E-03 0. -1.
    9900012    2    1    2    0    0 -0.14093066568E+02 -0.19936456729E+02  0.20509581133E+02  0.59301956808E+02  0.50000023308E+02 0.  0.
         12    1    1    2    0    0  0.14093066568E+02  0.19936456729E+02 -0.20509581133E+02  0.31886043192E+02  0.00000000000E+00 0. -1.
         11    1    3    3    0    0 -0.66884625480E+01  0.85771815556E+01 -0.10879447411E+02  0.15383951083E+02  0.51100000000E-03 0. -1.
        -11    1    3    3    0    0 -0.79887638744E+01 -0.17104840957E+02  0.22940150279E+02  0.29709365989E+02  0.51100000000E-03 0.  1.
        -12    1    3    3    0    0  0.58415985452E+00 -0.11408797328E+02  0.84488782648E+01  0.14208639736E+02  0.00000000000E+00 0.  1.
</event>
<event>
 7    1  0.7755875E-012  0.5930192E+02  0.7816164E-02  0.1266605E+00
        -11   -1    0    0    0    0  0.00000000000E+00  0.00000000000E+00  0.45593999997E+02  0.45594000000E+02  0.51100000000E-03 0. -1.
         11   -1    0    0    0    0 -0.00000000000E+00 -0.00000000000E+00 -0.45593999997E+02  0.45594000000E+02  0.51100000000E-03 0.  1.
    9900012    2    1    2    0    0 -0.17402229378E+02  0.69791161905E+01 -0.25791012933E+02  0.59301921561E+02  0.49999959025E+02 0.  0.
         12    1    1    2    0    0  0.17402229378E+02 -0.69791161905E+01  0.25791012933E+02  0.31886078439E+02  0.00000000000E+00 0. -1.
         11    1    3    3    0    0 -0.91223068623E+01  0.18531235751E+02 -0.30534241967E+00  0.20657115365E+02  0.51100000000E-03 0. -1.
        -11    1    3    3    0    0  0.89877908885E+01 -0.23980759575E+01 -0.10419315837E+02  0.13967580182E+02  0.51100000000E-03 0.  1.
         12    1    3    3    0    0 -0.17267713404E+02 -0.91540436034E+01 -0.15066354677E+02  0.24677226014E+02  0.00000000000E+00 0. -1.
</event>
<event>
 7    1  0.7755875E-012  0.5930194E+02  0.7816164E-02  0.1266605E+00
        -11   -1    0    0    0    0  0.00000000000E+00  0.00000000000E+00  0.45593999997E+02  0.45594000000E+02  0.51100000000E-03 0. -1.
         11   -1    0    0    0    0 -0.00000000000E+00 -0.00000000000E+00 -0.45593999997E+02  0.45594000000E+02  0.51100000000E-03 0.  1.
    9900012    2    1    2    0    0 -0.28677853160E+02 -0.70979962028E+01 -0.11996655776E+02  0.59301944086E+02  0.50000000106E+02 0.  0.
         12    1    1    2    0    0  0.28677853160E+02  0.70979962028E+01  0.11996655776E+02  0.31886055914E+02  0.00000000000E+00 0. -1.
         11    1    3    3    0    0 -0.11488069639E+02  0.10170128700E+02 -0.35407147970E+01  0.15746235212E+02  0.51100000000E-03 0. -1.
        -11    1    3    3    0    0 -0.25978912401E+02 -0.14576275013E+02  0.17254673273E+01  0.29838715129E+02  0.51100000000E-03 0.  1.
        -12    1    3    3    0    0  0.87891288807E+01 -0.26918498897E+01 -0.10181408306E+02  0.13716993745E+02  0.00000000000E+00 0.  1.
</event>
<event>
 7    1  0.7755875E-012  0.5930194E+02  0.7816164E-02  0.1266605E+00
        -11   -1    0    0    0    0  0.00000000000E+00  0.00000000000E+00  0.45593999997E+02  0.45594000000E+02  0.51100000000E-03 0. -1.
         11   -1    0    0    0    0 -0.00000000000E+00 -0.00000000000E+00 -0.45593999997E+02  0.45594000000E+02  0.51100000000E-03 0.  1.
    9900012    2    1    2    0    0 -0.14755600766E+02 -0.14465104830E+02 -0.24284853411E+02  0.59301935381E+02  0.49999984230E+02 0.  0.
         12    1    1    2    0    0  0.14755600766E+02  0.14465104830E+02  0.24284853411E+02  0.31886064619E+02  0.00000000000E+00 0. -1.
         11    1    3    3    0    0 -0.13594076977E+02 -0.26042357275E+02 -0.14873896014E+01  0.29414547921E+02  0.51100000000E-03 0. -1.
        -11    1    3    3    0    0  0.43879313264E+01  0.37592360142E+01 -0.18499240900E+02  0.19380601406E+02  0.51100000000E-03 0.  1.
         12    1    3    3    0    0 -0.55494551158E+01  0.78180164311E+01 -0.42982229091E+01  0.10506786054E+02  0.00000000000E+00 0. -1.
</event>
<event>
 7    1  0.7755875E-012  0.5930194E+02  0.7816164E-02  0.1266605E+00
        -11   -1    0    0    0    0  0.00000000000E+00  0.00000000000E+00  0.45593999997E+02  0.45594000000E+02  0.51100000000E-03 0.  1.
         11   -1    0    0    0    0 -0.00000000000E+00 -0.00000000000E+00 -0.45593999997E+02  0.45594000000E+02  0.51100000000E-03 0. -1.
    9900012    2    1    2    0    0 -0.72071896128E+01  0.28033413950E+02 -0.13375540653E+02  0.59301937722E+02  0.49999988501E+02 0.  0.
         12    1    1    2    0    0  0.72071896128E+01 -0.28033413950E+02  0.13375540653E+02  0.31886062278E+02  0.00000000000E+00 0. -1.
         11    1    3    3    0    0 -0.38590007911E+01 -0.81862745955E+01 -0.15037260401E+02  0.17550674617E+02  0.51100000000E-03 0. -1.
        -11    1    3    3    0    0 -0.11896486882E+02  0.17806935618E+02  0.61988343239E+00  0.21424229554E+02  0.51100000000E-03 0.  1.
         12    1    3    3    0    0  0.85482980607E+01  0.18412752927E+02  0.10418363160E+01  0.20327033551E+02  0.00000000000E+00 0. -1.
</event>
<event>
 7    1  0.7755875E-012  0.5930195E+02  0.7816164E-02  0.1266605E+00
        -11   -1    0    0    0    0  0.00000000000E+00  0.00000000000E+00  0.45593999997E+02  0.45594000000E+02  0.51100000000E-03 0.  1.
         11   -1    0    0    0    0 -0.00000000000E+00 -0.00000000000E+00 -0.45593999997E+02  0.45594000000E+02  0.51100000000E-03 0. -1.
    9900012    2    1    2    0    0  0.56706416128E+01  0.15238233164E+02  0.27429189459E+02  0.59301947239E+02  0.50000005857E+02 0.  0.
         12    1    1    2    0    0 -0.56706416128E+01 -0.15238233164E+02 -0.27429189459E+02  0.31886052761E+02  0.00000000000E+00 0. -1.
         11    1    3    3    0    0 -0.16142693093E+02  0.60637119332E+01  0.12054863896E+01  0.17286073597E+02  0.51100000000E-03 0. -1.
        -11    1    3    3    0    0  0.78678879442E+01 -0.75650652637E+01  0.10516622546E+02  0.15156952965E+02  0.51100000000E-03 0.  1.
         12    1    3    3    0    0  0.13945446762E+02  0.16739586494E+02  0.15707080524E+02  0.26858920678E+02  0.00000000000E+00 0. -1.
</event>
<event>
 7    1  0.7755875E-012  0.5930197E+02  0.7816164E-02  0.1266605E+00
        -11   -1    0    0    0    0  0.00000000000E+00  0.00000000000E+00  0.45593999997E+02  0.45594000000E+02  0.51100000000E-03 0. -1.
         11   -1    0    0    0    0 -0.00000000000E+00 -0.00000000000E+00 -0.45593999997E+02  0.45594000000E+02  0.51100000000E-03 0.  1.
    9900012    2    1    2    0    0 -0.20089270213E+00  0.10513793657E+02 -0.30102136717E+02  0.59301970930E+02  0.50000049063E+02 0.  0.
         12    1    1    2    0    0  0.20089270213E+00 -0.10513793657E+02  0.30102136717E+02  0.31886029070E+02  0.00000000000E+00 0. -1.
         11    1    3    3    0    0  0.12941224901E+01 -0.42655473482E+01  0.37175094669E+01  0.58042677486E+01  0.51100000000E-03 0. -1.
        -11    1    3    3    0    0  0.96479360651E+01  0.53668157791E+01 -0.36962991669E+02  0.38576523111E+02  0.51100000000E-03 0.  1.
        -12    1    3    3    0    0 -0.11142951257E+02  0.94125252263E+01  0.31433454849E+01  0.14921180070E+02  0.00000000000E+00 0.  1.
</event>
<event>
 7    1  0.7755875E-012  0.5930193E+02  0.7816164E-02  0.1266605E+00
        -11   -1    0    0    0    0  0.00000000000E+00  0.00000000000E+00  0.45593999997E+02  0.45594000000E+02  0.51100000000E-03 0.  1.
         11   -1    0    0    0    0 -0.00000000000E+00 -0.00000000000E+00 -0.45593999997E+02  0.45594000000E+02  0.51100000000E-03 0. -1.
    9900012    2    1    2    0    0 -0.21548830896E+02  0.21330948771E+02  0.98671170143E+01  0.59301929583E+02  0.49999973656E+02 0.  0.
         12    1    1    2    0    0  0.21548830896E+02 -0.21330948771E+02 -0.98671170143E+01  0.31886070417E+02  0.00000000000E+00 0. -1.
         11    1    3    3    0    0  0.33573070715E+01  0.53331194588E+00  0.65087043512E+01  0.73429670431E+01  0.51100000000E-03 0. -1.
        -11    1    3    3    0    0 -0.21607383890E+02  0.77794438453E+01 -0.16292447886E+02  0.28157461595E+02  0.51100000000E-03 0.  1.
        -12    1    3    3    0    0 -0.32987540777E+01  0.13018192980E+02  0.19650860549E+02  0.23801500945E+02  0.00000000000E+00 0.  1.
</event>
<event>
 7    1  0.7755875E-012  0.5930193E+02  0.7816164E-02  0.1266605E+00
        -11   -1    0    0    0    0  0.00000000000E+00  0.00000000000E+00  0.45593999997E+02  0.45594000000E+02  0.51100000000E-03 0. -1.
         11   -1    0    0    0    0 -0.00000000000E+00 -0.00000000000E+00 -0.45593999997E+02  0.45594000000E+02  0.51100000000E-03 0.  1.
    9900012    2    1    2    0    0  0.11222106849E+02  0.23512227468E+02  0.18383709745E+02  0.59301932406E+02  0.49999978804E+02 0.  0.
         12    1    1    2    0    0 -0.11222106849E+02 -0.23512227468E+02 -0.18383709745E+02  0.31886067594E+02  0.00000000000E+00 0. -1.
         11    1    3    3    0    0 -0.67224715805E+01  0.89419175683E+01  0.10284410129E+02  0.15196006249E+02  0.51100000000E-03 0. -1.
        -11    1    3    3    0    0  0.24050232120E+02  0.20314693864E+02 -0.13034978295E+01  0.31508721946E+02  0.51100000000E-03 0.  1.
        -12    1    3    3    0    0 -0.61056536907E+01 -0.57443839647E+01  0.94027974456E+01  0.12597204211E+02  0.00000000000E+00 0.  1.
</event>
<event>
 7    1  0.7755875E-012  0.5930194E+02  0.7816164E-02  0.1266605E+00
        -11   -1    0    0    0    0  0.00000000000E+00  0.00000000000E+00  0.45593999997E+02  0.45594000000E+02  0.51100000000E-03 0. -1.
         11   -1    0    0    0    0 -0.00000000000E+00 -0.00000000000E+00 -0.45593999997E+02  0.45594000000E+02  0.51100000000E-03 0.  1.
    9900012    2    1    2    0    0 -0.14019401701E+02  0.81009113755E+00 -0.28627271128E+02  0.59301944679E+02  0.50000001187E+02 0.  0.
         12    1    1    2    0    0  0.14019401701E+02 -0.81009113755E+00  0.28627271128E+02  0.31886055321E+02  0.00000000000E+00 0. -1.
         11    1    3    3    0    0 -0.18839086746E+02 -0.50749642256E+01 -0.26520130804E+02  0.32923909085E+02  0.51100000000E-03 0. -1.
        -11    1    3    3    0    0  0.13782412694E+02  0.93086631493E+01 -0.42208212422E+00  0.16636834521E+02  0.51100000000E-03 0.  1.
        -12    1    3    3    0    0 -0.89627276501E+01 -0.34236077862E+01 -0.16850581997E+01  0.97412010728E+01  0.00000000000E+00 0.  1.
</event>
<event>
 7    1  0.7755875E-012  0.5930195E+02  0.7816164E-02  0.1266605E+00
        -11   -1    0    0    0    0  0.00000000000E+00  0.00000000000E+00  0.45593999997E+02  0.45594000000E+02  0.51100000000E-03 0. -1.
         11   -1    0    0    0    0 -0.00000000000E+00 -0.00000000000E+00 -0.45593999997E+02  0.45594000000E+02  0.51100000000E-03 0.  1.
    9900012    2    1    2    0    0 -0.17213520831E+02  0.26188525291E+02 -0.58801216791E+01  0.59301953095E+02  0.50000016536E+02 0.  0.
         12    1    1    2    0    0  0.17213520831E+02 -0.26188525291E+02  0.58801216791E+01  0.31886046905E+02  0.00000000000E+00 0. -1.
         11    1    3    3    0    0  0.11401138891E+02 -0.25731544728E+01 -0.63858351753E+01  0.13318632929E+02  0.51100000000E-03 0. -1.
        -11    1    3    3    0    0 -0.17565644827E+02  0.87272862091E+01 -0.85244658020E+01  0.21386535957E+02  0.51100000000E-03 0.  1.
         12    1    3    3    0    0 -0.11049014895E+02  0.20034393554E+02  0.90301792983E+01  0.24596784208E+02  0.00000000000E+00 0. -1.
</event>
<event>
 7    1  0.7755875E-012  0.5930196E+02  0.7816164E-02  0.1266605E+00
        -11   -1    0    0    0    0  0.00000000000E+00  0.00000000000E+00  0.45593999997E+02  0.45594000000E+02  0.51100000000E-03 0. -1.
         11   -1    0    0    0    0 -0.00000000000E+00 -0.00000000000E+00 -0.45593999997E+02  0.45594000000E+02  0.51100000000E-03 0.  1.
    9900012    2    1    2    0    0  0.45193432540E+01  0.18543572248E+02 -0.25542731582E+02  0.59301958040E+02  0.50000025556E+02 0.  0.
         12    1    1    2    0    0 -0.45193432540E+01 -0.18543572248E+02  0.25542731582E+02  0.31886041960E+02  0.00000000000E+00 0. -1.
         11    1    3    3    0    0 -0.19739758873E+02  0.34239226456E+01  0.25869180039E+00  0.20036173496E+02  0.51100000000E-03 0. -1.
        -11    1    3    3    0    0  0.15138402570E+02  0.77281260585E+01 -0.19754460254E+02  0.26060196947E+02  0.51100000000E-03 0.  1.
        -12    1    3    3    0    0  0.91206995568E+01  0.73915235444E+01 -0.60469631285E+01  0.13205587597E+02  0.00000000000E+00 0.  1.
</event>
<event>
 7    1  0.7755875E-012  0.5930190E+02  0.7816164E-02  0.1266605E+00
        -11   -1    0    0    0    0  0.00000000000E+00  0.00000000000E+00  0.45593999997E+02  0.45594000000E+02  0.51100000000E-03 0.  1.
         11   -1    0    0    0    0 -0.00000000000E+00 -0.00000000000E+00 -0.45593999997E+02  0.45594000000E+02  0.51100000000E-03 0. -1.
    9900012    2    1    2    0    0 -0.14434097763E+02  0.14732777692E+00  0.28431649391E+02  0.59301896901E+02  0.49999914053E+02 0.  0.
         12    1    1    2    0    0  0.14434097763E+02 -0.14732777692E+00 -0.28431649391E+02  0.31886103099E+02  0.00000000000E+00 0. -1.
         11    1    3    3    0    0 -0.16480144364E+00 -0.32063727144E+01 -0.51524305376E+01  0.60708752421E+01  0.51100000000E-03 0. -1.
        -11    1    3    3    0    0  0.26763817406E+01 -0.31423364869E+01  0.34798371087E+02  0.35042316253E+02  0.51100000000E-03 0.  1.
        -12    1    3    3    0    0 -0.16945678060E+02  0.64960369782E+01 -0.12142911582E+01  0.18188705406E+02  0.00000000000E+00 0.  1.
</event>
<event>
 7    1  0.7755875E-012  0.5930197E+02  0.7816164E-02  0.1266605E+00
        -11   -1    0    0    0    0  0.00000000000E+00  0.00000000000E+00  0.45593999997E+02  0.45594000000E+02  0.51100000000E-03 0.  1.
         11   -1    0    0    0    0 -0.00000000000E+00 -0.00000000000E+00 -0.45593999997E+02  0.45594000000E+02  0.51100000000E-03 0. -1.
    9900012    2    1    2    0    0 -0.26089742772E+02  0.17339165342E+02  0.59496008627E+01  0.59301967272E+02  0.50000042392E+02 0.  0.
         12    1    1    2    0    0  0.26089742772E+02 -0.17339165342E+02 -0.59496008627E+01  0.31886032728E+02  0.00000000000E+00 0. -1.
         11    1    3    3    0    0 -0.30151393175E+02 -0.10986417782E+01 -0.63727793029E+01  0.30837085473E+02  0.51100000000E-03 0. -1.
        -11    1    3    3    0    0  0.13076388258E+01  0.21037713853E+02  0.75891686083E+01  0.22402919540E+02  0.51100000000E-03 0.  1.
         12    1    3    3    0    0  0.27540115775E+01 -0.25999067327E+01  0.47332115572E+01  0.60619622593E+01  0.00000000000E+00 0. -1.
</event>
<event>
 7    1  0.7755875E-012  0.5930194E+02  0.7816164E-02  0.1266605E+00
        -11   -1    0    0    0    0  0.00000000000E+00  0.00000000000E+00  0.45593999997E+02  0.45594000000E+02  0.51100000000E-03 0.  1.
         11   -1    0    0    0    0 -0.00000000000E+00 -0.00000000000E+00 -0.45593999997E+02  0.45594000000E+02  0.51100000000E-03 0. -1.
    9900012    2    1    2    0    0 -0.65339226856E+01 -0.14581609717E+02  0.27593576778E+02  0.59301937731E+02  0.49999988516E+02 0.  0.
         12    1    1    2    0    0  0.65339226856E+01  0.14581609717E+02 -0.27593576778E+02  0.31886062269E+02  0.00000000000E+00 0. -1.
         11    1    3    3    0    0  0.19245963210E+02 -0.11150671982E+02  0.21810086650E+02  0.31151636643E+02  0.51100000000E-03 0. -1.
        -11    1    3    3    0    0 -0.17340785438E+02 -0.67391592418E+00  0.78314194538E+01  0.19039121125E+02  0.51100000000E-03 0.  1.
         12    1    3    3    0    0 -0.84391004581E+01 -0.27570218108E+01 -0.20479293260E+01  0.91111799637E+01  0.00000000000E+00 0. -1.
</event>
<event>
 7    1  0.7755875E-012  0.5930196E+02  0.7816164E-02  0.1266605E+00
        -11   -1    0    0    0    0  0.00000000000E+00  0.00000000000E+00  0.45593999997E+02  0.45594000000E+02  0.51100000000E-03 0. -1.
         11   -1    0    0    0    0 -0.00000000000E+00 -0.00000000000E+00 -0.45593999997E+02  0.45594000000E+02  0.51100000000E-03 0.  1.
    9900012    2    1    2    0    0 -0.22519656138E+02  0.18980714302E+02 -0.12219545821E+02  0.59301957159E+02  0.50000023949E+02 0.  0.
         12    1    1    2    0    0  0.22519656138E+02 -0.18980714302E+02  0.12219545821E+02  0.31886042841E+02  0.00000000000E+00 0. -1.
         11    1    3    3    0    0 -0.24321936101E+02  0.16938522743E+02 -0.17957320032E+01  0.29693345755E+02  0.51100000000E-03 0. -1.
        -11    1    3    3    0    0  0.72978496210E+01 -0.10927216098E+02 -0.77994813598E+01  0.15280529130E+02  0.51100000000E-03 0.  1.
        -12    1    3    3    0    0 -0.54955696579E+01  0.12969407657E+02 -0.26243324578E+01  0.14328082275E+02  0.00000000000E+00 0.  1.
</event>
<event>
 7    1  0.7755875E-012  0.5930195E+02  0.7816164E-02  0.1266605E+00
        -11   -1    0    0    0    0  0.00000000000E+00  0.00000000000E+00  0.45593999997E+02  0.45594000000E+02  0.51100000000E-03 0. -1.
         11   -1    0    0    0    0 -0.00000000000E+00 -0.00000000000E+00 -0.45593999997E+02  0.45594000000E+02  0.51100000000E-03 0.  1.
    9900012    2    1    2    0    0 -0.26412586594E+02 -0.14172866779E+02 -0.10873152576E+02  0.59301947716E+02  0.50000006727E+02 0.  0.
         12    1    1    2    0    0  0.26412586594E+02  0.14172866779E+02  0.10873152576E+02  0.31886052284E+02  0.00000000000E+00 0. -1.
         11    1    3    3    0    0  0.64805019099E+01 -0.14688445184E+02 -0.13971154235E+02  0.21282398310E+02  0.51100000000E-03 0. -1.
        -11    1    3    3    0    0 -0.30039219735E+02 -0.33208071393E+01  0.79055350582E+01  0.31239077566E+02  0.51100000000E-03 0.  1.
         12    1    3    3    0    0 -0.28538687687E+01  0.38363855438E+01 -0.48075333991E+01  0.67804718400E+01  0.00000000000E+00 0. -1.
</event>
<event>
 7    1  0.7755875E-012  0.5930193E+02  0.7816164E-02  0.1266605E+00
        -11   -1    0    0    0    0  0.00000000000E+00  0.00000000000E+00  0.45593999997E+02  0.45594000000E+02  0.51100000000E-03 0. -1.
         11   -1    0    0    0    0 -0.00000000000E+00 -0.00000000000E+00 -0.45593999997E+02  0.45594000000E+02  0.51100000000E-03 0.  1.
    9900012    2    1    2    0    0  0.58093756647E+01  0.31033264546E+02  0.44619555102E+01  0.59301930927E+02  0.49999976107E+02 0.  0.
         12    1    1    2    0    0 -0.58093756647E+01 -0.31033264546E+02 -0.44619555102E+01  0.31886069073E+02  0.00000000000E+00 0. -1.
         11    1    3    3    0    0 -0.12223133708E+01 -0.50508444990E+01 -0.10471288221E+02  0.11689865585E+02  0.51100000000E-03 0. -1.
        -11    1    3    3    0    0  0.12690797285E+02  0.13542075729E+02  0.15771567027E+02  0.24355419880E+02  0.51100000000E-03 0.  1.
        -12    1    3    3    0    0 -0.56591082498E+01  0.22542033315E+02 -0.83832329648E+00  0.23256645462E+02  0.00000000000E+00 0.  1.
</event>
<event>
 7    1  0.7755875E-012  0.5930194E+02  0.7816164E-02  0.1266605E+00
        -11   -1    0    0    0    0  0.00000000000E+00  0.00000000000E+00  0.45593999997E+02  0.45594000000E+02  0.51100000000E-03 0. -1.
         11   -1    0    0    0    0 -0.00000000000E+00 -0.00000000000E+00 -0.45593999997E+02  0.45594000000E+02  0.51100000000E-03 0.  1.
    9900012    2    1    2    0    0  0.18365862535E+00  0.17839609312E+02 -0.26427925119E+02  0.59301943220E+02  0.49999998527E+02 0.  0.
         12    1    1    2    0    0 -0.18365862535E+00 -0.17839609312E+02  0.26427925119E+02  0.31886056780E+02  0.00000000000E+00 0. -1.
         11    1    3    3    0    0  0.73705451060E+01  0.40488164894E+01 -0.67052902201E+01  0.10755406423E+02  0.51100000000E-03 0. -1.
        -11    1    3    3    0    0 -0.14932179657E+02  0.17745172997E+02  0.37697451226E+01  0.23496215282E+02  0.51100000000E-03 0.  1.
        -12    1    3    3    0    0  0.77452931767E+01 -0.39543801743E+01 -0.23492380021E+02  0.25050321515E+02  0.00000000000E+00 0.  1.
</event>
<event>
 7    1  0.7755875E-012  0.5930194E+02  0.7816164E-02  0.1266605E+00
        -11   -1    0    0    0    0  0.00000000000E+00  0.00000000000E+00  0.45593999997E+02  0.45594000000E+02  0.51100000000E-03 0.  1.
         11   -1    0    0    0    0 -0.00000000000E+00 -0.00000000000E+00 -0.45593999997E+02  0.45594000000E+02  0.51100000000E-03 0. -1.
    9900012    2    1    2    0    0 -0.24135603227E+02  0.14704093859E+02  0.14764242392E+02  0.59301943914E+02  0.49999999792E+02 0.  0.
         12    1    1    2    0    0  0.24135603227E+02 -0.14704093859E+02 -0.14764242392E+02  0.31886056086E+02  0.00000000000E+00 0. -1.
         11    1    3    3    0    0  0.10240252339E+02  0.81890984670E+01  0.23338186845E+00  0.13114059975E+02  0.51100000000E-03 0. -1.
        -11    1    3    3    0    0 -0.17467110092E+02  0.66412293874E+01 -0.59661129028E+01  0.19616329070E+02  0.51100000000E-03 0.  1.
        -12    1    3    3    0    0 -0.16908745474E+02 -0.12623399585E+00  0.20496973427E+02  0.26571554869E+02  0.00000000000E+00 0.  1.
</event>
<event>
 7    1  0.7755875E-012  0.5930202E+02  0.7816164E-02  0.1266605E+00
        -11   -1    0    0    0    0  0.00000000000E+00  0.00000000000E+00  0.45593999997E+02  0.45594000000E+02  0.51100000000E-03 0.  1.
         11   -1    0    0    0    0 -0.00000000000E+00 -0.00000000000E+00 -0.45593999997E+02  0.45594000000E+02  0.51100000000E-03 0. -1.
    9900012    2    1    2    0    0 -0.99629429642E+01 -0.20131186230E+02  0.22631636516E+02  0.59302017768E+02  0.50000134484E+02 0.  0.
         12    1    1    2    0    0  0.99629429642E+01  0.20131186230E+02 -0.22631636516E+02  0.31885982232E+02  0.00000000000E+00 0. -1.
         11    1    3    3    0    0  0.84282296147E+01 -0.39995400564E+01  0.29440689585E+02  0.30883419153E+02  0.51100000000E-03 0. -1.
        -11    1    3    3    0    0 -0.10578273237E+02 -0.86193013515E+01  0.28048720030E+01  0.13930525032E+02  0.51100000000E-03 0.  1.
         12    1    3    3    0    0 -0.78128993420E+01 -0.75123448217E+01 -0.96139250717E+01  0.14488073583E+02  0.00000000000E+00 0. -1.
</event>
<event>
 7    1  0.7755875E-012  0.5930216E+02  0.7816164E-02  0.1266604E+00
        -11   -1    0    0    0    0  0.00000000000E+00  0.00000000000E+00  0.45593999997E+02  0.45594000000E+02  0.51100000000E-03 0. -1.
         11   -1    0    0    0    0 -0.00000000000E+00 -0.00000000000E+00 -0.45593999997E+02  0.45594000000E+02  0.51100000000E-03 0.  1.
    9900012    2    1    2    0    0 -0.28503319953E+02  0.70078554264E+01 -0.12456227695E+02  0.59302158402E+02  0.50000390966E+02 0.  0.
         12    1    1    2    0    0  0.28503319953E+02 -0.70078554264E+01  0.12456227695E+02  0.31885841598E+02  0.00000000000E+00 0. -1.
         11    1    3    3    0    0  0.23420627036E+01  0.17824806351E+01 -0.28153119663E+01  0.40728953645E+01  0.51100000000E-03 0. -1.
        -11    1    3    3    0    0 -0.10648150267E+02 -0.17873397309E+02 -0.12730211612E+02  0.24390566279E+02  0.51100000000E-03 0.  1.
        -12    1    3    3    0    0 -0.20197232389E+02  0.23098772100E+02  0.30892958839E+01  0.30838696758E+02  0.00000000000E+00 0.  1.
</event>
<event>
 7    1  0.7755875E-012  0.5930195E+02  0.7816164E-02  0.1266605E+00
        -11   -1    0    0    0    0  0.00000000000E+00  0.00000000000E+00  0.45593999997E+02  0.45594000000E+02  0.51100000000E-03 0.  1.
         11   -1    0    0    0    0 -0.00000000000E+00 -0.00000000000E+00 -0.45593999997E+02  0.45594000000E+02  0.51100000000E-03 0. -1.
    9900012    2    1    2    0    0  0.22966828188E+02  0.17962077017E+02  0.12907702897E+02  0.59301949730E+02  0.50000010399E+02 0.  0.
         12    1    1    2    0    0 -0.22966828188E+02 -0.17962077017E+02 -0.12907702897E+02  0.31886050270E+02  0.00000000000E+00 0. -1.
         11    1    3    3    0    0  0.96253136043E+01  0.58649147167E+01 -0.15088978933E+02  0.18834042904E+02  0.51100000000E-03 0. -1.
        -11    1    3    3    0    0  0.53018312783E+01 -0.54986301087E+01  0.15932691866E+02  0.17669041240E+02  0.51100000000E-03 0.  1.
        -12    1    3    3    0    0  0.80396833051E+01  0.17595792409E+02  0.12063989964E+02  0.22798865585E+02  0.00000000000E+00 0.  1.
</event>
<event>
 7    1  0.7755875E-012  0.5930192E+02  0.7816164E-02  0.1266605E+00
        -11   -1    0    0    0    0  0.00000000000E+00  0.00000000000E+00  0.45593999997E+02  0.45594000000E+02  0.51100000000E-03 0. -1.
         11   -1    0    0    0    0 -0.00000000000E+00 -0.00000000000E+00 -0.45593999997E+02  0.45594000000E+02  0.51100000000E-03 0.  1.
    9900012    2    1    2    0    0  0.21717624860E+02  0.21740735986E+02 -0.85092428714E+01  0.59301920827E+02  0.49999957688E+02 0.  0.
         12    1    1    2    0    0 -0.21717624860E+02 -0.21740735986E+02  0.85092428714E+01  0.31886079173E+02  0.00000000000E+00 0. -1.
         11    1    3    3    0    0  0.16575962747E+02  0.22122795242E+02  0.13538571590E+02  0.30781057995E+02  0.51100000000E-03 0. -1.
        -11    1    3    3    0    0 -0.42649274672E+01  0.40577443579E+01 -0.25364575826E+01  0.64100322077E+01  0.51100000000E-03 0.  1.
         12    1    3    3    0    0  0.94065895804E+01 -0.44398036139E+01 -0.19511356879E+02  0.22110830625E+02  0.00000000000E+00 0. -1.
</event>
<event>
 7    1  0.7755875E-012  0.5930196E+02  0.7816164E-02  0.1266605E+00
        -11   -1    0    0    0    0  0.00000000000E+00  0.00000000000E+00  0.45593999997E+02  0.45594000000E+02  0.51100000000E-03 0.  1.
         11   -1    0    0    0    0 -0.00000000000E+00 -0.00000000000E+00 -0.45593999997E+02  0.45594000000E+02  0.51100000000E-03 0. -1.
    9900012    2    1    2    0    0 -0.15120302558E+02  0.26842795558E+02 -0.82194937667E+01  0.59301963862E+02  0.50000036173E+02 0.  0.
         12    1    1    2    0    0  0.15120302558E+02 -0.26842795558E+02  0.82194937667E+01  0.31886036138E+02  0.00000000000E+00 0. -1.
         11    1    3    3    0    0  0.10900636223E+01 -0.41015203779E+00 -0.91351232873E+01  0.92090684182E+01  0.51100000000E-03 0. -1.
        -11    1    3    3    0    0 -0.10493460520E+02  0.37131930093E+02 -0.51547920857E+00  0.38589618619E+02  0.51100000000E-03 0.  1.
        -12    1    3    3    0    0 -0.57169056609E+01 -0.98789824970E+01  0.14311087292E+01  0.11503276825E+02  0.00000000000E+00 0.  1.
</event>
<event>
 7    1  0.7755875E-012  0.5930196E+02  0.7816164E-02  0.1266605E+00
        -11   -1    0    0    0    0  0.00000000000E+00  0.00000000000E+00  0.45593999997E+02  0.45594000000E+02  0.51100000000E-03 0. -1.
         11   -1    0    0    0    0 -0.00000000000E+00 -0.00000000000E+00 -0.45593999997E+02  0.45594000000E+02  0.51100000000E-03 0.  1.
    9900012    2    1    2    0    0 -0.16678160749E+02  0.14122762677E+02 -0.23218662938E+02  0.59301956340E+02  0.50000022455E+02 0.  0.
         12    1    1    2    0    0  0.16678160749E+02 -0.14122762677E+02  0.23218662938E+02  0.31886043660E+02  0.00000000000E+00 0. -1.
         11    1    3    3    0    0  0.48310845434E+00  0.86782409895E+01 -0.42987665560E+01  0.96966310961E+01  0.51100000000E-03 0. -1.
        -11    1    3    3    0    0 -0.18186695375E+02 -0.34325255018E+01  0.87907980775E+01  0.20489418027E+02  0.51100000000E-03 0.  1.
        -12    1    3    3    0    0  0.10254261715E+01  0.88770471898E+01 -0.27710694460E+02  0.29115907217E+02  0.00000000000E+00 0.  1.
</event>
<event>
 7    1  0.7755875E-012  0.5930189E+02  0.7816164E-02  0.1266605E+00
        -11   -1    0    0    0    0  0.00000000000E+00  0.00000000000E+00  0.45593999997E+02  0.45594000000E+02  0.51100000000E-03 0. -1.
         11   -1    0    0    0    0 -0.00000000000E+00 -0.00000000000E+00 -0.45593999997E+02  0.45594000000E+02  0.51100000000E-03 0.  1.
    9900012    2    1    2    0    0 -0.12151752225E+02 -0.71904944402E+01 -0.28589435314E+02  0.59301888541E+02  0.49999898805E+02 0.  0.
         12    1    1    2    0    0  0.12151752225E+02  0.71904944402E+01  0.28589435314E+02  0.31886111459E+02  0.00000000000E+00 0. -1.
         11    1    3    3    0    0  0.86156760943E+01 -0.14054092529E+02 -0.63194875381E+01  0.17654555060E+02  0.51100000000E-03 0. -1.
        -11    1    3    3    0    0 -0.13813360175E+02  0.36566880765E+01 -0.28430256460E+02  0.31819172988E+02  0.51100000000E-03 0.  1.
         12    1    3    3    0    0 -0.69540681443E+01  0.32069100122E+01  0.61603086839E+01  0.98281604923E+01  0.00000000000E+00 0. -1.
</event>
<event>
 7    1  0.7755875E-012  0.5930194E+02  0.7816164E-02  0.1266605E+00
        -11   -1    0    0    0    0  0.00000000000E+00  0.00000000000E+00  0.45593999997E+02  0.45594000000E+02  0.51100000000E-03 0.  1.
         11   -1    0    0    0    0 -0.00000000000E+00 -0.00000000000E+00 -0.45593999997E+02  0.45594000000E+02  0.51100000000E-03 0. -1.
    9900012    2    1    2    0    0  0.27152493520E+01 -0.29707254850E+02 -0.11261757250E+02  0.59301941195E+02  0.49999994834E+02 0.  0.
         12    1    1    2    0    0 -0.27152493520E+01  0.29707254850E+02  0.11261757250E+02  0.31886058805E+02  0.00000000000E+00 0. -1.
         11    1    3    3    0    0 -0.10496578725E+02 -0.91200975110E+00 -0.11456093767E+02  0.15564447030E+02  0.51100000000E-03 0. -1.
        -11    1    3    3    0    0  0.21903788791E+02 -0.15679161919E+02  0.47583000861E+01  0.27354222743E+02  0.51100000000E-03 0.  1.
        -12    1    3    3    0    0 -0.86919607144E+01 -0.13116083179E+02 -0.45639635694E+01  0.16383271422E+02  0.00000000000E+00 0.  1.
</event>
<event>
 7    1  0.7755875E-012  0.5930194E+02  0.7816164E-02  0.1266605E+00
        -11   -1    0    0    0    0  0.00000000000E+00  0.00000000000E+00  0.45593999997E+02  0.45594000000E+02  0.51100000000E-03 0.  1.
         11   -1    0    0    0    0 -0.00000000000E+00 -0.00000000000E+00 -0.45593999997E+02  0.45594000000E+02  0.51100000000E-03 0. -1.
    9900012    2    1    2    0    0 -0.15904230868E+02  0.24326774964E+02  0.13114269329E+02  0.59301943491E+02  0.49999999021E+02 0.  0.
         12    1    1    2    0    0  0.15904230868E+02 -0.24326774964E+02 -0.13114269329E+02  0.31886056509E+02  0.00000000000E+00 0. -1.
         11    1    3    3    0    0  0.99374002281E+01  0.91786488426E+01  0.21158717294E+02  0.25113558801E+02  0.51100000000E-03 0. -1.
        -11    1    3    3    0    0 -0.20821470193E+02  0.78642894216E+01 -0.11045148992E+02  0.24847051850E+02  0.51100000000E-03 0.  1.
         12    1    3    3    0    0 -0.50201609034E+01  0.72838367001E+01  0.30007010273E+01  0.93413328398E+01  0.00000000000E+00 0. -1.
</event>
<event>
 7    1  0.7755875E-012  0.5930202E+02  0.7816164E-02  0.1266604E+00
        -11   -1    0    0    0    0  0.00000000000E+00  0.00000000000E+00  0.45593999997E+02  0.45594000000E+02  0.51100000000E-03 0.  1.
         11   -1    0    0    0    0 -0.00000000000E+00 -0.00000000000E+00 -0.45593999997E+02  0.45594000000E+02  0.51100000000E-03 0. -1.
    9900012    2    1    2    0    0 -0.60142025903E+01 -0.29501091146E+02 -0.10499066330E+02  0.59302024942E+02  0.50000147568E+02 0.  0.
         12    1    1    2    0    0  0.60142025903E+01  0.29501091146E+02  0.10499066330E+02  0.31885975058E+02  0.00000000000E+00 0. -1.
         11    1    3    3    0    0  0.44040772264E+01 -0.94355699126E+01 -0.17082138590E+02  0.20005632578E+02  0.51100000000E-03 0. -1.
        -11    1    3    3    0    0 -0.20931272048E+02 -0.18187258062E+02  0.24205651069E+01  0.27834396726E+02  0.51100000000E-03 0.  1.
        -12    1    3    3    0    0  0.10512992232E+02 -0.18782631710E+01  0.41625071531E+01  0.11461995638E+02  0.00000000000E+00 0.  1.
</event>
<event>
 7    1  0.7755875E-012  0.5930199E+02  0.7816164E-02  0.1266605E+00
        -11   -1    0    0    0    0  0.00000000000E+00  0.00000000000E+00  0.45593999997E+02  0.45594000000E+02  0.51100000000E-03 0. -1.
         11   -1    0    0    0    0 -0.00000000000E+00 -0.00000000000E+00 -0.45593999997E+02  0.45594000000E+02  0.51100000000E-03 0.  1.
    9900012    2    1    2    0    0  0.77761136008E+01 -0.30288444261E+02 -0.62337634469E+01  0.59301990447E+02  0.50000084658E+02 0.  0.
         12    1    1    2    0    0 -0.77761136008E+01  0.30288444261E+02  0.62337634469E+01  0.31886009553E+02  0.00000000000E+00 0. -1.
         11    1    3    3    0    0  0.67447939630E+00  0.16210383888E+01  0.16371075102E+02  0.16464956367E+02  0.51100000000E-03 0. -1.
        -11    1    3    3    0    0 -0.77454499243E+00 -0.26155941306E+02 -0.13285886536E+02  0.29347026542E+02  0.51100000000E-03 0.  1.
         12    1    3    3    0    0  0.78761791969E+01 -0.57535413442E+01 -0.93189520128E+01  0.13490007537E+02  0.00000000000E+00 0. -1.
</event>
<event>
 7    1  0.7755875E-012  0.5930189E+02  0.7816164E-02  0.1266605E+00
        -11   -1    0    0    0    0  0.00000000000E+00  0.00000000000E+00  0.45593999997E+02  0.45594000000E+02  0.51100000000E-03 0.  1.
         11   -1    0    0    0    0 -0.00000000000E+00 -0.00000000000E+00 -0.45593999997E+02  0.45594000000E+02  0.51100000000E-03 0. -1.
    9900012    2    1    2    0    0  0.22826104928E+02  0.22263972222E+02  0.91558675687E-01  0.59301891609E+02  0.49999904401E+02 0.  0.
         12    1    1    2    0    0 -0.22826104928E+02 -0.22263972222E+02 -0.91558675687E-01  0.31886108391E+02  0.00000000000E+00 0. -1.
         11    1    3    3    0    0 -0.31390332448E+01  0.18002018632E+02  0.69892697994E+01  0.19564664504E+02  0.51100000000E-03 0. -1.
        -11    1    3    3    0    0  0.61009828491E+01 -0.45573495006E+01 -0.14773164314E+02  0.16620403434E+02  0.51100000000E-03 0.  1.
        -12    1    3    3    0    0  0.19864155324E+02  0.88193030906E+01  0.78754531899E+01  0.23116823672E+02  0.00000000000E+00 0.  1.
</event>
<event>
 7    1  0.7755875E-012  0.5930195E+02  0.7816164E-02  0.1266605E+00
        -11   -1    0    0    0    0  0.00000000000E+00  0.00000000000E+00  0.45593999997E+02  0.45594000000E+02  0.51100000000E-03 0.  1.
         11   -1    0    0    0    0 -0.00000000000E+00 -0.00000000000E+00 -0.45593999997E+02  0.45594000000E+02  0.51100000000E-03 0. -1.
    9900012    2    1    2    0    0  0.33055282899E+01 -0.69184615578E+01  0.30950421873E+02  0.59301949104E+02  0.50000009258E+02 0.  0.
         12    1    1    2    0    0 -0.33055282899E+01  0.69184615578E+01 -0.30950421873E+02  0.31886050896E+02  0.00000000000E+00 0. -1.
         11    1    3    3    0    0  0.82487952948E+01 -0.11917819733E+02  0.22337833948E+01  0.14665157330E+02  0.51100000000E-03 0. -1.
        -11    1    3    3    0    0 -0.80151441452E+01 -0.86217223174E+01  0.28318656016E+02  0.30667945973E+02  0.51100000000E-03 0.  1.
        -12    1    3    3    0    0  0.30718771403E+01  0.13621080493E+02  0.39798246274E+00  0.13968845801E+02  0.00000000000E+00 0.  1.
</event>
<event>
 7    1  0.7755875E-012  0.5930194E+02  0.7816164E-02  0.1266605E+00
        -11   -1    0    0    0    0  0.00000000000E+00  0.00000000000E+00  0.45593999997E+02  0.45594000000E+02  0.51100000000E-03 0.  1.
         11   -1    0    0    0    0 -0.00000000000E+00 -0.00000000000E+00 -0.45593999997E+02  0.45594000000E+02  0.51100000000E-03 0. -1.
    9900012    2    1    2    0    0 -0.48357392931E+01 -0.11571341020E+02  0.29316218723E+02  0.59301937406E+02  0.49999987924E+02 0.  0.
         12    1    1    2    0    0  0.48357392931E+01  0.11571341020E+02 -0.29316218723E+02  0.31886062594E+02  0.00000000000E+00 0. -1.
         11    1    3    3    0    0 -0.14488707542E+02 -0.32794443645E+01 -0.12414004759E+00  0.14855733324E+02  0.51100000000E-03 0. -1.
        -11    1    3    3    0    0  0.20537659302E+02 -0.37969032992E+01  0.14513830761E+02  0.25433505615E+02  0.51100000000E-03 0.  1.
        -12    1    3    3    0    0 -0.10884691053E+02 -0.44949933562E+01  0.14926528010E+02  0.19012698467E+02  0.00000000000E+00 0.  1.
</event>
<event>
 7    1  0.7755875E-012  0.5930195E+02  0.7816164E-02  0.1266605E+00
        -11   -1    0    0    0    0  0.00000000000E+00  0.00000000000E+00  0.45593999997E+02  0.45594000000E+02  0.51100000000E-03 0.  1.
         11   -1    0    0    0    0 -0.00000000000E+00 -0.00000000000E+00 -0.45593999997E+02  0.45594000000E+02  0.51100000000E-03 0. -1.
    9900012    2    1    2    0    0 -0.34902980192E-01  0.49834094141E+01  0.31494201756E+02  0.59301947691E+02  0.50000006681E+02 0.  0.
         12    1    1    2    0    0  0.34902980192E-01 -0.49834094141E+01 -0.31494201756E+02  0.31886052309E+02  0.00000000000E+00 0. -1.
         11    1    3    3    0    0  0.86493600842E+00 -0.29243091908E+01 -0.28112132724E+01  0.41476039911E+01  0.51100000000E-03 0. -1.
        -11    1    3    3    0    0  0.11383600543E+02 -0.41890334311E+01  0.35848933466E+02  0.37845480487E+02  0.51100000000E-03 0.  1.
        -12    1    3    3    0    0 -0.12283439532E+02  0.12096752036E+02 -0.15435184372E+01  0.17308863213E+02  0.00000000000E+00 0.  1.
</event>
<event>
 7    1  0.7755875E-012  0.5930193E+02  0.7816164E-02  0.1266605E+00
        -11   -1    0    0    0    0  0.00000000000E+00  0.00000000000E+00  0.45593999997E+02  0.45594000000E+02  0.51100000000E-03 0.  1.
         11   -1    0    0    0    0 -0.00000000000E+00 -0.00000000000E+00 -0.45593999997E+02  0.45594000000E+02  0.51100000000E-03 0. -1.
    9900012    2    1    2    0    0  0.15201626673E+02 -0.10997435034E+02  0.25781548111E+02  0.59301933233E+02  0.49999980313E+02 0.  0.
         12    1    1    2    0    0 -0.15201626673E+02  0.10997435034E+02 -0.25781548111E+02  0.31886066767E+02  0.00000000000E+00 0. -1.
         11    1    3    3    0    0  0.10334742480E+02 -0.13005896832E+02  0.12371580498E+01  0.16658055554E+02  0.51100000000E-03 0. -1.
        -11    1    3    3    0    0  0.13371354871E+02  0.58524571076E+01  0.28875590258E+02  0.32354970225E+02  0.51100000000E-03 0.  1.
        -12    1    3    3    0    0 -0.85044706775E+01 -0.38439953096E+01 -0.43312001966E+01  0.10288907454E+02  0.00000000000E+00 0.  1.
</event>
<event>
 7    1  0.7755875E-012  0.5930196E+02  0.7816164E-02  0.1266605E+00
        -11   -1    0    0    0    0  0.00000000000E+00  0.00000000000E+00  0.45593999997E+02  0.45594000000E+02  0.51100000000E-03 0. -1.
         11   -1    0    0    0    0 -0.00000000000E+00 -0.00000000000E+00 -0.45593999997E+02  0.45594000000E+02  0.51100000000E-03 0.  1.
    9900012    2    1    2    0    0  0.31088605502E+02 -0.63259192730E+01  0.31938882090E+01  0.59301959659E+02  0.50000028508E+02 0.  0.
         12    1    1    2    0    0 -0.31088605502E+02  0.63259192730E+01 -0.31938882090E+01  0.31886040341E+02  0.00000000000E+00 0. -1.
         11    1    3    3    0    0 -0.60896815968E+01  0.34753822556E+01  0.15097330558E+02  0.16646077436E+02  0.51100000000E-03 0. -1.
        -11    1    3    3    0    0  0.91755778636E+01 -0.33040763176E+01 -0.98107165985E+01  0.13833232084E+02  0.51100000000E-03 0.  1.
         12    1    3    3    0    0  0.28002709236E+02 -0.64972252110E+01 -0.20927257506E+01  0.28822650139E+02  0.00000000000E+00 0. -1.
</event>
<event>
 7    1  0.7755875E-012  0.5930196E+02  0.7816164E-02  0.1266605E+00
        -11   -1    0    0    0    0  0.00000000000E+00  0.00000000000E+00  0.45593999997E+02  0.45594000000E+02  0.51100000000E-03 0. -1.
         11   -1    0    0    0    0 -0.00000000000E+00 -0.00000000000E+00 -0.45593999997E+02  0.45594000000E+02  0.51100000000E-03 0.  1.
    9900012    2    1    2    0    0 -0.28488703597E+02 -0.14832698751E+01  0.14244763139E+02  0.59301959182E+02  0.50000027637E+02 0.  0.
         12    1    1    2    0    0  0.28488703597E+02  0.14832698751E+01 -0.14244763139E+02  0.31886040818E+02  0.00000000000E+00 0. -1.
         11    1    3    3    0    0 -0.14147861533E+02 -0.13954369821E+01  0.31409549290E+02  0.34477079592E+02  0.51100000000E-03 0. -1.
        -11    1    3    3    0    0 -0.12867118670E+02  0.39437854069E+01 -0.14447753395E+02  0.19744714853E+02  0.51100000000E-03 0.  1.
         12    1    3    3    0    0 -0.14737233946E+01 -0.40316182998E+01 -0.27170327552E+01  0.50801647367E+01  0.00000000000E+00 0. -1.
</event>
<event>
 7    1  0.7755875E-012  0.5930200E+02  0.7816164E-02  0.1266605E+00
        -11   -1    0    0    0    0  0.00000000000E+00  0.00000000000E+00  0.45593999997E+02  0.45594000000E+02  0.51100000000E-03 0.  1.
         11   -1    0    0    0    0 -0.00000000000E+00 -0.00000000000E+00 -0.45593999997E+02  0.45594000000E+02  0.51100000000E-03 0. -1.
    9900012    2    1    2    0    0  0.50189614602E+01  0.11171209979E+02  0.29440293554E+02  0.59302003213E+02  0.50000107940E+02 0.  0.
         12    1    1    2    0    0 -0.50189614602E+01 -0.11171209979E+02 -0.29440293554E+02  0.31885996787E+02  0.00000000000E+00 0. -1.
         11    1    3    3    0    0  0.15990755356E+02 -0.36374358037E+01  0.94340683634E-01  0.16399515130E+02  0.51100000000E-03 0. -1.
        -11    1    3    3    0    0 -0.12246145016E+02  0.10992983034E+02  0.36018626696E+01  0.16845983458E+02  0.51100000000E-03 0.  1.
        -12    1    3    3    0    0  0.12743511196E+01  0.38156627486E+01  0.25744090201E+02  0.26056504625E+02  0.00000000000E+00 0.  1.
</event>
<event>
 7    1  0.7755875E-012  0.5930188E+02  0.7816164E-02  0.1266605E+00
        -11   -1    0    0    0    0  0.00000000000E+00  0.00000000000E+00  0.45593999997E+02  0.45594000000E+02  0.51100000000E-03 0.  1.
         11   -1    0    0    0    0 -0.00000000000E+00 -0.00000000000E+00 -0.45593999997E+02  0.45594000000E+02  0.51100000000E-03 0. -1.
    9900012    2    1    2    0    0  0.13859127385E+02  0.28344051706E+02 -0.46113190499E+01  0.59301875394E+02  0.49999874829E+02 0.  0.
         12    1    1    2    0    0 -0.13859127385E+02 -0.28344051706E+02  0.46113190499E+01  0.31886124606E+02  0.00000000000E+00 0. -1.
         11    1    3    3    0    0  0.11704814655E+01 -0.13008788290E+02  0.36180431685E+01  0.13553185465E+02  0.51100000000E-03 0. -1.
        -11    1    3    3    0    0  0.70247807810E+01  0.20171422033E+02  0.21931710449E+01  0.21471930778E+02  0.51100000000E-03 0.  1.
         12    1    3    3    0    0  0.56638651388E+01  0.21181417963E+02 -0.10422533263E+02  0.24276759151E+02  0.00000000000E+00 0. -1.
</event>
<event>
 7    1  0.7755875E-012  0.5930195E+02  0.7816164E-02  0.1266605E+00
        -11   -1    0    0    0    0  0.00000000000E+00  0.00000000000E+00  0.45593999997E+02  0.45594000000E+02  0.51100000000E-03 0. -1.
         11   -1    0    0    0    0 -0.00000000000E+00 -0.00000000000E+00 -0.45593999997E+02  0.45594000000E+02  0.51100000000E-03 0.  1.
    9900012    2    1    2    0    0 -0.28882407591E+02  0.90761929252E+01  0.10007460113E+02  0.59301952829E+02  0.50000016051E+02 0.  0.
         12    1    1    2    0    0  0.28882407591E+02 -0.90761929252E+01 -0.10007460113E+02  0.31886047171E+02  0.00000000000E+00 0. -1.
         11    1    3    3    0    0 -0.12100005155E+02  0.92408624907E+00  0.24233039915E+02  0.27101739500E+02  0.51100000000E-03 0. -1.
        -11    1    3    3    0    0 -0.27519545907E+01  0.10160624037E+01 -0.16084575390E+02  0.16349899162E+02  0.51100000000E-03 0.  1.
        -12    1    3    3    0    0 -0.14030447846E+02  0.71360442724E+01  0.18589955878E+01  0.15850314167E+02  0.00000000000E+00 0.  1.
</event>
<event>
 7    1  0.7755875E-012  0.5930195E+02  0.7816164E-02  0.1266605E+00
        -11   -1    0    0    0    0  0.00000000000E+00  0.00000000000E+00  0.45593999997E+02  0.45594000000E+02  0.51100000000E-03 0.  1.
         11   -1    0    0    0    0 -0.00000000000E+00 -0.00000000000E+00 -0.45593999997E+02  0.45594000000E+02  0.51100000000E-03 0. -1.
    9900012    2    1    2    0    0 -0.18048470846E+02  0.10795734575E+02  0.23967158449E+02  0.59301954949E+02  0.50000019917E+02 0.  0.
         12    1    1    2    0    0  0.18048470846E+02 -0.10795734575E+02 -0.23967158449E+02  0.31886045051E+02  0.00000000000E+00 0. -1.
         11    1    3    3    0    0 -0.93483317348E+01  0.26365460062E+02 -0.11037365509E+01  0.27995482228E+02  0.51100000000E-03 0. -1.
        -11    1    3    3    0    0  0.13748839444E-01 -0.52110561920E+01  0.67610454485E+01  0.85362188048E+01  0.51100000000E-03 0.  1.
         12    1    3    3    0    0 -0.87138879509E+01 -0.10358669296E+02  0.18309849552E+02  0.22770253916E+02  0.00000000000E+00 0. -1.
</event>
<event>
 7    1  0.7755875E-012  0.5930192E+02  0.7816164E-02  0.1266605E+00
        -11   -1    0    0    0    0  0.00000000000E+00  0.00000000000E+00  0.45593999997E+02  0.45594000000E+02  0.51100000000E-03 0.  1.
         11   -1    0    0    0    0 -0.00000000000E+00 -0.00000000000E+00 -0.45593999997E+02  0.45594000000E+02  0.51100000000E-03 0. -1.
    9900012    2    1    2    0    0 -0.96839283349E+01 -0.26112419054E+02  0.15526910740E+02  0.59301923822E+02  0.49999963150E+02 0.  0.
         12    1    1    2    0    0  0.96839283349E+01  0.26112419054E+02 -0.15526910740E+02  0.31886076178E+02  0.00000000000E+00 0. -1.
         11    1    3    3    0    0  0.92796319708E+01  0.74250555461E+01 -0.39948682780E+01  0.12538021861E+02  0.51100000000E-03 0. -1.
        -11    1    3    3    0    0 -0.16767938507E+02 -0.33028784673E+02  0.12038433121E+02  0.38948533362E+02  0.51100000000E-03 0.  1.
         12    1    3    3    0    0 -0.21956217988E+01 -0.50868992696E+00  0.74833458971E+01  0.78153685992E+01  0.00000000000E+00 0. -1.
</event>
<event>
 7    1  0.7755875E-012  0.5930197E+02  0.7816164E-02  0.1266605E+00
        -11   -1    0    0    0    0  0.00000000000E+00  0.00000000000E+00  0.45593999997E+02  0.45594000000E+02  0.51100000000E-03 0. -1.
         11   -1    0    0    0    0 -0.00000000000E+00 -0.00000000000E+00 -0.45593999997E+02  0.45594000000E+02  0.51100000000E-03 0.  1.
    9900012    2    1    2    0    0  0.79422874078E+01 -0.30793949859E+02 -0.23177022862E+01  0.59301968245E+02  0.50000044166E+02 0.  0.
         12    1    1    2    0    0 -0.79422874078E+01  0.30793949859E+02  0.23177022862E+01  0.31886031755E+02  0.00000000000E+00 0. -1.
         11    1    3    3    0    0  0.14176065697E+02 -0.19864707317E+02  0.14223093769E+02  0.28246483534E+02  0.51100000000E-03 0. -1.
        -11    1    3    3    0    0 -0.14039417198E+02 -0.18596717746E+01 -0.72745569339E+01  0.15921142962E+02  0.51100000000E-03 0.  1.
         12    1    3    3    0    0  0.78056389092E+01 -0.90695707679E+01 -0.92662391212E+01  0.15134341748E+02  0.00000000000E+00 0. -1.
</event>
<event>
 7    1  0.7755875E-012  0.5930194E+02  0.7816164E-02  0.1266605E+00
        -11   -1    0    0    0    0  0.00000000000E+00  0.00000000000E+00  0.45593999997E+02  0.45594000000E+02  0.51100000000E-03 0.  1.
         11   -1    0    0    0    0 -0.00000000000E+00 -0.00000000000E+00 -0.45593999997E+02  0.45594000000E+02  0.51100000000E-03 0. -1.
    9900012    2    1    2    0    0 -0.31812796735E+02 -0.70106259522E+00  0.20434109090E+01  0.59301936383E+02  0.49999986057E+02 0.  0.
         12    1    1    2    0    0  0.31812796735E+02  0.70106259522E+00 -0.20434109090E+01  0.31886063617E+02  0.00000000000E+00 0. -1.
         11    1    3    3    0    0 -0.27805951292E+01  0.17308257138E+02  0.23644755373E+01  0.17688929285E+02  0.51100000000E-03 0. -1.
        -11    1    3    3    0    0 -0.28217403161E+02 -0.61995156095E+01 -0.41150585088E+01  0.29182007157E+02  0.51100000000E-03 0.  1.
        -12    1    3    3    0    0 -0.81479844507E+00 -0.11809804124E+02  0.37939938805E+01  0.12430999940E+02  0.00000000000E+00 0.  1.
</event>
<event>
 7    1  0.7755875E-012  0.5930195E+02  0.7816164E-02  0.1266605E+00
        -11   -1    0    0    0    0  0.00000000000E+00  0.00000000000E+00  0.45593999997E+02  0.45594000000E+02  0.51100000000E-03 0.  1.
         11   -1    0    0    0    0 -0.00000000000E+00 -0.00000000000E+00 -0.45593999997E+02  0.45594000000E+02  0.51100000000E-03 0. -1.
    9900012    2    1    2    0    0 -0.79252247229E+01  0.30884396962E+02 -0.25541720983E+00  0.59301946613E+02  0.50000004716E+02 0.  0.
         12    1    1    2    0    0  0.79252247229E+01 -0.30884396962E+02  0.25541720983E+00  0.31886053387E+02  0.00000000000E+00 0. -1.
         11    1    3    3    0    0  0.13582191151E+02  0.27430333014E+02  0.84400396708E+01  0.31751115816E+02  0.51100000000E-03 0.  1.
        -11    1    3    3    0    0 -0.25412576415E+01 -0.19740447173E+01  0.31804551142E+01  0.45243936545E+01  0.51100000000E-03 0. -1.
         12    1    3    3    0    0 -0.18966158232E+02  0.54281086658E+01 -0.11875911995E+02  0.23026437142E+02  0.00000000000E+00 0. -1.
</event>
<event>
 7    1  0.7755875E-012  0.5930193E+02  0.7816164E-02  0.1266605E+00
        -11   -1    0    0    0    0  0.00000000000E+00  0.00000000000E+00  0.45593999997E+02  0.45594000000E+02  0.51100000000E-03 0. -1.
         11   -1    0    0    0    0 -0.00000000000E+00 -0.00000000000E+00 -0.45593999997E+02  0.45594000000E+02  0.51100000000E-03 0.  1.
    9900012    2    1    2    0    0 -0.12243275468E+02 -0.64792839829E+01 -0.28720068294E+02  0.59301933483E+02  0.49999980770E+02 0.  0.
         12    1    1    2    0    0  0.12243275468E+02  0.64792839829E+01  0.28720068294E+02  0.31886066517E+02  0.00000000000E+00 0. -1.
         11    1    3    3    0    0 -0.99849244325E+01  0.36882252829E+01 -0.85400891794E+01  0.13646788821E+02  0.51100000000E-03 0. -1.
        -11    1    3    3    0    0  0.82664253840E+01 -0.22695440754E+02 -0.87241848455E+01  0.25681281532E+02  0.51100000000E-03 0.  1.
        -12    1    3    3    0    0 -0.10524776419E+02  0.12527931488E+02 -0.11455794269E+02  0.19973863131E+02  0.00000000000E+00 0.  1.
</event>
<event>
 7    1  0.7755875E-012  0.5930189E+02  0.7816164E-02  0.1266605E+00
        -11   -1    0    0    0    0  0.00000000000E+00  0.00000000000E+00  0.45593999997E+02  0.45594000000E+02  0.51100000000E-03 0. -1.
         11   -1    0    0    0    0 -0.00000000000E+00 -0.00000000000E+00 -0.45593999997E+02  0.45594000000E+02  0.51100000000E-03 0.  1.
    9900012    2    1    2    0    0 -0.18151164812E+02 -0.11676199646E+02 -0.23471801817E+02  0.59301891697E+02  0.49999904561E+02 0.  0.
         12    1    1    2    0    0  0.18151164812E+02  0.11676199646E+02  0.23471801817E+02  0.31886108303E+02  0.00000000000E+00 0. -1.
         11    1    3    3    0    0 -0.24775679235E+02 -0.45669112149E+01 -0.24742206916E+02  0.35311014754E+02  0.51100000000E-03 0.  1.
        -11    1    3    3    0    0  0.41939128903E+01 -0.12728490323E+02 -0.58305479911E+01  0.14615014929E+02  0.51100000000E-03 0. -1.
         12    1    3    3    0    0  0.24306015333E+01  0.56192018918E+01  0.71009530901E+01  0.93758620138E+01  0.00000000000E+00 0. -1.
</event>
<event>
 7    1  0.7755875E-012  0.5930196E+02  0.7816164E-02  0.1266605E+00
        -11   -1    0    0    0    0  0.00000000000E+00  0.00000000000E+00  0.45593999997E+02  0.45594000000E+02  0.51100000000E-03 0.  1.
         11   -1    0    0    0    0 -0.00000000000E+00 -0.00000000000E+00 -0.45593999997E+02  0.45594000000E+02  0.51100000000E-03 0. -1.
    9900012    2    1    2    0    0 -0.21723561998E+02  0.18502675532E+01  0.23267642289E+02  0.59301955818E+02  0.50000021502E+02 0.  0.
         12    1    1    2    0    0  0.21723561998E+02 -0.18502675532E+01 -0.23267642289E+02  0.31886044182E+02  0.00000000000E+00 0. -1.
         11    1    3    3    0    0 -0.62728922927E+01  0.16333687292E+02  0.62765607742E+01  0.18588537696E+02  0.51100000000E-03 0. -1.
        -11    1    3    3    0    0 -0.13801909126E+02 -0.17395173334E+02 -0.11799721652E+01  0.22236840725E+02  0.51100000000E-03 0.  1.
         12    1    3    3    0    0 -0.16487605790E+01  0.29117535960E+01  0.18171053680E+02  0.18476577397E+02  0.00000000000E+00 0. -1.
</event>
<event>
 7    1  0.7755875E-012  0.5930196E+02  0.7816164E-02  0.1266605E+00
        -11   -1    0    0    0    0  0.00000000000E+00  0.00000000000E+00  0.45593999997E+02  0.45594000000E+02  0.51100000000E-03 0.  1.
         11   -1    0    0    0    0 -0.00000000000E+00 -0.00000000000E+00 -0.45593999997E+02  0.45594000000E+02  0.51100000000E-03 0. -1.
    9900012    2    1    2    0    0  0.16024868648E+02  0.13370975093E+02  0.24106854791E+02  0.59301955435E+02  0.50000020803E+02 0.  0.
         12    1    1    2    0    0 -0.16024868648E+02 -0.13370975093E+02 -0.24106854791E+02  0.31886044565E+02  0.00000000000E+00 0. -1.
         11    1    3    3    0    0 -0.47554306544E+01 -0.92182824638E+01  0.72511146450E+01  0.12655809581E+02  0.51100000000E-03 0. -1.
        -11    1    3    3    0    0  0.52513510611E+01  0.22071065527E+02 -0.13307324527E+01  0.22726184690E+02  0.51100000000E-03 0.  1.
        -12    1    3    3    0    0  0.15528948242E+02  0.51819202946E+00  0.18186472599E+02  0.23919961163E+02  0.00000000000E+00 0.  1.
</event>
<event>
 7    1  0.7755875E-012  0.5930194E+02  0.7816164E-02  0.1266605E+00
        -11   -1    0    0    0    0  0.00000000000E+00  0.00000000000E+00  0.45593999997E+02  0.45594000000E+02  0.51100000000E-03 0. -1.
         11   -1    0    0    0    0 -0.00000000000E+00 -0.00000000000E+00 -0.45593999997E+02  0.45594000000E+02  0.51100000000E-03 0.  1.
    9900012    2    1    2    0    0 -0.22032696584E+02 -0.19401957921E+02  0.12443679233E+02  0.59301939679E+02  0.49999992070E+02 0.  0.
         12    1    1    2    0    0  0.22032696584E+02  0.19401957921E+02 -0.12443679233E+02  0.31886060321E+02  0.00000000000E+00 0. -1.
         11    1    3    3    0    0 -0.70050490768E+01 -0.93252318028E+01  0.84014313766E+01  0.14374098587E+02  0.51100000000E-03 0. -1.
        -11    1    3    3    0    0 -0.58198662155E+00 -0.98756581465E+01 -0.16842604598E+02  0.19533065866E+02  0.51100000000E-03 0.  1.
        -12    1    3    3    0    0 -0.14445660885E+02 -0.20106797160E+00  0.20884852454E+02  0.25394775226E+02  0.00000000000E+00 0.  1.
</event>
<event>
 7    1  0.7755875E-012  0.5930205E+02  0.7816164E-02  0.1266604E+00
        -11   -1    0    0    0    0  0.00000000000E+00  0.00000000000E+00  0.45593999997E+02  0.45594000000E+02  0.51100000000E-03 0. -1.
         11   -1    0    0    0    0 -0.00000000000E+00 -0.00000000000E+00 -0.45593999997E+02  0.45594000000E+02  0.51100000000E-03 0.  1.
    9900012    2    1    2    0    0  0.30680339611E+02  0.59464521044E+01 -0.63301261667E+01  0.59302046532E+02  0.50000186943E+02 0.  0.
         12    1    1    2    0    0 -0.30680339611E+02 -0.59464521044E+01  0.63301261667E+01  0.31885953468E+02  0.00000000000E+00 0. -1.
         11    1    3    3    0    0 -0.10416195470E+01  0.10100030989E+02  0.16871279694E+02  0.19691004953E+02  0.51100000000E-03 0. -1.
        -11    1    3    3    0    0  0.25038045676E+02 -0.39665069710E+01 -0.19379806730E+02  0.31909462828E+02  0.51100000000E-03 0.  1.
         12    1    3    3    0    0  0.66839134823E+01 -0.18707191389E+00 -0.38215991315E+01  0.77015787513E+01  0.00000000000E+00 0. -1.
</event>
<event>
 7    1  0.7755875E-012  0.5930194E+02  0.7816164E-02  0.1266605E+00
        -11   -1    0    0    0    0  0.00000000000E+00  0.00000000000E+00  0.45593999997E+02  0.45594000000E+02  0.51100000000E-03 0.  1.
         11   -1    0    0    0    0 -0.00000000000E+00 -0.00000000000E+00 -0.45593999997E+02  0.45594000000E+02  0.51100000000E-03 0. -1.
    9900012    2    1    2    0    0  0.19621402987E+01  0.19824301124E+02  0.24897143875E+02  0.59301942188E+02  0.49999996646E+02 0.  0.
         12    1    1    2    0    0 -0.19621402987E+01 -0.19824301124E+02 -0.24897143875E+02  0.31886057812E+02  0.00000000000E+00 0. -1.
         11    1    3    3    0    0  0.70624601898E+01 -0.11248332704E+02  0.32335290129E+01  0.13669639450E+02  0.51100000000E-03 0. -1.
        -11    1    3    3    0    0 -0.97646259866E+01  0.21300235382E+02  0.24266914439E+01  0.23557096163E+02  0.51100000000E-03 0.  1.
        -12    1    3    3    0    0  0.46643060955E+01  0.97723984465E+01  0.19236923418E+02  0.22075206576E+02  0.00000000000E+00 0.  1.
</event>
<event>
 7    1  0.7755875E-012  0.5930194E+02  0.7816164E-02  0.1266605E+00
        -11   -1    0    0    0    0  0.00000000000E+00  0.00000000000E+00  0.45593999997E+02  0.45594000000E+02  0.51100000000E-03 0.  1.
         11   -1    0    0    0    0 -0.00000000000E+00 -0.00000000000E+00 -0.45593999997E+02  0.45594000000E+02  0.51100000000E-03 0. -1.
    9900012    2    1    2    0    0 -0.25730540115E+02 -0.17368483010E+02 -0.72798467432E+01  0.59301936190E+02  0.49999985706E+02 0.  0.
         12    1    1    2    0    0  0.25730540115E+02  0.17368483010E+02  0.72798467432E+01  0.31886063810E+02  0.00000000000E+00 0. -1.
         11    1    3    3    0    0 -0.50550866668E+01 -0.10678486344E+02 -0.13012055494E+02  0.17575481792E+02  0.51100000000E-03 0. -1.
        -11    1    3    3    0    0 -0.20148250195E+02 -0.25799079400E+01  0.19007830452E+02  0.27819157602E+02  0.51100000000E-03 0.  1.
         12    1    3    3    0    0 -0.52720325298E+00 -0.41100887267E+01 -0.13275621702E+02  0.13907296796E+02  0.00000000000E+00 0. -1.
</event>
<event>
 7    1  0.7755875E-012  0.5930197E+02  0.7816164E-02  0.1266605E+00
        -11   -1    0    0    0    0  0.00000000000E+00  0.00000000000E+00  0.45593999997E+02  0.45594000000E+02  0.51100000000E-03 0.  1.
         11   -1    0    0    0    0 -0.00000000000E+00 -0.00000000000E+00 -0.45593999997E+02  0.45594000000E+02  0.51100000000E-03 0. -1.
    9900012    2    1    2    0    0 -0.27861709986E+02  0.14973690385E+02  0.40289535423E+01  0.59301972437E+02  0.50000051812E+02 0.  0.
         12    1    1    2    0    0  0.27861709986E+02 -0.14973690385E+02 -0.40289535423E+01  0.31886027563E+02  0.00000000000E+00 0. -1.
         11    1    3    3    0    0 -0.15842450132E+02 -0.90311965187E+00 -0.19561299647E+02  0.25188157841E+02  0.51100000000E-03 0. -1.
        -11    1    3    3    0    0 -0.56863560138E+01  0.16383836632E+02  0.21044226158E+02  0.27269473819E+02  0.51100000000E-03 0.  1.
        -12    1    3    3    0    0 -0.63329038406E+01 -0.50702659586E+00  0.25460270319E+01  0.68443407770E+01  0.00000000000E+00 0.  1.
</event>
<event>
 7    1  0.7755875E-012  0.5930198E+02  0.7816164E-02  0.1266605E+00
        -11   -1    0    0    0    0  0.00000000000E+00  0.00000000000E+00  0.45593999997E+02  0.45594000000E+02  0.51100000000E-03 0.  1.
         11   -1    0    0    0    0 -0.00000000000E+00 -0.00000000000E+00 -0.45593999997E+02  0.45594000000E+02  0.51100000000E-03 0. -1.
    9900012    2    1    2    0    0 -0.24930968212E+02  0.87611675770E+01 -0.17843969708E+02  0.59301976600E+02  0.50000059405E+02 0.  0.
         12    1    1    2    0    0  0.24930968212E+02 -0.87611675770E+01  0.17843969708E+02  0.31886023400E+02  0.00000000000E+00 0. -1.
         11    1    3    3    0    0 -0.26258043789E+01 -0.62565611003E+00 -0.64573867525E+01  0.69988669180E+01  0.51100000000E-03 0. -1.
        -11    1    3    3    0    0 -0.35928276393E+02  0.32275368537E+01 -0.73047098415E+01  0.36805119547E+02  0.51100000000E-03 0.  1.
        -12    1    3    3    0    0  0.13623112560E+02  0.61592868333E+01 -0.40818731137E+01  0.15497990135E+02  0.00000000000E+00 0.  1.
</event>
<event>
 7    1  0.7755875E-012  0.5930194E+02  0.7816164E-02  0.1266605E+00
        -11   -1    0    0    0    0  0.00000000000E+00  0.00000000000E+00  0.45593999997E+02  0.45594000000E+02  0.51100000000E-03 0.  1.
         11   -1    0    0    0    0 -0.00000000000E+00 -0.00000000000E+00 -0.45593999997E+02  0.45594000000E+02  0.51100000000E-03 0. -1.
    9900012    2    1    2    0    0  0.99072503678E+01  0.24206739158E+02  0.18237355116E+02  0.59301937964E+02  0.49999988941E+02 0.  0.
         12    1    1    2    0    0 -0.99072503678E+01 -0.24206739158E+02 -0.18237355116E+02  0.31886062036E+02  0.00000000000E+00 0. -1.
         11    1    3    3    0    0  0.14637111130E+02 -0.79683586059E+01  0.17724030629E+02  0.24328605038E+02  0.51100000000E-03 0. -1.
        -11    1    3    3    0    0 -0.44803487252E+01  0.17417963170E+02  0.63910588807E+01  0.19086765037E+02  0.51100000000E-03 0.  1.
         12    1    3    3    0    0 -0.24951203659E+00  0.14757134594E+02 -0.58777343939E+01  0.15886567889E+02  0.00000000000E+00 0. -1.
</event>
<event>
 7    1  0.7755875E-012  0.5930198E+02  0.7816164E-02  0.1266605E+00
        -11   -1    0    0    0    0  0.00000000000E+00  0.00000000000E+00  0.45593999997E+02  0.45594000000E+02  0.51100000000E-03 0.  1.
         11   -1    0    0    0    0 -0.00000000000E+00 -0.00000000000E+00 -0.45593999997E+02  0.45594000000E+02  0.51100000000E-03 0. -1.
    9900012    2    1    2    0    0 -0.28300703530E+02 -0.22894021192E+01  0.14510236701E+02  0.59301981881E+02  0.50000069036E+02 0.  0.
         12    1    1    2    0    0  0.28300703530E+02  0.22894021192E+01 -0.14510236701E+02  0.31886018119E+02  0.00000000000E+00 0. -1.
         11    1    3    3    0    0 -0.98652728402E+00  0.18802676547E+02  0.26944387355E+01  0.19020354407E+02  0.51100000000E-03 0. -1.
        -11    1    3    3    0    0 -0.21191698480E+02 -0.13773989777E+02  0.15946086682E+02  0.29884587325E+02  0.51100000000E-03 0.  1.
         12    1    3    3    0    0 -0.61224777660E+01 -0.73180888895E+01 -0.41302887164E+01  0.10397040150E+02  0.00000000000E+00 0. -1.
</event>
<event>
 7    1  0.7755875E-012  0.5930197E+02  0.7816164E-02  0.1266605E+00
        -11   -1    0    0    0    0  0.00000000000E+00  0.00000000000E+00  0.45593999997E+02  0.45594000000E+02  0.51100000000E-03 0.  1.
         11   -1    0    0    0    0 -0.00000000000E+00 -0.00000000000E+00 -0.45593999997E+02  0.45594000000E+02  0.51100000000E-03 0. -1.
    9900012    2    1    2    0    0  0.11281817354E+02 -0.25498501602E+01  0.29714271208E+02  0.59301967759E+02  0.50000043280E+02 0.  0.
         12    1    1    2    0    0 -0.11281817354E+02  0.25498501602E+01 -0.29714271208E+02  0.31886032241E+02  0.00000000000E+00 0. -1.
         11    1    3    3    0    0  0.77556712596E+01  0.15713687733E+02  0.28663280131E+02  0.33595446819E+02  0.51100000000E-03 0. -1.
        -11    1    3    3    0    0  0.10247702726E+02 -0.11777918674E+02 -0.23056009367E+01  0.15781336299E+02  0.51100000000E-03 0.  1.
         12    1    3    3    0    0 -0.67215566313E+01 -0.64856192188E+01  0.33565920141E+01  0.99251846405E+01  0.00000000000E+00 0. -1.
</event>
<event>
 7    1  0.7755875E-012  0.5930198E+02  0.7816164E-02  0.1266605E+00
        -11   -1    0    0    0    0  0.00000000000E+00  0.00000000000E+00  0.45593999997E+02  0.45594000000E+02  0.51100000000E-03 0.  1.
         11   -1    0    0    0    0 -0.00000000000E+00 -0.00000000000E+00 -0.45593999997E+02  0.45594000000E+02  0.51100000000E-03 0. -1.
    9900012    2    1    2    0    0 -0.21007427248E+02 -0.16656638533E+02  0.17261597199E+02  0.59301978852E+02  0.50000063511E+02 0.  0.
         12    1    1    2    0    0  0.21007427248E+02  0.16656638533E+02 -0.17261597199E+02  0.31886021148E+02  0.00000000000E+00 0. -1.
         11    1    3    3    0    0 -0.17669806027E+02 -0.10892916785E+01 -0.13252377312E+02  0.22114115539E+02  0.51100000000E-03 0. -1.
        -11    1    3    3    0    0  0.46712496407E+01 -0.10353961029E+02  0.13223653919E+02  0.17432444046E+02  0.51100000000E-03 0.  1.
         12    1    3    3    0    0 -0.80088708619E+01 -0.52133858248E+01  0.17290320592E+02  0.19755419267E+02  0.00000000000E+00 0. -1.
</event>
<event>
 7    1  0.7755875E-012  0.5930192E+02  0.7816164E-02  0.1266605E+00
        -11   -1    0    0    0    0  0.00000000000E+00  0.00000000000E+00  0.45593999997E+02  0.45594000000E+02  0.51100000000E-03 0.  1.
         11   -1    0    0    0    0 -0.00000000000E+00 -0.00000000000E+00 -0.45593999997E+02  0.45594000000E+02  0.51100000000E-03 0. -1.
    9900012    2    1    2    0    0 -0.86931412784E+01  0.26621239202E+01  0.30562464162E+02  0.59301924282E+02  0.49999963989E+02 0.  0.
         12    1    1    2    0    0  0.86931412784E+01 -0.26621239202E+01 -0.30562464162E+02  0.31886075718E+02  0.00000000000E+00 0. -1.
         11    1    3    3    0    0  0.27656102548E+01 -0.14002793753E+02  0.19179576259E+02  0.23907801629E+02  0.51100000000E-03 0. -1.
        -11    1    3    3    0    0 -0.13383039347E+02  0.21554120144E+02  0.14561961358E+02  0.29252975169E+02  0.51100000000E-03 0.  1.
        -12    1    3    3    0    0  0.19242878140E+01 -0.48892024710E+01 -0.31790734558E+01  0.61411474849E+01  0.00000000000E+00 0.  1.
</event>
<event>
 7    1  0.7755875E-012  0.5930193E+02  0.7816164E-02  0.1266605E+00
        -11   -1    0    0    0    0  0.00000000000E+00  0.00000000000E+00  0.45593999997E+02  0.45594000000E+02  0.51100000000E-03 0. -1.
         11   -1    0    0    0    0 -0.00000000000E+00 -0.00000000000E+00 -0.45593999997E+02  0.45594000000E+02  0.51100000000E-03 0.  1.
    9900012    2    1    2    0    0 -0.16558886287E+02  0.25006217859E+02 -0.10826540000E+02  0.59301927569E+02  0.49999969984E+02 0.  0.
         12    1    1    2    0    0  0.16558886287E+02 -0.25006217859E+02  0.10826540000E+02  0.31886072431E+02  0.00000000000E+00 0. -1.
         11    1    3    3    0    0  0.86354266313E+01 -0.56176969222E+01 -0.89448132044E+01  0.13643269232E+02  0.51100000000E-03 0. -1.
        -11    1    3    3    0    0 -0.53042768982E+01  0.22640272337E+02 -0.55699718411E+01  0.23911124430E+02  0.51100000000E-03 0.  1.
         12    1    3    3    0    0 -0.19890036020E+02  0.79836424433E+01  0.36882450450E+01  0.21747533908E+02  0.00000000000E+00 0. -1.
</event>
<event>
 7    1  0.7755875E-012  0.5930193E+02  0.7816164E-02  0.1266605E+00
        -11   -1    0    0    0    0  0.00000000000E+00  0.00000000000E+00  0.45593999997E+02  0.45594000000E+02  0.51100000000E-03 0.  1.
         11   -1    0    0    0    0 -0.00000000000E+00 -0.00000000000E+00 -0.45593999997E+02  0.45594000000E+02  0.51100000000E-03 0. -1.
    9900012    2    1    2    0    0 -0.28868005113E+02  0.12363106178E+02 -0.55238661342E+01  0.59301933911E+02  0.49999981550E+02 0.  0.
         12    1    1    2    0    0  0.28868005113E+02 -0.12363106178E+02  0.55238661342E+01  0.31886066089E+02  0.00000000000E+00 0. -1.
         11    1    3    3    0    0 -0.35854419731E+02  0.54032025950E+01 -0.15531224685E+02  0.39445569498E+02  0.51100000000E-03 0. -1.
        -11    1    3    3    0    0 -0.25158297650E+01  0.71207656527E+01  0.34038451529E+01  0.82837711806E+01  0.51100000000E-03 0.  1.
         12    1    3    3    0    0  0.95022443833E+01 -0.16086207008E+00  0.66035133983E+01  0.11572593233E+02  0.00000000000E+00 0. -1.
</event>
<event>
 7    1  0.7755875E-012  0.5930191E+02  0.7816164E-02  0.1266605E+00
        -11   -1    0    0    0    0  0.00000000000E+00  0.00000000000E+00  0.45593999997E+02  0.45594000000E+02  0.51100000000E-03 0. -1.
         11   -1    0    0    0    0 -0.00000000000E+00 -0.00000000000E+00 -0.45593999997E+02  0.45594000000E+02  0.51100000000E-03 0.  1.
    9900012    2    1    2    0    0 -0.15552432973E+00 -0.28188699965E+02  0.14902873423E+02  0.59301911658E+02  0.49999940965E+02 0.  0.
         12    1    1    2    0    0  0.15552432973E+00  0.28188699965E+02 -0.14902873423E+02  0.31886088342E+02  0.00000000000E+00 0. -1.
         11    1    3    3    0    0 -0.13601905654E+02  0.18212258124E+01  0.57904414564E+01  0.14894895549E+02  0.51100000000E-03 0. -1.
        -11    1    3    3    0    0  0.18076440700E+02 -0.10065814912E+02  0.11700965219E+02  0.23769537764E+02  0.51100000000E-03 0.  1.
        -12    1    3    3    0    0 -0.46300593753E+01 -0.19944110865E+02 -0.25885332525E+01  0.20637478345E+02  0.00000000000E+00 0.  1.
</event>
<event>
 7    1  0.7755875E-012  0.5930194E+02  0.7816164E-02  0.1266605E+00
        -11   -1    0    0    0    0  0.00000000000E+00  0.00000000000E+00  0.45593999997E+02  0.45594000000E+02  0.51100000000E-03 0. -1.
         11   -1    0    0    0    0 -0.00000000000E+00 -0.00000000000E+00 -0.45593999997E+02  0.45594000000E+02  0.51100000000E-03 0.  1.
    9900012    2    1    2    0    0  0.99182532092E+01 -0.27936499799E+02  0.11743121154E+02  0.59301942511E+02  0.49999997234E+02 0.  0.
         12    1    1    2    0    0 -0.99182532092E+01  0.27936499799E+02 -0.11743121154E+02  0.31886057489E+02  0.00000000000E+00 0. -1.
         11    1    3    3    0    0 -0.42455544813E+01 -0.19508076381E+01  0.99574273207E+01  0.10999124620E+02  0.51100000000E-03 0. -1.
        -11    1    3    3    0    0  0.25715379498E+02 -0.21944264008E+02  0.77589323886E+01  0.34684758867E+02  0.51100000000E-03 0.  1.
        -12    1    3    3    0    0 -0.11551571808E+02 -0.40414281530E+01 -0.59732385553E+01  0.13618059024E+02  0.00000000000E+00 0.  1.
</event>
<event>
 7    1  0.7755875E-012  0.5930194E+02  0.7816164E-02  0.1266605E+00
        -11   -1    0    0    0    0  0.00000000000E+00  0.00000000000E+00  0.45593999997E+02  0.45594000000E+02  0.51100000000E-03 0.  1.
         11   -1    0    0    0    0 -0.00000000000E+00 -0.00000000000E+00 -0.45593999997E+02  0.45594000000E+02  0.51100000000E-03 0. -1.
    9900012    2    1    2    0    0 -0.10243350415E+02 -0.20688418587E+02  0.21995088987E+02  0.59301939865E+02  0.49999992409E+02 0.  0.
         12    1    1    2    0    0  0.10243350415E+02  0.20688418587E+02 -0.21995088987E+02  0.31886060135E+02  0.00000000000E+00 0. -1.
         11    1    3    3    0    0 -0.38150091716E+00 -0.22249204881E+02  0.38362643555E+01  0.22580734825E+02  0.51100000000E-03 0. -1.
        -11    1    3    3    0    0 -0.71568980843E-01  0.13833006131E+02  0.16361197591E+01  0.13929611225E+02  0.51100000000E-03 0.  1.
        -12    1    3    3    0    0 -0.97902805167E+01 -0.12272219837E+02  0.16522704872E+02  0.22791593815E+02  0.00000000000E+00 0.  1.
</event>
<event>
 7    1  0.7755875E-012  0.5930200E+02  0.7816164E-02  0.1266605E+00
        -11   -1    0    0    0    0  0.00000000000E+00  0.00000000000E+00  0.45593999997E+02  0.45594000000E+02  0.51100000000E-03 0.  1.
         11   -1    0    0    0    0 -0.00000000000E+00 -0.00000000000E+00 -0.45593999997E+02  0.45594000000E+02  0.51100000000E-03 0. -1.
    9900012    2    1    2    0    0  0.84581452317E+01 -0.30566028185E+02  0.33007227045E+01  0.59301998838E+02  0.50000099960E+02 0.  0.
         12    1    1    2    0    0 -0.84581452317E+01  0.30566028185E+02 -0.33007227045E+01  0.31886001162E+02  0.00000000000E+00 0. -1.
         11    1    3    3    0    0 -0.13125144944E+02  0.65355019648E+01  0.15727508756E+01  0.14746381295E+02  0.51100000000E-03 0. -1.
        -11    1    3    3    0    0  0.89808216747E+01 -0.66701907797E+01 -0.21462071617E+01  0.11390909026E+02  0.51100000000E-03 0.  1.
         12    1    3    3    0    0  0.12602468501E+02 -0.30431339370E+02  0.38741789906E+01  0.33164708517E+02  0.00000000000E+00 0. -1.
</event>
<event>
 7    1  0.7755875E-012  0.5930194E+02  0.7816164E-02  0.1266605E+00
        -11   -1    0    0    0    0  0.00000000000E+00  0.00000000000E+00  0.45593999997E+02  0.45594000000E+02  0.51100000000E-03 0. -1.
         11   -1    0    0    0    0 -0.00000000000E+00 -0.00000000000E+00 -0.45593999997E+02  0.45594000000E+02  0.51100000000E-03 0.  1.
    9900012    2    1    2    0    0 -0.53830703284E+01 -0.15414793342E+02 -0.27388454492E+02  0.59301941301E+02  0.49999995026E+02 0.  0.
         12    1    1    2    0    0  0.53830703284E+01  0.15414793342E+02  0.27388454492E+02  0.31886058699E+02  0.00000000000E+00 0. -1.
         11    1    3    3    0    0 -0.86372581675E+01 -0.18819412940E+02  0.14031070715E+00  0.20707298699E+02  0.51100000000E-03 0. -1.
        -11    1    3    3    0    0 -0.66597394842E+01 -0.18373331203E+01 -0.26439757890E+02  0.27327435308E+02  0.51100000000E-03 0.  1.
        -12    1    3    3    0    0  0.99139273233E+01  0.52419527184E+01 -0.10890073092E+01  0.11267207293E+02  0.00000000000E+00 0.  1.
</event>
<event>
 7    1  0.7755875E-012  0.5930194E+02  0.7816164E-02  0.1266605E+00
        -11   -1    0    0    0    0  0.00000000000E+00  0.00000000000E+00  0.45593999997E+02  0.45594000000E+02  0.51100000000E-03 0.  1.
         11   -1    0    0    0    0 -0.00000000000E+00 -0.00000000000E+00 -0.45593999997E+02  0.45594000000E+02  0.51100000000E-03 0. -1.
    9900012    2    1    2    0    0  0.19956530313E+02  0.22576670718E+02  0.10428402362E+02  0.59301941312E+02  0.49999995047E+02 0.  0.
         12    1    1    2    0    0 -0.19956530313E+02 -0.22576670718E+02 -0.10428402362E+02  0.31886058688E+02  0.00000000000E+00 0. -1.
         11    1    3    3    0    0 -0.48733230345E+00 -0.97224102977E+01 -0.32583325930E+01  0.10265451102E+02  0.51100000000E-03 0. -1.
        -11    1    3    3    0    0  0.16702552545E+02  0.31300709471E+02  0.20663518493E+02  0.41057163464E+02  0.51100000000E-03 0.  1.
        -12    1    3    3    0    0  0.37413100716E+01  0.99837154390E+00 -0.69767835377E+01  0.79793267463E+01  0.00000000000E+00 0.  1.
</event>
<event>
 7    1  0.7755875E-012  0.5930194E+02  0.7816164E-02  0.1266605E+00
        -11   -1    0    0    0    0  0.00000000000E+00  0.00000000000E+00  0.45593999997E+02  0.45594000000E+02  0.51100000000E-03 0.  1.
         11   -1    0    0    0    0 -0.00000000000E+00 -0.00000000000E+00 -0.45593999997E+02  0.45594000000E+02  0.51100000000E-03 0. -1.
    9900012    2    1    2    0    0  0.19637757462E+02  0.23320885853E+02 -0.93389400879E+01  0.59301936633E+02  0.49999986513E+02 0.  0.
         12    1    1    2    0    0 -0.19637757462E+02 -0.23320885853E+02  0.93389400879E+01  0.31886063367E+02  0.00000000000E+00 0. -1.
         11    1    3    3    0    0  0.13066696291E+02  0.10036729848E+02  0.10802451003E+02  0.19701965535E+02  0.51100000000E-03 0. -1.
        -11    1    3    3    0    0  0.60543492908E+01  0.18173531420E+02 -0.25780809519E+02  0.32118258504E+02  0.51100000000E-03 0.  1.
         12    1    3    3    0    0  0.51671188010E+00 -0.48893754151E+01  0.56394184287E+01  0.74817125934E+01  0.00000000000E+00 0. -1.
</event>
<event>
 7    1  0.7755875E-012  0.5930193E+02  0.7816164E-02  0.1266605E+00
        -11   -1    0    0    0    0  0.00000000000E+00  0.00000000000E+00  0.45593999997E+02  0.45594000000E+02  0.51100000000E-03 0.  1.
         11   -1    0    0    0    0 -0.00000000000E+00 -0.00000000000E+00 -0.45593999997E+02  0.45594000000E+02  0.51100000000E-03 0. -1.
    9900012    2    1    2    0    0 -0.23830605213E+02 -0.12371064348E+02  0.17198267911E+02  0.59301930988E+02  0.49999976218E+02 0.  0.
         12    1    1    2    0    0  0.23830605213E+02  0.12371064348E+02 -0.17198267911E+02  0.31886069012E+02  0.00000000000E+00 0. -1.
         11    1    3    3    0    0  0.12944981209E+01  0.94833132888E+01 -0.92734988827E+01  0.13326917802E+02  0.51100000000E-03 0. -1.
        -11    1    3    3    0    0 -0.27797146325E+02 -0.19600133189E+02  0.23078517160E+02  0.41103096226E+02  0.51100000000E-03 0.  1.
        -12    1    3    3    0    0  0.26720429911E+01 -0.22542444483E+01  0.33932496343E+01  0.48719169594E+01  0.00000000000E+00 0.  1.
</event>
<event>
 7    1  0.7755875E-012  0.5930194E+02  0.7816164E-02  0.1266605E+00
        -11   -1    0    0    0    0  0.00000000000E+00  0.00000000000E+00  0.45593999997E+02  0.45594000000E+02  0.51100000000E-03 0.  1.
         11   -1    0    0    0    0 -0.00000000000E+00 -0.00000000000E+00 -0.45593999997E+02  0.45594000000E+02  0.51100000000E-03 0. -1.
    9900012    2    1    2    0    0  0.31021537929E+01  0.60541865779E+01  0.31151950299E+02  0.59301944416E+02  0.50000000709E+02 0.  0.
         12    1    1    2    0    0 -0.31021537929E+01 -0.60541865779E+01 -0.31151950299E+02  0.31886055584E+02  0.00000000000E+00 0. -1.
         11    1    3    3    0    0  0.16433079706E+02  0.15780896129E+02  0.99264587866E+01  0.24851908892E+02  0.51100000000E-03 0. -1.
        -11    1    3    3    0    0 -0.10145546841E+02  0.26251160010E+01  0.18715059077E+02  0.21449400720E+02  0.51100000000E-03 0.  1.
         12    1    3    3    0    0 -0.31853790723E+01 -0.12351825552E+02  0.25104324347E+01  0.13000634804E+02  0.00000000000E+00 0. -1.
</event>
<event>
 7    1  0.7755875E-012  0.5930195E+02  0.7816164E-02  0.1266605E+00
        -11   -1    0    0    0    0  0.00000000000E+00  0.00000000000E+00  0.45593999997E+02  0.45594000000E+02  0.51100000000E-03 0. -1.
         11   -1    0    0    0    0 -0.00000000000E+00 -0.00000000000E+00 -0.45593999997E+02  0.45594000000E+02  0.51100000000E-03 0.  1.
    9900012    2    1    2    0    0 -0.31427801269E+02 -0.48806479977E+01 -0.22787810671E+01  0.59301948808E+02  0.50000008718E+02 0.  0.
         12    1    1    2    0    0  0.31427801269E+02  0.48806479977E+01  0.22787810671E+01  0.31886051192E+02  0.00000000000E+00 0. -1.
         11    1    3    3    0    0 -0.21960136699E+02 -0.17164150335E+02  0.36048571228E+01  0.28104281803E+02  0.51100000000E-03 0. -1.
        -11    1    3    3    0    0  0.63225213196E+01  0.12065151551E+02  0.16136273760E+01  0.13716630466E+02  0.51100000000E-03 0.  1.
        -12    1    3    3    0    0 -0.15790185889E+02  0.21835078605E+00 -0.74972655659E+01  0.17481036538E+02  0.00000000000E+00 0.  1.
</event>
<event>
 7    1  0.7755875E-012  0.5930194E+02  0.7816164E-02  0.1266605E+00
        -11   -1    0    0    0    0  0.00000000000E+00  0.00000000000E+00  0.45593999997E+02  0.45594000000E+02  0.51100000000E-03 0.  1.
         11   -1    0    0    0    0 -0.00000000000E+00 -0.00000000000E+00 -0.45593999997E+02  0.45594000000E+02  0.51100000000E-03 0. -1.
    9900012    2    1    2    0    0  0.44847789548E+01  0.22214381666E+02  0.22430527036E+02  0.59301944456E+02  0.50000000780E+02 0.  0.
         12    1    1    2    0    0 -0.44847789548E+01 -0.22214381666E+02 -0.22430527036E+02  0.31886055544E+02  0.00000000000E+00 0. -1.
         11    1    3    3    0    0  0.33091551557E+00 -0.99287787765E+01 -0.56564636953E+01  0.11431786163E+02  0.51100000000E-03 0. -1.
        -11    1    3    3    0    0  0.18760884074E+00  0.21669260342E+02  0.50436468143E+01  0.22249278962E+02  0.51100000000E-03 0.  1.
        -12    1    3    3    0    0  0.39662545984E+01  0.10473900100E+02  0.23043343917E+02  0.25620879331E+02  0.00000000000E+00 0.  1.
</event>
<event>
 7    1  0.7755875E-012  0.5930192E+02  0.7816164E-02  0.1266605E+00
        -11   -1    0    0    0    0  0.00000000000E+00  0.00000000000E+00  0.45593999997E+02  0.45594000000E+02  0.51100000000E-03 0.  1.
         11   -1    0    0    0    0 -0.00000000000E+00 -0.00000000000E+00 -0.45593999997E+02  0.45594000000E+02  0.51100000000E-03 0. -1.
    9900012    2    1    2    0    0  0.11637574181E+01  0.20793587758E+02  0.24145271946E+02  0.59301924975E+02  0.49999965252E+02 0.  0.
         12    1    1    2    0    0 -0.11637574181E+01 -0.20793587758E+02 -0.24145271946E+02  0.31886075025E+02  0.00000000000E+00 0. -1.
         11    1    3    3    0    0 -0.54204861884E+01  0.22266972385E+02  0.29865643710E+00  0.22919182482E+02  0.51100000000E-03 0. -1.
        -11    1    3    3    0    0  0.94557788897E+01 -0.50165514520E+01  0.28147424551E+02  0.30114034137E+02  0.51100000000E-03 0.  1.
        -12    1    3    3    0    0 -0.28715352833E+01  0.35431668249E+01 -0.43008090426E+01  0.62687083560E+01  0.00000000000E+00 0.  1.
</event>
<event>
 7    1  0.7755875E-012  0.5930191E+02  0.7816164E-02  0.1266605E+00
        -11   -1    0    0    0    0  0.00000000000E+00  0.00000000000E+00  0.45593999997E+02  0.45594000000E+02  0.51100000000E-03 0. -1.
         11   -1    0    0    0    0 -0.00000000000E+00 -0.00000000000E+00 -0.45593999997E+02  0.45594000000E+02  0.51100000000E-03 0.  1.
    9900012    2    1    2    0    0  0.10012982765E+02 -0.12213788398E+02  0.27699929048E+02  0.59301913377E+02  0.49999944100E+02 0.  0.
         12    1    1    2    0    0 -0.10012982765E+02  0.12213788398E+02 -0.27699929048E+02  0.31886086623E+02  0.00000000000E+00 0. -1.
         11    1    3    3    0    0 -0.73582319859E+01 -0.19963636426E+01  0.26860947347E+02  0.27922026044E+02  0.51100000000E-03 0. -1.
        -11    1    3    3    0    0  0.15674265103E+02 -0.16020952921E+02  0.62471912348E+01  0.23267593722E+02  0.51100000000E-03 0.  1.
         12    1    3    3    0    0  0.16969496480E+01  0.58035281652E+01 -0.54082095336E+01  0.81122936111E+01  0.00000000000E+00 0. -1.
</event>
<event>
 7    1  0.7755875E-012  0.5930192E+02  0.7816164E-02  0.1266605E+00
        -11   -1    0    0    0    0  0.00000000000E+00  0.00000000000E+00  0.45593999997E+02  0.45594000000E+02  0.51100000000E-03 0.  1.
         11   -1    0    0    0    0 -0.00000000000E+00 -0.00000000000E+00 -0.45593999997E+02  0.45594000000E+02  0.51100000000E-03 0. -1.
    9900012    2    1    2    0    0  0.43893396253E+01 -0.30682904351E+02  0.74843198199E+01  0.59301922083E+02  0.49999959978E+02 0.  0.
         12    1    1    2    0    0 -0.43893396253E+01  0.30682904351E+02 -0.74843198199E+01  0.31886077917E+02  0.00000000000E+00 0. -1.
         11    1    3    3    0    0 -0.13096505596E+02 -0.10753941481E+02 -0.10855388661E+02  0.20124740481E+02  0.51100000000E-03 0. -1.
        -11    1    3    3    0    0  0.93736490182E+01  0.95065581762E+00  0.13161636515E+02  0.16186343577E+02  0.51100000000E-03 0.  1.
        -12    1    3    3    0    0  0.81121962031E+01 -0.20879618688E+02  0.51780719658E+01  0.22990838025E+02  0.00000000000E+00 0.  1.
</event>
<event>
 7    1  0.7755875E-012  0.5930193E+02  0.7816164E-02  0.1266605E+00
        -11   -1    0    0    0    0  0.00000000000E+00  0.00000000000E+00  0.45593999997E+02  0.45594000000E+02  0.51100000000E-03 0. -1.
         11   -1    0    0    0    0 -0.00000000000E+00 -0.00000000000E+00 -0.45593999997E+02  0.45594000000E+02  0.51100000000E-03 0.  1.
    9900012    2    1    2    0    0 -0.69437602972E+01 -0.27451415042E+02 -0.14660331046E+02  0.59301932490E+02  0.49999978959E+02 0.  0.
         12    1    1    2    0    0  0.69437602972E+01  0.27451415042E+02  0.14660331046E+02  0.31886067510E+02  0.00000000000E+00 0. -1.
         11    1    3    3    0    0  0.15689748971E+02 -0.11626899538E+02  0.69116073842E+01  0.20715292239E+02  0.51100000000E-03 0. -1.
        -11    1    3    3    0    0 -0.20418253759E+02 -0.16910879875E+02 -0.12735431589E+02  0.29412143117E+02  0.51100000000E-03 0.  1.
         12    1    3    3    0    0 -0.22152555093E+01  0.10863643719E+01 -0.88365068415E+01  0.91744971350E+01  0.00000000000E+00 0. -1.
</event>
<event>
 7    1  0.7755875E-012  0.5930219E+02  0.7816164E-02  0.1266604E+00
        -11   -1    0    0    0    0  0.00000000000E+00  0.00000000000E+00  0.45593999997E+02  0.45594000000E+02  0.51100000000E-03 0.  1.
         11   -1    0    0    0    0 -0.00000000000E+00 -0.00000000000E+00 -0.45593999997E+02  0.45594000000E+02  0.51100000000E-03 0. -1.
    9900012    2    1    2    0    0 -0.63499597130E+01  0.30892682255E+02  0.46930584804E+01  0.59302194331E+02  0.50000456491E+02 0.  0.
         12    1    1    2    0    0  0.63499597130E+01 -0.30892682255E+02 -0.46930584804E+01  0.31885805669E+02  0.00000000000E+00 0. -1.
         11    1    3    3    0    0  0.59872237753E+01 -0.41441826978E+01 -0.10064118284E+02  0.12422060049E+02  0.51100000000E-03 0. -1.
        -11    1    3    3    0    0  0.23063389722E+01  0.21197175400E+02  0.16053227230E+02  0.26689802344E+02  0.51100000000E-03 0.  1.
         12    1    3    3    0    0 -0.14643522460E+02  0.13839689553E+02 -0.12960504662E+01  0.20190331938E+02  0.00000000000E+00 0. -1.
</event>
<event>
 7    1  0.7755875E-012  0.5930200E+02  0.7816164E-02  0.1266605E+00
        -11   -1    0    0    0    0  0.00000000000E+00  0.00000000000E+00  0.45593999997E+02  0.45594000000E+02  0.51100000000E-03 0.  1.
         11   -1    0    0    0    0 -0.00000000000E+00 -0.00000000000E+00 -0.45593999997E+02  0.45594000000E+02  0.51100000000E-03 0. -1.
    9900012    2    1    2    0    0  0.16858247701E+02 -0.33149324003E+01  0.26861262218E+02  0.59302004637E+02  0.50000110536E+02 0.  0.
         12    1    1    2    0    0 -0.16858247701E+02  0.33149324003E+01 -0.26861262218E+02  0.31885995363E+02  0.00000000000E+00 0. -1.
         11    1    3    3    0    0  0.45087626915E+01 -0.49430083443E+01 -0.98634636262E+01  0.11918480921E+02  0.51100000000E-03 0. -1.
        -11    1    3    3    0    0 -0.82583069616E+01 -0.24298053493E+01  0.14035734864E+02  0.16465279874E+02  0.51100000000E-03 0.  1.
         12    1    3    3    0    0  0.20607791972E+02  0.40578812934E+01  0.22688990980E+02  0.30918243841E+02  0.00000000000E+00 0. -1.
</event>
<event>
 7    1  0.7755875E-012  0.5930194E+02  0.7816164E-02  0.1266605E+00
        -11   -1    0    0    0    0  0.00000000000E+00  0.00000000000E+00  0.45593999997E+02  0.45594000000E+02  0.51100000000E-03 0. -1.
         11   -1    0    0    0    0 -0.00000000000E+00 -0.00000000000E+00 -0.45593999997E+02  0.45594000000E+02  0.51100000000E-03 0.  1.
    9900012    2    1    2    0    0 -0.24281774752E+02 -0.12514064181E+02 -0.16447322155E+02  0.59301940452E+02  0.49999993479E+02 0.  0.
         12    1    1    2    0    0  0.24281774752E+02  0.12514064181E+02  0.16447322155E+02  0.31886059548E+02  0.00000000000E+00 0. -1.
         11    1    3    3    0    0 -0.12927412898E+02 -0.14371980997E+02 -0.46863309747E+01  0.19890538964E+02  0.51100000000E-03 0.  1.
        -11    1    3    3    0    0  0.76017281479E+01  0.10307211588E+02  0.39265055440E+01  0.13395608520E+02  0.51100000000E-03 0. -1.
        -12    1    3    3    0    0 -0.18956090002E+02 -0.84492947723E+01 -0.15687496725E+02  0.26015792969E+02  0.00000000000E+00 0.  1.
</event>
<event>
 7    1  0.7755875E-012  0.5930195E+02  0.7816164E-02  0.1266605E+00
        -11   -1    0    0    0    0  0.00000000000E+00  0.00000000000E+00  0.45593999997E+02  0.45594000000E+02  0.51100000000E-03 0.  1.
         11   -1    0    0    0    0 -0.00000000000E+00 -0.00000000000E+00 -0.45593999997E+02  0.45594000000E+02  0.51100000000E-03 0. -1.
    9900012    2    1    2    0    0 -0.44548821905E+00  0.10486908518E+02  0.30108907986E+02  0.59301952109E+02  0.50000014738E+02 0.  0.
         12    1    1    2    0    0  0.44548821905E+00 -0.10486908518E+02 -0.30108907986E+02  0.31886047891E+02  0.00000000000E+00 0. -1.
         11    1    3    3    0    0 -0.16187849880E+02  0.37248004222E+01 -0.41976761133E+01  0.17133041380E+02  0.51100000000E-03 0. -1.
        -11    1    3    3    0    0  0.96709771920E+01  0.84443647927E+01  0.80199887929E+01  0.15137876902E+02  0.51100000000E-03 0.  1.
         12    1    3    3    0    0  0.60713844687E+01 -0.16822566964E+01  0.26286595306E+02  0.27031033827E+02  0.00000000000E+00 0. -1.
</event>
<event>
 7    1  0.7755875E-012  0.5930194E+02  0.7816164E-02  0.1266605E+00
        -11   -1    0    0    0    0  0.00000000000E+00  0.00000000000E+00  0.45593999997E+02  0.45594000000E+02  0.51100000000E-03 0.  1.
         11   -1    0    0    0    0 -0.00000000000E+00 -0.00000000000E+00 -0.45593999997E+02  0.45594000000E+02  0.51100000000E-03 0. -1.
    9900012    2    1    2    0    0  0.86022713483E+01  0.23239112508E+02  0.20066529024E+02  0.59301937064E+02  0.49999987300E+02 0.  0.
         12    1    1    2    0    0 -0.86022713483E+01 -0.23239112508E+02 -0.20066529024E+02  0.31886062936E+02  0.00000000000E+00 0. -1.
         11    1    3    3    0    0 -0.70439682622E+01 -0.50726802197E+01  0.50125119560E+01  0.10023714374E+02  0.51100000000E-03 0. -1.
        -11    1    3    3    0    0  0.22584854020E+02  0.13126981797E+02  0.18779766827E+02  0.32172549239E+02  0.51100000000E-03 0.  1.
         12    1    3    3    0    0 -0.69386144093E+01  0.15184810931E+02 -0.37257497599E+01  0.17105673450E+02  0.00000000000E+00 0. -1.
</event>
<event>
 7    1  0.7755875E-012  0.5930192E+02  0.7816164E-02  0.1266605E+00
        -11   -1    0    0    0    0  0.00000000000E+00  0.00000000000E+00  0.45593999997E+02  0.45594000000E+02  0.51100000000E-03 0.  1.
         11   -1    0    0    0    0 -0.00000000000E+00 -0.00000000000E+00 -0.45593999997E+02  0.45594000000E+02  0.51100000000E-03 0. -1.
    9900012    2    1    2    0    0  0.11712035979E+02 -0.21192223026E+02  0.20747041008E+02  0.59301924447E+02  0.49999964290E+02 0.  0.
         12    1    1    2    0    0 -0.11712035979E+02  0.21192223026E+02 -0.20747041008E+02  0.31886075553E+02  0.00000000000E+00 0. -1.
         11    1    3    3    0    0 -0.17028598200E+02  0.17652989943E+01  0.22756188718E+01  0.17270433657E+02  0.51100000000E-03 0. -1.
        -11    1    3    3    0    0  0.86115385933E+01 -0.11504102478E+02  0.93288941745E+01  0.17132753356E+02  0.51100000000E-03 0.  1.
         12    1    3    3    0    0  0.20129095585E+02 -0.11453419542E+02  0.91425279619E+01  0.24898737434E+02  0.00000000000E+00 0. -1.
</event>
<event>
 7    1  0.7755875E-012  0.5930192E+02  0.7816164E-02  0.1266605E+00
        -11   -1    0    0    0    0  0.00000000000E+00  0.00000000000E+00  0.45593999997E+02  0.45594000000E+02  0.51100000000E-03 0.  1.
         11   -1    0    0    0    0 -0.00000000000E+00 -0.00000000000E+00 -0.45593999997E+02  0.45594000000E+02  0.51100000000E-03 0. -1.
    9900012    2    1    2    0    0  0.18874153223E+02  0.26938179317E+01  0.25558401455E+02  0.59301918399E+02  0.49999953260E+02 0.  0.
         12    1    1    2    0    0 -0.18874153223E+02 -0.26938179317E+01 -0.25558401455E+02  0.31886081601E+02  0.00000000000E+00 0. -1.
         11    1    3    3    0    0  0.38596563650E+01  0.12386800382E+02 -0.32797298886E+01  0.13382316667E+02  0.51100000000E-03 0. -1.
        -11    1    3    3    0    0 -0.42431335244E+01 -0.12050302411E+02  0.21825713383E+02  0.25289834623E+02  0.51100000000E-03 0.  1.
        -12    1    3    3    0    0  0.19257630382E+02  0.23573199608E+01  0.70124179600E+01  0.20629767109E+02  0.00000000000E+00 0.  1.
</event>
<event>
 7    1  0.7755875E-012  0.5930194E+02  0.7816164E-02  0.1266605E+00
        -11   -1    0    0    0    0  0.00000000000E+00  0.00000000000E+00  0.45593999997E+02  0.45594000000E+02  0.51100000000E-03 0. -1.
         11   -1    0    0    0    0 -0.00000000000E+00 -0.00000000000E+00 -0.45593999997E+02  0.45594000000E+02  0.51100000000E-03 0.  1.
    9900012    2    1    2    0    0  0.23660832342E+02  0.21370080221E+02 -0.45331443584E+00  0.59301940198E+02  0.49999993015E+02 0.  0.
         12    1    1    2    0    0 -0.23660832342E+02 -0.21370080221E+02  0.45331443584E+00  0.31886059802E+02  0.00000000000E+00 0. -1.
         11    1    3    3    0    0  0.69643631828E+01  0.53808896326E+01  0.10982787555E+02  0.14074016858E+02  0.51100000000E-03 0. -1.
        -11    1    3    3    0    0 -0.55663606350E+01 -0.56164891830E+00 -0.16147903374E+02  0.17089605141E+02  0.51100000000E-03 0.  1.
        -12    1    3    3    0    0  0.22262829794E+02  0.16550839506E+02  0.47118013839E+01  0.28138318199E+02  0.00000000000E+00 0.  1.
</event>
<event>
 7    1  0.7755875E-012  0.5930199E+02  0.7816164E-02  0.1266605E+00
        -11   -1    0    0    0    0  0.00000000000E+00  0.00000000000E+00  0.45593999997E+02  0.45594000000E+02  0.51100000000E-03 0. -1.
         11   -1    0    0    0    0 -0.00000000000E+00 -0.00000000000E+00 -0.45593999997E+02  0.45594000000E+02  0.51100000000E-03 0.  1.
    9900012    2    1    2    0    0  0.19242126494E+01  0.29706340152E+02 -0.11425768034E+02  0.59301993434E+02  0.50000090106E+02 0.  0.
         12    1    1    2    0    0 -0.19242126494E+01 -0.29706340152E+02  0.11425768034E+02  0.31886006566E+02  0.00000000000E+00 0. -1.
         11    1    3    3    0    0  0.18886451868E+01  0.33878788300E+02 -0.12220509009E+02  0.36064943062E+02  0.51100000000E-03 0. -1.
        -11    1    3    3    0    0 -0.91511616992E+01 -0.39821730192E+01 -0.61467809084E+01  0.11721108232E+02  0.51100000000E-03 0.  1.
         12    1    3    3    0    0  0.91867291619E+01 -0.19027512941E+00  0.69415218833E+01  0.11515942140E+02  0.00000000000E+00 0. -1.
</event>
<event>
 7    1  0.7755875E-012  0.5930195E+02  0.7816164E-02  0.1266605E+00
        -11   -1    0    0    0    0  0.00000000000E+00  0.00000000000E+00  0.45593999997E+02  0.45594000000E+02  0.51100000000E-03 0.  1.
         11   -1    0    0    0    0 -0.00000000000E+00 -0.00000000000E+00 -0.45593999997E+02  0.45594000000E+02  0.51100000000E-03 0. -1.
    9900012    2    1    2    0    0 -0.46385433412E+01  0.22890582713E+02  0.21707723102E+02  0.59301951271E+02  0.50000013209E+02 0.  0.
         12    1    1    2    0    0  0.46385433412E+01 -0.22890582713E+02 -0.21707723102E+02  0.31886048729E+02  0.00000000000E+00 0. -1.
         11    1    3    3    0    0 -0.74011305781E+01 -0.47428855464E+01  0.51041643286E+01  0.10164850756E+02  0.51100000000E-03 0. -1.
        -11    1    3    3    0    0  0.76467320772E+01  0.35442838557E+02  0.94362096528E+01  0.37466109610E+02  0.51100000000E-03 0.  1.
        -12    1    3    3    0    0 -0.48841448404E+01 -0.78093702974E+01  0.71673491209E+01  0.11670990904E+02  0.00000000000E+00 0.  1.
</event>
<event>
 7    1  0.7755875E-012  0.5930195E+02  0.7816164E-02  0.1266605E+00
        -11   -1    0    0    0    0  0.00000000000E+00  0.00000000000E+00  0.45593999997E+02  0.45594000000E+02  0.51100000000E-03 0. -1.
         11   -1    0    0    0    0 -0.00000000000E+00 -0.00000000000E+00 -0.45593999997E+02  0.45594000000E+02  0.51100000000E-03 0.  1.
    9900012    2    1    2    0    0 -0.76584261816E+01  0.66499467434E+01 -0.30229899886E+02  0.59301950850E+02  0.50000012442E+02 0.  0.
         12    1    1    2    0    0  0.76584261816E+01 -0.66499467434E+01  0.30229899886E+02  0.31886049150E+02  0.00000000000E+00 0. -1.
         11    1    3    3    0    0  0.61939818625E+01 -0.53949329743E+01  0.60599977337E+01  0.10207560233E+02  0.51100000000E-03 0. -1.
        -11    1    3    3    0    0 -0.44675621943E+01  0.73418910089E+00 -0.33903820203E+02  0.34204782856E+02  0.51100000000E-03 0.  1.
         12    1    3    3    0    0 -0.93848458497E+01  0.11310690617E+02 -0.23860774167E+01  0.14889607762E+02  0.00000000000E+00 0. -1.
</event>
<event>
 7    1  0.7755875E-012  0.5930197E+02  0.7816164E-02  0.1266605E+00
        -11   -1    0    0    0    0  0.00000000000E+00  0.00000000000E+00  0.45593999997E+02  0.45594000000E+02  0.51100000000E-03 0. -1.
         11   -1    0    0    0    0 -0.00000000000E+00 -0.00000000000E+00 -0.45593999997E+02  0.45594000000E+02  0.51100000000E-03 0.  1.
    9900012    2    1    2    0    0  0.11584644410E+02 -0.19032674071E+02 -0.22809481201E+02  0.59301966991E+02  0.50000041879E+02 0.  0.
         12    1    1    2    0    0 -0.11584644410E+02  0.19032674071E+02  0.22809481201E+02  0.31886033009E+02  0.00000000000E+00 0. -1.
         11    1    3    3    0    0  0.41377394166E+01  0.14079044271E+02 -0.74793825118E+01  0.16470626524E+02  0.51100000000E-03 0. -1.
        -11    1    3    3    0    0 -0.59646954657E+01 -0.21276721888E+02 -0.79930992029E+01  0.23498215282E+02  0.51100000000E-03 0.  1.
         12    1    3    3    0    0  0.13411600459E+02 -0.11834996455E+02 -0.73369994861E+01  0.19333125185E+02  0.00000000000E+00 0. -1.
</event>
<event>
 7    1  0.7755875E-012  0.5930200E+02  0.7816164E-02  0.1266605E+00
        -11   -1    0    0    0    0  0.00000000000E+00  0.00000000000E+00  0.45593999997E+02  0.45594000000E+02  0.51100000000E-03 0. -1.
         11   -1    0    0    0    0 -0.00000000000E+00 -0.00000000000E+00 -0.45593999997E+02  0.45594000000E+02  0.51100000000E-03 0.  1.
    9900012    2    1    2    0    0 -0.96450873546E+01  0.30243835354E+02  0.30000009136E+01  0.59301995351E+02  0.50000093602E+02 0.  0.
         12    1    1    2    0    0  0.96450873546E+01 -0.30243835354E+02 -0.30000009136E+01  0.31886004649E+02  0.00000000000E+00 0. -1.
         11    1    3    3    0    0 -0.31936291971E+01  0.54662988473E+01  0.16366149924E+02  0.17547950141E+02  0.51100000000E-03 0. -1.
        -11    1    3    3    0    0 -0.11257905681E+02 -0.51245324304E+00 -0.11251269860E+02  0.15924638846E+02  0.51100000000E-03 0.  1.
        -12    1    3    3    0    0  0.48064475232E+01  0.25289989749E+02 -0.21148791507E+01  0.25829406365E+02  0.00000000000E+00 0.  1.
</event>
<event>
 7    1  0.7755875E-012  0.5930195E+02  0.7816164E-02  0.1266605E+00
        -11   -1    0    0    0    0  0.00000000000E+00  0.00000000000E+00  0.45593999997E+02  0.45594000000E+02  0.51100000000E-03 0.  1.
         11   -1    0    0    0    0 -0.00000000000E+00 -0.00000000000E+00 -0.45593999997E+02  0.45594000000E+02  0.51100000000E-03 0. -1.
    9900012    2    1    2    0    0 -0.55034600671E+01  0.10728890961E+02  0.29518184998E+02  0.59301946316E+02  0.50000004174E+02 0.  0.
         12    1    1    2    0    0  0.55034600671E+01 -0.10728890961E+02 -0.29518184998E+02  0.31886053684E+02  0.00000000000E+00 0. -1.
         11    1    3    3    0    0 -0.82583760200E+01  0.18604258802E+02  0.82061249156E+01  0.21946747058E+02  0.51100000000E-03 0. -1.
        -11    1    3    3    0    0  0.67804484803E+01 -0.88606872502E+01 -0.38889587387E+01  0.11815678587E+02  0.51100000000E-03 0.  1.
        -12    1    3    3    0    0 -0.40255325274E+01  0.98531940906E+00  0.25201018821E+02  0.25539520671E+02  0.00000000000E+00 0.  1.
</event>
<event>
 7    1  0.7755875E-012  0.5930194E+02  0.7816164E-02  0.1266605E+00
        -11   -1    0    0    0    0  0.00000000000E+00  0.00000000000E+00  0.45593999997E+02  0.45594000000E+02  0.51100000000E-03 0.  1.
         11   -1    0    0    0    0 -0.00000000000E+00 -0.00000000000E+00 -0.45593999997E+02  0.45594000000E+02  0.51100000000E-03 0. -1.
    9900012    2    1    2    0    0  0.16468563341E+02 -0.13744273413E+02  0.23592413952E+02  0.59301943075E+02  0.49999998262E+02 0.  0.
         12    1    1    2    0    0 -0.16468563341E+02  0.13744273413E+02 -0.23592413952E+02  0.31886056925E+02  0.00000000000E+00 0. -1.
         11    1    3    3    0    0  0.15701051966E+02 -0.61639966997E+01 -0.69777145389E+01  0.18253941727E+02  0.51100000000E-03 0. -1.
        -11    1    3    3    0    0 -0.15805528771E+01 -0.10415257620E+01  0.33467141471E+02  0.33520627706E+02  0.51100000000E-03 0.  1.
        -12    1    3    3    0    0  0.23480642522E+01 -0.65387509514E+01 -0.28970129798E+01  0.75273736417E+01  0.00000000000E+00 0.  1.
</event>
<event>
 7    1  0.7755875E-012  0.5930194E+02  0.7816164E-02  0.1266605E+00
        -11   -1    0    0    0    0  0.00000000000E+00  0.00000000000E+00  0.45593999997E+02  0.45594000000E+02  0.51100000000E-03 0.  1.
         11   -1    0    0    0    0 -0.00000000000E+00 -0.00000000000E+00 -0.45593999997E+02  0.45594000000E+02  0.51100000000E-03 0. -1.
    9900012    2    1    2    0    0  0.21087461408E+02  0.23045768003E+02 -0.63978324708E+01  0.59301941733E+02  0.49999995815E+02 0.  0.
         12    1    1    2    0    0 -0.21087461408E+02 -0.23045768003E+02  0.63978324708E+01  0.31886058267E+02  0.00000000000E+00 0. -1.
         11    1    3    3    0    0  0.19875487911E+02 -0.51553479225E+01 -0.11727903134E+02  0.23646486929E+02  0.51100000000E-03 0. -1.
        -11    1    3    3    0    0 -0.90187341813E+01  0.12388152483E+02  0.67997503634E+01  0.16764262389E+02  0.51100000000E-03 0.  1.
        -12    1    3    3    0    0  0.10230707679E+02  0.15812963443E+02 -0.14696797000E+01  0.18891192415E+02  0.00000000000E+00 0.  1.
</event>
<event>
 7    1  0.7755875E-012  0.5930192E+02  0.7816164E-02  0.1266605E+00
        -11   -1    0    0    0    0  0.00000000000E+00  0.00000000000E+00  0.45593999997E+02  0.45594000000E+02  0.51100000000E-03 0.  1.
         11   -1    0    0    0    0 -0.00000000000E+00 -0.00000000000E+00 -0.45593999997E+02  0.45594000000E+02  0.51100000000E-03 0. -1.
    9900012    2    1    2    0    0 -0.84406509904E+01 -0.18232118523E+02  0.24760194559E+02  0.59301922010E+02  0.49999959844E+02 0.  0.
         12    1    1    2    0    0  0.84406509904E+01  0.18232118523E+02 -0.24760194559E+02  0.31886077990E+02  0.00000000000E+00 0. -1.
         11    1    3    3    0    0 -0.16562831443E+02 -0.76790246370E+01 -0.93337150130E+01  0.20503976224E+02  0.51100000000E-03 0. -1.
        -11    1    3    3    0    0  0.13949187878E+01 -0.11332358791E+02  0.24761936397E+02  0.27267593377E+02  0.51100000000E-03 0.  1.
         12    1    3    3    0    0  0.67272616653E+01  0.77926490498E+00  0.93319731756E+01  0.11530352408E+02  0.00000000000E+00 0. -1.
</event>
<event>
 7    1  0.7755875E-012  0.5930227E+02  0.7816164E-02  0.1266604E+00
        -11   -1    0    0    0    0  0.00000000000E+00  0.00000000000E+00  0.45593999997E+02  0.45594000000E+02  0.51100000000E-03 0.  1.
         11   -1    0    0    0    0 -0.00000000000E+00 -0.00000000000E+00 -0.45593999997E+02  0.45594000000E+02  0.51100000000E-03 0. -1.
    9900012    2    1    2    0    0 -0.22944840016E+02  0.22122456383E+02  0.91158718944E+00  0.59302270417E+02  0.50000595253E+02 0.  0.
         12    1    1    2    0    0  0.22944840016E+02 -0.22122456383E+02 -0.91158718944E+00  0.31885729583E+02  0.00000000000E+00 0. -1.
         11    1    3    3    0    0 -0.23265715339E+02  0.51321210262E+01  0.20168015667E+02  0.31215077009E+02  0.51100000000E-03 0.  1.
        -11    1    3    3    0    0  0.12013708970E+01  0.38658359131E+01 -0.12817912001E+02  0.13441980794E+02  0.51100000000E-03 0. -1.
         12    1    3    3    0    0 -0.88049557452E+00  0.13124499444E+02 -0.64385164759E+01  0.14645212614E+02  0.00000000000E+00 0. -1.
</event>
<event>
 7    1  0.7755875E-012  0.5930192E+02  0.7816164E-02  0.1266605E+00
        -11   -1    0    0    0    0  0.00000000000E+00  0.00000000000E+00  0.45593999997E+02  0.45594000000E+02  0.51100000000E-03 0.  1.
         11   -1    0    0    0    0 -0.00000000000E+00 -0.00000000000E+00 -0.45593999997E+02  0.45594000000E+02  0.51100000000E-03 0. -1.
    9900012    2    1    2    0    0  0.14946047095E+02 -0.10354986321E+02  0.26193745603E+02  0.59301915665E+02  0.49999948273E+02 0.  0.
         12    1    1    2    0    0 -0.14946047095E+02  0.10354986321E+02 -0.26193745603E+02  0.31886084335E+02  0.00000000000E+00 0. -1.
         11    1    3    3    0    0 -0.43826479891E+01  0.12607935217E+02 -0.54703571431E+01  0.14425409574E+02  0.51100000000E-03 0. -1.
        -11    1    3    3    0    0  0.16076872544E+02 -0.18756086163E+02  0.19075590676E+02  0.31211131970E+02  0.51100000000E-03 0.  1.
        -12    1    3    3    0    0  0.32518225404E+01 -0.42068353752E+01  0.12588512070E+02  0.13665374121E+02  0.00000000000E+00 0.  1.
</event>
<event>
 7    1  0.7755875E-012  0.5930197E+02  0.7816164E-02  0.1266605E+00
        -11   -1    0    0    0    0  0.00000000000E+00  0.00000000000E+00  0.45593999997E+02  0.45594000000E+02  0.51100000000E-03 0.  1.
         11   -1    0    0    0    0 -0.00000000000E+00 -0.00000000000E+00 -0.45593999997E+02  0.45594000000E+02  0.51100000000E-03 0. -1.
    9900012    2    1    2    0    0 -0.62717840376E+01  0.13893034177E+02  0.28006555933E+02  0.59301970945E+02  0.50000049091E+02 0.  0.
         12    1    1    2    0    0  0.62717840376E+01 -0.13893034177E+02 -0.28006555933E+02  0.31886029055E+02  0.00000000000E+00 0. -1.
         11    1    3    3    0    0  0.14001393748E+01 -0.88892320558E+01  0.25437243526E+02  0.26982071738E+02  0.51100000000E-03 0.  1.
        -11    1    3    3    0    0  0.24149796338E+01  0.15478387432E+02 -0.64518247268E+01  0.16942214929E+02  0.51100000000E-03 0. -1.
         12    1    3    3    0    0 -0.10086903046E+02  0.73038788008E+01  0.90211371341E+01  0.15377684279E+02  0.00000000000E+00 0. -1.
</event>
<event>
 7    1  0.7755875E-012  0.5930200E+02  0.7816164E-02  0.1266605E+00
        -11   -1    0    0    0    0  0.00000000000E+00  0.00000000000E+00  0.45593999997E+02  0.45594000000E+02  0.51100000000E-03 0.  1.
         11   -1    0    0    0    0 -0.00000000000E+00 -0.00000000000E+00 -0.45593999997E+02  0.45594000000E+02  0.51100000000E-03 0. -1.
    9900012    2    1    2    0    0 -0.76136973241E+01  0.22565322787E+02  0.21202708830E+02  0.59301999292E+02  0.50000100789E+02 0.  0.
         12    1    1    2    0    0  0.76136973241E+01 -0.22565322787E+02 -0.21202708830E+02  0.31886000708E+02  0.00000000000E+00 0. -1.
         11    1    3    3    0    0 -0.24904521147E+02  0.19676842509E+01  0.13690811723E+01  0.25019619069E+02  0.51100000000E-03 0. -1.
        -11    1    3    3    0    0  0.50915309401E+01  0.85058552173E+01  0.33179842577E+01  0.10453816532E+02  0.51100000000E-03 0.  1.
         12    1    3    3    0    0  0.12199292883E+02  0.12091783319E+02  0.16515643400E+02  0.23828563691E+02  0.00000000000E+00 0. -1.
</event>
<event>
 7    1  0.7755875E-012  0.5930194E+02  0.7816164E-02  0.1266605E+00
        -11   -1    0    0    0    0  0.00000000000E+00  0.00000000000E+00  0.45593999997E+02  0.45594000000E+02  0.51100000000E-03 0. -1.
         11   -1    0    0    0    0 -0.00000000000E+00 -0.00000000000E+00 -0.45593999997E+02  0.45594000000E+02  0.51100000000E-03 0.  1.
    9900012    2    1    2    0    0 -0.28859381786E+02  0.49953550243E+01 -0.12605684427E+02  0.59301940840E+02  0.49999994187E+02 0.  0.
         12    1    1    2    0    0  0.28859381786E+02 -0.49953550243E+01  0.12605684427E+02  0.31886059160E+02  0.00000000000E+00 0. -1.
         11    1    3    3    0    0 -0.28327604461E+02  0.50880776020E+01 -0.16467639893E+01  0.28827999238E+02  0.51100000000E-03 0. -1.
        -11    1    3    3    0    0  0.27077904886E-01  0.86901091597E+01 -0.17479760322E+02  0.19520777434E+02  0.51100000000E-03 0.  1.
        -12    1    3    3    0    0 -0.55885522935E+00 -0.87828317375E+01  0.65208398850E+01  0.10953164168E+02  0.00000000000E+00 0.  1.
</event>
<event>
 7    1  0.7755875E-012  0.5930195E+02  0.7816164E-02  0.1266605E+00
        -11   -1    0    0    0    0  0.00000000000E+00  0.00000000000E+00  0.45593999997E+02  0.45594000000E+02  0.51100000000E-03 0.  1.
         11   -1    0    0    0    0 -0.00000000000E+00 -0.00000000000E+00 -0.45593999997E+02  0.45594000000E+02  0.51100000000E-03 0. -1.
    9900012    2    1    2    0    0 -0.11065219909E+02  0.27096993178E+02 -0.12650461859E+02  0.59301947937E+02  0.50000007130E+02 0.  0.
         12    1    1    2    0    0  0.11065219909E+02 -0.27096993178E+02  0.12650461859E+02  0.31886052063E+02  0.00000000000E+00 0. -1.
         11    1    3    3    0    0  0.57295124698E+01  0.17650060857E+02 -0.16854679770E+02  0.25068549855E+02  0.51100000000E-03 0. -1.
        -11    1    3    3    0    0 -0.10171125464E+02 -0.83610098886E+01  0.71877056405E+01  0.15000713057E+02  0.51100000000E-03 0.  1.
        -12    1    3    3    0    0 -0.66236069145E+01  0.17807942209E+02 -0.29834877288E+01  0.19232685026E+02  0.00000000000E+00 0.  1.
</event>
<event>
 7    1  0.7755875E-012  0.5930207E+02  0.7816164E-02  0.1266604E+00
        -11   -1    0    0    0    0  0.00000000000E+00  0.00000000000E+00  0.45593999997E+02  0.45594000000E+02  0.51100000000E-03 0.  1.
         11   -1    0    0    0    0 -0.00000000000E+00 -0.00000000000E+00 -0.45593999997E+02  0.45594000000E+02  0.51100000000E-03 0. -1.
    9900012    2    1    2    0    0  0.19090029604E+02 -0.21430195707E+02  0.13893530229E+02  0.59302067356E+02  0.50000224921E+02 0.  0.
         12    1    1    2    0    0 -0.19090029604E+02  0.21430195707E+02 -0.13893530229E+02  0.31885932644E+02  0.00000000000E+00 0. -1.
         11    1    3    3    0    0 -0.13645862188E+02 -0.65989965242E+01  0.60754914819E+01  0.16329969596E+02  0.51100000000E-03 0. -1.
        -11    1    3    3    0    0  0.32064192981E+02 -0.62221263374E+01  0.23404108745E+01  0.32746066191E+02  0.51100000000E-03 0.  1.
        -12    1    3    3    0    0  0.67169881100E+00 -0.86090728459E+01  0.54776278725E+01  0.10226031570E+02  0.00000000000E+00 0.  1.
</event>
<event>
 7    1  0.7755875E-012  0.5930195E+02  0.7816164E-02  0.1266605E+00
        -11   -1    0    0    0    0  0.00000000000E+00  0.00000000000E+00  0.45593999997E+02  0.45594000000E+02  0.51100000000E-03 0.  1.
         11   -1    0    0    0    0 -0.00000000000E+00 -0.00000000000E+00 -0.45593999997E+02  0.45594000000E+02  0.51100000000E-03 0. -1.
    9900012    2    1    2    0    0  0.23548724624E+01  0.31190280875E+02  0.61920445802E+01  0.59301945659E+02  0.50000002974E+02 0.  0.
         12    1    1    2    0    0 -0.23548724624E+01 -0.31190280875E+02 -0.61920445802E+01  0.31886054341E+02  0.00000000000E+00 0. -1.
         11    1    3    3    0    0 -0.37233188515E+01  0.77355545480E+01 -0.14131452357E+02  0.16534807329E+02  0.51100000000E-03 0. -1.
        -11    1    3    3    0    0  0.13148215357E+02  0.11624208001E+01  0.12301114567E+02  0.18042843707E+02  0.51100000000E-03 0.  1.
        -12    1    3    3    0    0 -0.70700240433E+01  0.22292305527E+02  0.80223823703E+01  0.24724294622E+02  0.00000000000E+00 0.  1.
</event>
<event>
 7    1  0.7755875E-012  0.5930194E+02  0.7816164E-02  0.1266605E+00
        -11   -1    0    0    0    0  0.00000000000E+00  0.00000000000E+00  0.45593999997E+02  0.45594000000E+02  0.51100000000E-03 0. -1.
         11   -1    0    0    0    0 -0.00000000000E+00 -0.00000000000E+00 -0.45593999997E+02  0.45594000000E+02  0.51100000000E-03 0.  1.
    9900012    2    1    2    0    0 -0.15960427812E+02 -0.24073113956E+02 -0.13508169648E+02  0.59301941625E+02  0.49999995617E+02 0.  0.
         12    1    1    2    0    0  0.15960427812E+02  0.24073113956E+02  0.13508169648E+02  0.31886058375E+02  0.00000000000E+00 0. -1.
         11    1    3    3    0    0  0.57319697081E+00 -0.18305054719E+02 -0.20939760991E+02  0.27818647948E+02  0.51100000000E-03 0. -1.
        -11    1    3    3    0    0 -0.23192557889E+02 -0.55427130516E+01  0.67682435252E+01  0.24787608398E+02  0.51100000000E-03 0.  1.
         12    1    3    3    0    0  0.66589331064E+01 -0.22534618566E+00  0.66334781830E+00  0.66956852784E+01  0.00000000000E+00 0. -1.
</event>
<event>
 7    1  0.7755875E-012  0.5930194E+02  0.7816164E-02  0.1266605E+00
        -11   -1    0    0    0    0  0.00000000000E+00  0.00000000000E+00  0.45593999997E+02  0.45594000000E+02  0.51100000000E-03 0. -1.
         11   -1    0    0    0    0 -0.00000000000E+00 -0.00000000000E+00 -0.45593999997E+02  0.45594000000E+02  0.51100000000E-03 0.  1.
    9900012    2    1    2    0    0 -0.16759492163E+02  0.26661528086E+02 -0.50003325509E+01  0.59301937480E+02  0.49999988058E+02 0.  0.
         12    1    1    2    0    0  0.16759492163E+02 -0.26661528086E+02  0.50003325509E+01  0.31886062520E+02  0.00000000000E+00 0. -1.
         11    1    3    3    0    0  0.51425390629E+01  0.65762953638E+01 -0.11182085008E+02  0.13954654926E+02  0.51100000000E-03 0. -1.
        -11    1    3    3    0    0 -0.68097026483E+01  0.60097717068E-01  0.16791223334E+02  0.18119625912E+02  0.51100000000E-03 0.  1.
        -12    1    3    3    0    0 -0.15092328577E+02  0.20025135005E+02 -0.10609470877E+02  0.27227656641E+02  0.00000000000E+00 0.  1.
</event>
<event>
 7    1  0.7755875E-012  0.5930195E+02  0.7816164E-02  0.1266605E+00
        -11   -1    0    0    0    0  0.00000000000E+00  0.00000000000E+00  0.45593999997E+02  0.45594000000E+02  0.51100000000E-03 0.  1.
         11   -1    0    0    0    0 -0.00000000000E+00 -0.00000000000E+00 -0.45593999997E+02  0.45594000000E+02  0.51100000000E-03 0. -1.
    9900012    2    1    2    0    0 -0.24719866480E+02  0.18006780001E+02  0.90224197048E+01  0.59301953175E+02  0.50000016682E+02 0.  0.
         12    1    1    2    0    0  0.24719866480E+02 -0.18006780001E+02 -0.90224197048E+01  0.31886046825E+02  0.00000000000E+00 0. -1.
         11    1    3    3    0    0 -0.10929764417E+02 -0.14882675347E+02  0.65621677622E+01  0.19596321637E+02  0.51100000000E-03 0. -1.
        -11    1    3    3    0    0 -0.36606290532E+01  0.19222102448E+02  0.89249835004E+01  0.21506853752E+02  0.51100000000E-03 0.  1.
         12    1    3    3    0    0 -0.10129473010E+02  0.13667352900E+02 -0.64647315578E+01  0.18198777785E+02  0.00000000000E+00 0. -1.
</event>
<event>
 7    1  0.7755875E-012  0.5930194E+02  0.7816164E-02  0.1266605E+00
        -11   -1    0    0    0    0  0.00000000000E+00  0.00000000000E+00  0.45593999997E+02  0.45594000000E+02  0.51100000000E-03 0.  1.
         11   -1    0    0    0    0 -0.00000000000E+00 -0.00000000000E+00 -0.45593999997E+02  0.45594000000E+02  0.51100000000E-03 0. -1.
    9900012    2    1    2    0    0  0.29203827310E+02 -0.12798407480E+02  0.24107440885E+00  0.59301939088E+02  0.49999990992E+02 0.  0.
         12    1    1    2    0    0 -0.29203827310E+02  0.12798407480E+02 -0.24107440885E+00  0.31886060912E+02  0.00000000000E+00 0. -1.
         11    1    3    3    0    0  0.26942676302E+02 -0.22123710815E+02 -0.41230434297E+01  0.35105069063E+02  0.51100000000E-03 0. -1.
        -11    1    3    3    0    0  0.17576344403E+01  0.85611905049E+01  0.12916600191E+02  0.15595570604E+02  0.51100000000E-03 0.  1.
         12    1    3    3    0    0  0.50351656840E+00  0.76411282991E+00 -0.85524823529E+01  0.86012994221E+01  0.00000000000E+00 0. -1.
</event>
<event>
 7    1  0.7755875E-012  0.5930194E+02  0.7816164E-02  0.1266605E+00
        -11   -1    0    0    0    0  0.00000000000E+00  0.00000000000E+00  0.45593999997E+02  0.45594000000E+02  0.51100000000E-03 0. -1.
         11   -1    0    0    0    0 -0.00000000000E+00 -0.00000000000E+00 -0.45593999997E+02  0.45594000000E+02  0.51100000000E-03 0.  1.
    9900012    2    1    2    0    0  0.70316418165E+01  0.30885158916E+02 -0.36583886291E+01  0.59301939797E+02  0.49999992284E+02 0.  0.
         12    1    1    2    0    0 -0.70316418165E+01 -0.30885158916E+02  0.36583886291E+01  0.31886060203E+02  0.00000000000E+00 0. -1.
         11    1    3    3    0    0 -0.10038427120E+02  0.29288602542E+01  0.94350498122E+01  0.14084331956E+02  0.51100000000E-03 0. -1.
        -11    1    3    3    0    0 -0.36925494575E+01  0.19043584542E+02 -0.11535920846E+02  0.22569237996E+02  0.51100000000E-03 0.  1.
         12    1    3    3    0    0  0.20762618394E+02  0.89127141205E+01 -0.15575175948E+01  0.22648369845E+02  0.00000000000E+00 0. -1.
</event>
<event>
 7    1  0.7755875E-012  0.5930193E+02  0.7816164E-02  0.1266605E+00
        -11   -1    0    0    0    0  0.00000000000E+00  0.00000000000E+00  0.45593999997E+02  0.45594000000E+02  0.51100000000E-03 0. -1.
         11   -1    0    0    0    0 -0.00000000000E+00 -0.00000000000E+00 -0.45593999997E+02  0.45594000000E+02  0.51100000000E-03 0.  1.
    9900012    2    1    2    0    0  0.97876631276E+01 -0.19599272236E+02 -0.23168760134E+02  0.59301933014E+02  0.49999979914E+02 0.  0.
         12    1    1    2    0    0 -0.97876631276E+01  0.19599272236E+02  0.23168760134E+02  0.31886066986E+02  0.00000000000E+00 0. -1.
         11    1    3    3    0    0  0.97061671879E+01  0.93026151527E+01  0.69686673452E+01  0.15143006801E+02  0.51100000000E-03 0. -1.
        -11    1    3    3    0    0 -0.54979814882E+01 -0.18328376601E+02 -0.24078298195E+02  0.30755839015E+02  0.51100000000E-03 0.  1.
        -12    1    3    3    0    0  0.55794774280E+01 -0.10573510788E+02 -0.60591292836E+01  0.13403087197E+02  0.00000000000E+00 0.  1.
</event>
<event>
 7    1  0.7755875E-012  0.5930192E+02  0.7816164E-02  0.1266605E+00
        -11   -1    0    0    0    0  0.00000000000E+00  0.00000000000E+00  0.45593999997E+02  0.45594000000E+02  0.51100000000E-03 0. -1.
         11   -1    0    0    0    0 -0.00000000000E+00 -0.00000000000E+00 -0.45593999997E+02  0.45594000000E+02  0.51100000000E-03 0.  1.
    9900012    2    1    2    0    0  0.14835068195E+02  0.17586879997E+02 -0.22075878433E+02  0.59301921455E+02  0.49999958833E+02 0.  0.
         12    1    1    2    0    0 -0.14835068195E+02 -0.17586879997E+02  0.22075878433E+02  0.31886078545E+02  0.00000000000E+00 0. -1.
         11    1    3    3    0    0  0.69975500827E+01  0.17781589909E+02 -0.32655456424E+02  0.37835558425E+02  0.51100000000E-03 0. -1.
        -11    1    3    3    0    0  0.10140714273E+02  0.16666408396E+01 -0.20886065334E+00  0.10278881295E+02  0.51100000000E-03 0.  1.
         12    1    3    3    0    0 -0.23031961603E+01 -0.18613507511E+01  0.10788438644E+02  0.11187481734E+02  0.00000000000E+00 0. -1.
</event>
<event>
 7    1  0.7755875E-012  0.5930196E+02  0.7816164E-02  0.1266605E+00
        -11   -1    0    0    0    0  0.00000000000E+00  0.00000000000E+00  0.45593999997E+02  0.45594000000E+02  0.51100000000E-03 0.  1.
         11   -1    0    0    0    0 -0.00000000000E+00 -0.00000000000E+00 -0.45593999997E+02  0.45594000000E+02  0.51100000000E-03 0. -1.
    9900012    2    1    2    0    0  0.40356501047E+00 -0.26325666158E+02 -0.17986551188E+02  0.59301959370E+02  0.50000027981E+02 0.  0.
         12    1    1    2    0    0 -0.40356501047E+00  0.26325666158E+02  0.17986551188E+02  0.31886040630E+02  0.00000000000E+00 0. -1.
         11    1    3    3    0    0 -0.19590775141E+02  0.54344400725E-01 -0.76979449496E+00  0.19605968677E+02  0.51100000000E-03 0. -1.
        -11    1    3    3    0    0  0.73269887268E+01 -0.58033426233E+01 -0.11584510233E+02  0.14885040377E+02  0.51100000000E-03 0.  1.
         12    1    3    3    0    0  0.12667351425E+02 -0.20576667936E+02 -0.56322464594E+01  0.24810950317E+02  0.00000000000E+00 0. -1.
</event>
<event>
 7    1  0.7755875E-012  0.5930195E+02  0.7816164E-02  0.1266605E+00
        -11   -1    0    0    0    0  0.00000000000E+00  0.00000000000E+00  0.45593999997E+02  0.45594000000E+02  0.51100000000E-03 0.  1.
         11   -1    0    0    0    0 -0.00000000000E+00 -0.00000000000E+00 -0.45593999997E+02  0.45594000000E+02  0.51100000000E-03 0. -1.
    9900012    2    1    2    0    0  0.31333731000E+02  0.57637730183E+01 -0.13024500565E+01  0.59301950481E+02  0.50000011770E+02 0.  0.
         12    1    1    2    0    0 -0.31333731000E+02 -0.57637730183E+01  0.13024500565E+01  0.31886049519E+02  0.00000000000E+00 0. -1.
         11    1    3    3    0    0  0.20499164277E+02  0.91438490428E+01  0.17180007898E+02  0.28266205670E+02  0.51100000000E-03 0. -1.
        -11    1    3    3    0    0  0.10426101268E+01  0.90326890103E+01 -0.60279058110E+01  0.10909269240E+02  0.51100000000E-03 0.  1.
         12    1    3    3    0    0  0.97919565960E+01 -0.12412765035E+02 -0.12454552143E+02  0.20126475570E+02  0.00000000000E+00 0. -1.
</event>
<event>
 7    1  0.7755875E-012  0.5930209E+02  0.7816164E-02  0.1266604E+00
        -11   -1    0    0    0    0  0.00000000000E+00  0.00000000000E+00  0.45593999997E+02  0.45594000000E+02  0.51100000000E-03 0.  1.
         11   -1    0    0    0    0 -0.00000000000E+00 -0.00000000000E+00 -0.45593999997E+02  0.45594000000E+02  0.51100000000E-03 0. -1.
    9900012    2    1    2    0    0 -0.13672634286E+02 -0.28768743482E+02 -0.14594621653E+01  0.59302085247E+02  0.50000257549E+02 0.  0.
         12    1    1    2    0    0  0.13672634286E+02  0.28768743482E+02  0.14594621653E+01  0.31885914753E+02  0.00000000000E+00 0. -1.
         11    1    3    3    0    0  0.12592273407E+02 -0.22487277166E+02 -0.43471688686E+01  0.26136963506E+02  0.51100000000E-03 0. -1.
        -11    1    3    3    0    0 -0.18964236487E+02 -0.20657119734E+01 -0.68647062522E+01  0.20273964183E+02  0.51100000000E-03 0.  1.
        -12    1    3    3    0    0 -0.73006712058E+01 -0.42157543425E+01  0.97524129555E+01  0.12891157558E+02  0.00000000000E+00 0.  1.
</event>
<event>
 7    1  0.7755875E-012  0.5930190E+02  0.7816164E-02  0.1266605E+00
        -11   -1    0    0    0    0  0.00000000000E+00  0.00000000000E+00  0.45593999997E+02  0.45594000000E+02  0.51100000000E-03 0.  1.
         11   -1    0    0    0    0 -0.00000000000E+00 -0.00000000000E+00 -0.45593999997E+02  0.45594000000E+02  0.51100000000E-03 0. -1.
    9900012    2    1    2    0    0 -0.46332643855E+01 -0.12498097863E+01  0.31522919041E+02  0.59301896628E+02  0.49999913554E+02 0.  0.
         12    1    1    2    0    0  0.46332643855E+01  0.12498097863E+01 -0.31522919041E+02  0.31886103372E+02  0.00000000000E+00 0. -1.
         11    1    3    3    0    0  0.31481221475E+00 -0.57830255384E+01  0.47591229558E+00  0.58111086621E+01  0.51100000000E-03 0. -1.
        -11    1    3    3    0    0 -0.11571837492E+02  0.21831532083E+02  0.14475184721E+02  0.28636588292E+02  0.51100000000E-03 0.  1.
        -12    1    3    3    0    0  0.66237608913E+01 -0.17298316331E+02  0.16571822024E+02  0.24854199674E+02  0.00000000000E+00 0.  1.
</event>
<event>
 7    1  0.7755875E-012  0.5930194E+02  0.7816164E-02  0.1266605E+00
        -11   -1    0    0    0    0  0.00000000000E+00  0.00000000000E+00  0.45593999997E+02  0.45594000000E+02  0.51100000000E-03 0. -1.
         11   -1    0    0    0    0 -0.00000000000E+00 -0.00000000000E+00 -0.45593999997E+02  0.45594000000E+02  0.51100000000E-03 0.  1.
    9900012    2    1    2    0    0 -0.28948231845E+02 -0.64320152462E+01  0.11719628590E+02  0.59301942838E+02  0.49999997830E+02 0.  0.
         12    1    1    2    0    0  0.28948231845E+02  0.64320152462E+01 -0.11719628590E+02  0.31886057162E+02  0.00000000000E+00 0. -1.
         11    1    3    3    0    0 -0.20632015190E+01  0.59709519427E+01  0.18467258794E+02  0.19517907553E+02  0.51100000000E-03 0. -1.
        -11    1    3    3    0    0 -0.12650676755E+02 -0.11838012189E+02 -0.15345974346E+02  0.23144698828E+02  0.51100000000E-03 0.  1.
        -12    1    3    3    0    0 -0.14234353571E+02 -0.56495500007E+00  0.85983441423E+01  0.16639336457E+02  0.00000000000E+00 0.  1.
</event>
<event>
 7    1  0.7755875E-012  0.5930192E+02  0.7816164E-02  0.1266605E+00
        -11   -1    0    0    0    0  0.00000000000E+00  0.00000000000E+00  0.45593999997E+02  0.45594000000E+02  0.51100000000E-03 0.  1.
         11   -1    0    0    0    0 -0.00000000000E+00 -0.00000000000E+00 -0.45593999997E+02  0.45594000000E+02  0.51100000000E-03 0. -1.
    9900012    2    1    2    0    0  0.35872713691E+01 -0.16096839124E+02  0.27290018528E+02  0.59301923777E+02  0.49999963068E+02 0.  0.
         12    1    1    2    0    0 -0.35872713691E+01  0.16096839124E+02 -0.27290018528E+02  0.31886076223E+02  0.00000000000E+00 0. -1.
         11    1    3    3    0    0 -0.38090055731E+01  0.23150773499E+01 -0.13403987422E+01  0.46545435481E+01  0.51100000000E-03 0. -1.
        -11    1    3    3    0    0  0.72488392137E+01 -0.29090414574E+02  0.73961901920E+01  0.30878819920E+02  0.51100000000E-03 0.  1.
        -12    1    3    3    0    0  0.14743772856E+00  0.10678498100E+02  0.21234227078E+02  0.23768560309E+02  0.00000000000E+00 0.  1.
</event>
<event>
 7    1  0.7755875E-012  0.5930189E+02  0.7816164E-02  0.1266605E+00
        -11   -1    0    0    0    0  0.00000000000E+00  0.00000000000E+00  0.45593999997E+02  0.45594000000E+02  0.51100000000E-03 0. -1.
         11   -1    0    0    0    0 -0.00000000000E+00 -0.00000000000E+00 -0.45593999997E+02  0.45594000000E+02  0.51100000000E-03 0.  1.
    9900012    2    1    2    0    0  0.14137358298E+02 -0.19372601141E+02 -0.21013361869E+02  0.59301890930E+02  0.49999903162E+02 0.  0.
         12    1    1    2    0    0 -0.14137358298E+02  0.19372601141E+02  0.21013361869E+02  0.31886109070E+02  0.00000000000E+00 0. -1.
         11    1    3    3    0    0  0.13971572541E+02  0.90966241928E+00 -0.18409332982E+01  0.14121662815E+02  0.51100000000E-03 0. -1.
        -11    1    3    3    0    0 -0.90401307515E+01 -0.19580083675E+02 -0.25939121258E+02  0.33733390767E+02  0.51100000000E-03 0.  1.
         12    1    3    3    0    0  0.92059165091E+01 -0.70217988526E+00  0.67666926876E+01  0.11446837349E+02  0.00000000000E+00 0. -1.
</event>
<event>
 7    1  0.7755875E-012  0.5930194E+02  0.7816164E-02  0.1266605E+00
        -11   -1    0    0    0    0  0.00000000000E+00  0.00000000000E+00  0.45593999997E+02  0.45594000000E+02  0.51100000000E-03 0. -1.
         11   -1    0    0    0    0 -0.00000000000E+00 -0.00000000000E+00 -0.45593999997E+02  0.45594000000E+02  0.51100000000E-03 0.  1.
    9900012    2    1    2    0    0 -0.18786578110E+02 -0.23773247949E+02  0.99306525399E+01  0.59301941997E+02  0.49999996296E+02 0.  0.
         12    1    1    2    0    0  0.18786578110E+02  0.23773247949E+02 -0.99306525399E+01  0.31886058003E+02  0.00000000000E+00 0. -1.
         11    1    3    3    0    0 -0.13353407704E+02 -0.23847277638E+02  0.25928921312E+02  0.37673798703E+02  0.51100000000E-03 0. -1.
        -11    1    3    3    0    0 -0.60456492607E+01  0.60111045571E+01 -0.84295391438E+01  0.11989177762E+02  0.51100000000E-03 0.  1.
         12    1    3    3    0    0  0.61247885449E+00 -0.59370748677E+01 -0.75687296281E+01  0.96389655314E+01  0.00000000000E+00 0. -1.
</event>
<event>
 7    1  0.7755875E-012  0.5930195E+02  0.7816164E-02  0.1266605E+00
        -11   -1    0    0    0    0  0.00000000000E+00  0.00000000000E+00  0.45593999997E+02  0.45594000000E+02  0.51100000000E-03 0. -1.
         11   -1    0    0    0    0 -0.00000000000E+00 -0.00000000000E+00 -0.45593999997E+02  0.45594000000E+02  0.51100000000E-03 0.  1.
    9900012    2    1    2    0    0  0.37633112643E+01  0.60121106963E+01 -0.31087167990E+02  0.59301952889E+02  0.50000016161E+02 0.  0.
         12    1    1    2    0    0 -0.37633112643E+01 -0.60121106963E+01  0.31087167990E+02  0.31886047111E+02  0.00000000000E+00 0. -1.
         11    1    3    3    0    0  0.78208548914E+01  0.24540808766E+01  0.48696865378E+01  0.95342609267E+01  0.51100000000E-03 0. -1.
        -11    1    3    3    0    0 -0.13063553711E+02  0.14569097730E+02 -0.25347218055E+02  0.32021812997E+02  0.51100000000E-03 0.  1.
        -12    1    3    3    0    0  0.90060100843E+01 -0.11011067910E+02 -0.10609636473E+02  0.17745878966E+02  0.00000000000E+00 0.  1.
</event>
<event>
 7    1  0.7755875E-012  0.5930194E+02  0.7816164E-02  0.1266605E+00
        -11   -1    0    0    0    0  0.00000000000E+00  0.00000000000E+00  0.45593999997E+02  0.45594000000E+02  0.51100000000E-03 0. -1.
         11   -1    0    0    0    0 -0.00000000000E+00 -0.00000000000E+00 -0.45593999997E+02  0.45594000000E+02  0.51100000000E-03 0.  1.
    9900012    2    1    2    0    0 -0.31530365730E+02 -0.23906619002E+01 -0.41038309623E+01  0.59301942609E+02  0.49999997412E+02 0.  0.
         12    1    1    2    0    0  0.31530365730E+02  0.23906619002E+01  0.41038309623E+01  0.31886057391E+02  0.00000000000E+00 0. -1.
         11    1    3    3    0    0  0.20858926437E+01 -0.12187873055E+01  0.86278385062E+00  0.25653044363E+01  0.51100000000E-03 0. -1.
        -11    1    3    3    0    0 -0.25028466905E+02 -0.30036437839E+01 -0.24604242070E+02  0.35225200634E+02  0.51100000000E-03 0.  1.
        -12    1    3    3    0    0 -0.85877914683E+01  0.18317691891E+01  0.19637627257E+02  0.21511437538E+02  0.00000000000E+00 0.  1.
</event>
<event>
 7    1  0.7755875E-012  0.5930192E+02  0.7816164E-02  0.1266605E+00
        -11   -1    0    0    0    0  0.00000000000E+00  0.00000000000E+00  0.45593999997E+02  0.45594000000E+02  0.51100000000E-03 0. -1.
         11   -1    0    0    0    0 -0.00000000000E+00 -0.00000000000E+00 -0.45593999997E+02  0.45594000000E+02  0.51100000000E-03 0.  1.
    9900012    2    1    2    0    0 -0.59697438890E+01  0.23775570477E+02 -0.20391328860E+02  0.59301923316E+02  0.49999962228E+02 0.  0.
         12    1    1    2    0    0  0.59697438890E+01 -0.23775570477E+02  0.20391328860E+02  0.31886076684E+02  0.00000000000E+00 0. -1.
         11    1    3    3    0    0  0.32760508251E+01 -0.80254503031E+01  0.13747068771E+01  0.87766839316E+01  0.51100000000E-03 0. -1.
        -11    1    3    3    0    0 -0.16725712659E+02  0.26147154957E+02 -0.51742775796E+01  0.31467385099E+02  0.51100000000E-03 0.  1.
        -12    1    3    3    0    0  0.74799179445E+01  0.56538658232E+01 -0.16591758158E+02  0.19057854285E+02  0.00000000000E+00 0.  1.
</event>
<event>
 7    1  0.7755875E-012  0.5930195E+02  0.7816164E-02  0.1266605E+00
        -11   -1    0    0    0    0  0.00000000000E+00  0.00000000000E+00  0.45593999997E+02  0.45594000000E+02  0.51100000000E-03 0.  1.
         11   -1    0    0    0    0 -0.00000000000E+00 -0.00000000000E+00 -0.45593999997E+02  0.45594000000E+02  0.51100000000E-03 0. -1.
    9900012    2    1    2    0    0 -0.23551357497E+02  0.20616184391E+02 -0.60849350842E+01  0.59301953933E+02  0.50000018064E+02 0.  0.
         12    1    1    2    0    0  0.23551357497E+02 -0.20616184391E+02  0.60849350842E+01  0.31886046067E+02  0.00000000000E+00 0. -1.
         11    1    3    3    0    0 -0.83541213550E+00  0.14099091202E+02  0.79657245048E+01  0.16215272224E+02  0.51100000000E-03 0. -1.
        -11    1    3    3    0    0 -0.11134982794E+02 -0.11893667711E+02 -0.13773873426E+02  0.21334637632E+02  0.51100000000E-03 0.  1.
        -12    1    3    3    0    0 -0.11580962568E+02  0.18410760901E+02 -0.27678616320E+00  0.21752044077E+02  0.00000000000E+00 0.  1.
</event>
<event>
 7    1  0.7755875E-012  0.5930193E+02  0.7816164E-02  0.1266605E+00
        -11   -1    0    0    0    0  0.00000000000E+00  0.00000000000E+00  0.45593999997E+02  0.45594000000E+02  0.51100000000E-03 0.  1.
         11   -1    0    0    0    0 -0.00000000000E+00 -0.00000000000E+00 -0.45593999997E+02  0.45594000000E+02  0.51100000000E-03 0. -1.
    9900012    2    1    2    0    0 -0.19219023061E+01 -0.72155330064E+01  0.30999411918E+02  0.59301934638E+02  0.49999982875E+02 0.  0.
         12    1    1    2    0    0  0.19219023061E+01  0.72155330064E+01 -0.30999411918E+02  0.31886065362E+02  0.00000000000E+00 0. -1.
         11    1    3    3    0    0 -0.36473104776E+01  0.47380721523E+01 -0.79374940175E+01  0.99376059984E+01  0.51100000000E-03 0. -1.
        -11    1    3    3    0    0 -0.12707701399E+02 -0.38810519260E+01  0.21940556629E+02  0.25650268310E+02  0.51100000000E-03 0.  1.
         12    1    3    3    0    0  0.14433109571E+02 -0.80725532327E+01  0.16996349306E+02  0.23714060330E+02  0.00000000000E+00 0. -1.
</event>
<event>
 7    1  0.7755875E-012  0.5930196E+02  0.7816164E-02  0.1266605E+00
        -11   -1    0    0    0    0  0.00000000000E+00  0.00000000000E+00  0.45593999997E+02  0.45594000000E+02  0.51100000000E-03 0.  1.
         11   -1    0    0    0    0 -0.00000000000E+00 -0.00000000000E+00 -0.45593999997E+02  0.45594000000E+02  0.51100000000E-03 0. -1.
    9900012    2    1    2    0    0  0.14084032154E+02  0.26332453874E+02 -0.11178610949E+02  0.59301961810E+02  0.50000032430E+02 0.  0.
         12    1    1    2    0    0 -0.14084032154E+02 -0.26332453874E+02  0.11178610949E+02  0.31886038190E+02  0.00000000000E+00 0. -1.
         11    1    3    3    0    0 -0.18736431341E+01  0.55499168456E+01  0.78103728154E+01  0.97628909327E+01  0.51100000000E-03 0. -1.
        -11    1    3    3    0    0  0.19580779491E+02 -0.41148073228E+01 -0.12369567043E+02  0.23523281104E+02  0.51100000000E-03 0.  1.
        -12    1    3    3    0    0 -0.36231042032E+01  0.24897344351E+02 -0.66194167210E+01  0.26015789773E+02  0.00000000000E+00 0.  1.
</event>
<event>
 7    1  0.7755875E-012  0.5930194E+02  0.7816164E-02  0.1266605E+00
        -11   -1    0    0    0    0  0.00000000000E+00  0.00000000000E+00  0.45593999997E+02  0.45594000000E+02  0.51100000000E-03 0. -1.
         11   -1    0    0    0    0 -0.00000000000E+00 -0.00000000000E+00 -0.45593999997E+02  0.45594000000E+02  0.51100000000E-03 0.  1.
    9900012    2    1    2    0    0 -0.19142857774E+02  0.13546921922E+02  0.21604467268E+02  0.59301935595E+02  0.49999984621E+02 0.  0.
         12    1    1    2    0    0  0.19142857774E+02 -0.13546921922E+02 -0.21604467268E+02  0.31886064405E+02  0.00000000000E+00 0. -1.
         11    1    3    3    0    0 -0.18892778298E+02  0.13326504877E+02 -0.10031262908E+02  0.25202361791E+02  0.51100000000E-03 0.  1.
        -11    1    3    3    0    0  0.54433709207E+01  0.30197177542E+01  0.18342025823E+02  0.19369535200E+02  0.51100000000E-03 0. -1.
        -12    1    3    3    0    0 -0.56934503967E+01 -0.27993007090E+01  0.13293704353E+02  0.14730038605E+02  0.00000000000E+00 0.  1.
</event>
<event>
 7    1  0.7755875E-012  0.5930196E+02  0.7816164E-02  0.1266605E+00
        -11   -1    0    0    0    0  0.00000000000E+00  0.00000000000E+00  0.45593999997E+02  0.45594000000E+02  0.51100000000E-03 0.  1.
         11   -1    0    0    0    0 -0.00000000000E+00 -0.00000000000E+00 -0.45593999997E+02  0.45594000000E+02  0.51100000000E-03 0. -1.
    9900012    2    1    2    0    0 -0.24075096511E+02 -0.12894539974E+02  0.16457224084E+02  0.59301958262E+02  0.50000025960E+02 0.  0.
         12    1    1    2    0    0  0.24075096511E+02  0.12894539974E+02 -0.16457224084E+02  0.31886041738E+02  0.00000000000E+00 0. -1.
         11    1    3    3    0    0 -0.33654910506E+02 -0.71670950925E+00  0.14669293079E+02  0.36719951434E+02  0.51100000000E-03 0. -1.
        -11    1    3    3    0    0  0.40264733307E+01 -0.48055654672E+01  0.89303706811E+01  0.10911345825E+02  0.51100000000E-03 0.  1.
         12    1    3    3    0    0  0.55533406634E+01 -0.73722649977E+01 -0.71424396759E+01  0.11670661003E+02  0.00000000000E+00 0. -1.
</event>
<event>
 7    1  0.7755875E-012  0.5930193E+02  0.7816164E-02  0.1266605E+00
        -11   -1    0    0    0    0  0.00000000000E+00  0.00000000000E+00  0.45593999997E+02  0.45594000000E+02  0.51100000000E-03 0.  1.
         11   -1    0    0    0    0 -0.00000000000E+00 -0.00000000000E+00 -0.45593999997E+02  0.45594000000E+02  0.51100000000E-03 0. -1.
    9900012    2    1    2    0    0  0.22568847048E+02  0.36460038456E+01  0.22227800456E+02  0.59301932287E+02  0.49999978587E+02 0.  0.
         12    1    1    2    0    0 -0.22568847048E+02 -0.36460038456E+01 -0.22227800456E+02  0.31886067713E+02  0.00000000000E+00 0. -1.
         11    1    3    3    0    0  0.14445405166E+02  0.24296122153E+02  0.48052156161E+01  0.28671612781E+02  0.51100000000E-03 0. -1.
        -11    1    3    3    0    0  0.11135670140E+02 -0.14020625622E+02  0.12690348086E+02  0.21945979748E+02  0.51100000000E-03 0.  1.
         12    1    3    3    0    0 -0.30122282577E+01 -0.66294926855E+01  0.47322367534E+01  0.86843397580E+01  0.00000000000E+00 0. -1.
</event>
<event>
 7    1  0.7755875E-012  0.5930193E+02  0.7816164E-02  0.1266605E+00
        -11   -1    0    0    0    0  0.00000000000E+00  0.00000000000E+00  0.45593999997E+02  0.45594000000E+02  0.51100000000E-03 0. -1.
         11   -1    0    0    0    0 -0.00000000000E+00 -0.00000000000E+00 -0.45593999997E+02  0.45594000000E+02  0.51100000000E-03 0.  1.
    9900012    2    1    2    0    0  0.10688527403E+02 -0.66142205119E+00 -0.30033971995E+02  0.59301928261E+02  0.49999971244E+02 0.  0.
         12    1    1    2    0    0 -0.10688527403E+02  0.66142205119E+00  0.30033971995E+02  0.31886071739E+02  0.00000000000E+00 0. -1.
         11    1    3    3    0    0 -0.11334529983E+01 -0.55991346231E+01  0.46189317151E+00  0.57313497354E+01  0.51100000000E-03 0. -1.
        -11    1    3    3    0    0  0.22708887230E+02  0.15961730976E+02 -0.24274824332E+02  0.36874618799E+02  0.51100000000E-03 0.  1.
        -12    1    3    3    0    0 -0.10886906829E+02 -0.11024018404E+02 -0.62210408349E+01  0.16695959726E+02  0.00000000000E+00 0.  1.
</event>
<event>
 7    1  0.7755875E-012  0.5930194E+02  0.7816164E-02  0.1266605E+00
        -11   -1    0    0    0    0  0.00000000000E+00  0.00000000000E+00  0.45593999997E+02  0.45594000000E+02  0.51100000000E-03 0.  1.
         11   -1    0    0    0    0 -0.00000000000E+00 -0.00000000000E+00 -0.45593999997E+02  0.45594000000E+02  0.51100000000E-03 0. -1.
    9900012    2    1    2    0    0 -0.25744913947E+02  0.17570648481E+02  0.67225391085E+01  0.59301940127E+02  0.49999992885E+02 0.  0.
         12    1    1    2    0    0  0.25744913947E+02 -0.17570648481E+02 -0.67225391085E+01  0.31886059873E+02  0.00000000000E+00 0. -1.
         11    1    3    3    0    0 -0.20317725948E+02 -0.55993967979E+01 -0.79298856557E+01  0.22517689024E+02  0.51100000000E-03 0. -1.
        -11    1    3    3    0    0 -0.43946072696E+01  0.27812416593E+02  0.93681287696E+01  0.29674988234E+02  0.51100000000E-03 0.  1.
        -12    1    3    3    0    0 -0.10325807296E+01 -0.46423713139E+01  0.52842959945E+01  0.71092628688E+01  0.00000000000E+00 0.  1.
</event>
<event>
 7    1  0.7755875E-012  0.5930204E+02  0.7816164E-02  0.1266604E+00
        -11   -1    0    0    0    0  0.00000000000E+00  0.00000000000E+00  0.45593999997E+02  0.45594000000E+02  0.51100000000E-03 0.  1.
         11   -1    0    0    0    0 -0.00000000000E+00 -0.00000000000E+00 -0.45593999997E+02  0.45594000000E+02  0.51100000000E-03 0. -1.
    9900012    2    1    2    0    0 -0.49414457436E+01 -0.24808225425E+02  0.19412594020E+02  0.59302035354E+02  0.50000166558E+02 0.  0.
         12    1    1    2    0    0  0.49414457436E+01  0.24808225425E+02 -0.19412594020E+02  0.31885964646E+02  0.00000000000E+00 0. -1.
         11    1    3    3    0    0  0.65785557607E+01  0.10188116484E+02  0.28971375064E+01  0.12468701591E+02  0.51100000000E-03 0. -1.
        -11    1    3    3    0    0 -0.28931176788E+01 -0.34711699298E+02  0.15558374845E+02  0.38148856158E+02  0.51100000000E-03 0.  1.
        -12    1    3    3    0    0 -0.86268838255E+01 -0.28464261116E+00  0.95708166873E+00  0.86844776052E+01  0.00000000000E+00 0.  1.
</event>
<event>
 7    1  0.7755875E-012  0.5930198E+02  0.7816164E-02  0.1266605E+00
        -11   -1    0    0    0    0  0.00000000000E+00  0.00000000000E+00  0.45593999997E+02  0.45594000000E+02  0.51100000000E-03 0. -1.
         11   -1    0    0    0    0 -0.00000000000E+00 -0.00000000000E+00 -0.45593999997E+02  0.45594000000E+02  0.51100000000E-03 0.  1.
    9900012    2    1    2    0    0  0.69727283503E+01 -0.68043461010E+01 -0.30361167589E+02  0.59301975415E+02  0.50000057242E+02 0.  0.
         12    1    1    2    0    0 -0.69727283503E+01  0.68043461010E+01  0.30361167589E+02  0.31886024585E+02  0.00000000000E+00 0. -1.
         11    1    3    3    0    0  0.40736085694E+01  0.73694359897E+01  0.24930064985E+01  0.87816829393E+01  0.51100000000E-03 0. -1.
        -11    1    3    3    0    0  0.16491047682E+02 -0.14199210053E+02 -0.29252378943E+02  0.36459208629E+02  0.51100000000E-03 0.  1.
        -12    1    3    3    0    0 -0.13591927902E+02  0.25427961980E-01 -0.36017951443E+01  0.14061083846E+02  0.00000000000E+00 0.  1.
</event>
<event>
 7    1  0.7755875E-012  0.5930190E+02  0.7816164E-02  0.1266605E+00
        -11   -1    0    0    0    0  0.00000000000E+00  0.00000000000E+00  0.45593999997E+02  0.45594000000E+02  0.51100000000E-03 0. -1.
         11   -1    0    0    0    0 -0.00000000000E+00 -0.00000000000E+00 -0.45593999997E+02  0.45594000000E+02  0.51100000000E-03 0.  1.
    9900012    2    1    2    0    0 -0.98872414086E+01  0.24631170974E+02 -0.17671196283E+02  0.59301901081E+02  0.49999921675E+02 0.  0.
         12    1    1    2    0    0  0.98872414086E+01 -0.24631170974E+02  0.17671196283E+02  0.31886098919E+02  0.00000000000E+00 0. -1.
         11    1    3    3    0    0 -0.59622351936E+01 -0.98061017425E+01  0.20315799487E+01  0.11654835788E+02  0.51100000000E-03 0. -1.
        -11    1    3    3    0    0  0.94643118603E+01  0.21987425251E+02 -0.16530315802E+02  0.29090744385E+02  0.51100000000E-03 0.  1.
        -12    1    3    3    0    0 -0.13389318075E+02  0.12449847466E+02 -0.31724604302E+01  0.18556320908E+02  0.00000000000E+00 0.  1.
</event>
<event>
 7    1  0.7755875E-012  0.5930190E+02  0.7816164E-02  0.1266605E+00
        -11   -1    0    0    0    0  0.00000000000E+00  0.00000000000E+00  0.45593999997E+02  0.45594000000E+02  0.51100000000E-03 0.  1.
         11   -1    0    0    0    0 -0.00000000000E+00 -0.00000000000E+00 -0.45593999997E+02  0.45594000000E+02  0.51100000000E-03 0. -1.
    9900012    2    1    2    0    0 -0.24706775808E+02 -0.11153042628E+02  0.16790116037E+02  0.59301903857E+02  0.49999926738E+02 0.  0.
         12    1    1    2    0    0  0.24706775808E+02  0.11153042628E+02 -0.16790116037E+02  0.31886096143E+02  0.00000000000E+00 0. -1.
         11    1    3    3    0    0 -0.28846009014E+02  0.87566562590E+01  0.16912025817E+02  0.34565703846E+02  0.51100000000E-03 0. -1.
        -11    1    3    3    0    0 -0.29920405823E+01 -0.92881880348E+01  0.49890750765E+01  0.10959635678E+02  0.51100000000E-03 0.  1.
         12    1    3    3    0    0  0.71312737881E+01 -0.10621510852E+02 -0.51109848560E+01  0.13776564333E+02  0.00000000000E+00 0. -1.
</event>
<event>
 7    1  0.7755875E-012  0.5930200E+02  0.7816164E-02  0.1266605E+00
        -11   -1    0    0    0    0  0.00000000000E+00  0.00000000000E+00  0.45593999997E+02  0.45594000000E+02  0.51100000000E-03 0.  1.
         11   -1    0    0    0    0 -0.00000000000E+00 -0.00000000000E+00 -0.45593999997E+02  0.45594000000E+02  0.51100000000E-03 0. -1.
    9900012    2    1    2    0    0  0.22943237133E+02  0.19432492047E+02  0.10616167509E+02  0.59302001664E+02  0.50000105115E+02 0.  0.
         12    1    1    2    0    0 -0.22943237133E+02 -0.19432492047E+02 -0.10616167509E+02  0.31885998336E+02  0.00000000000E+00 0. -1.
         11    1    3    3    0    0  0.35920260392E+02  0.57702472223E+01  0.62400111868E+01  0.36912038680E+02  0.51100000000E-03 0. -1.
        -11    1    3    3    0    0 -0.14809742241E+02  0.13620479628E+02  0.38894829565E+01  0.20493267394E+02  0.51100000000E-03 0.  1.
        -12    1    3    3    0    0  0.18327189818E+01  0.41765196787E-01  0.48667336584E+00  0.18966955905E+01  0.00000000000E+00 0.  1.
</event>
<event>
 7    1  0.7755875E-012  0.5930204E+02  0.7816164E-02  0.1266604E+00
        -11   -1    0    0    0    0  0.00000000000E+00  0.00000000000E+00  0.45593999997E+02  0.45594000000E+02  0.51100000000E-03 0. -1.
         11   -1    0    0    0    0 -0.00000000000E+00 -0.00000000000E+00 -0.45593999997E+02  0.45594000000E+02  0.51100000000E-03 0.  1.
    9900012    2    1    2    0    0  0.25738864767E+02 -0.17538617805E+02  0.68280345079E+01  0.59302041817E+02  0.50000178344E+02 0.  0.
         12    1    1    2    0    0 -0.25738864767E+02  0.17538617805E+02 -0.68280345079E+01  0.31885958183E+02  0.00000000000E+00 0. -1.
         11    1    3    3    0    0  0.57027859945E+01  0.10606253653E+02  0.70049791682E+01  0.13931407612E+02  0.51100000000E-03 0. -1.
        -11    1    3    3    0    0  0.63437894726E+01 -0.29263895657E+02  0.56082633116E+01  0.30464272050E+02  0.51100000000E-03 0.  1.
        -12    1    3    3    0    0  0.13692289300E+02  0.11190241996E+01 -0.57852079718E+01  0.14906362155E+02  0.00000000000E+00 0.  1.
</event>
<event>
 7    1  0.7755875E-012  0.5930199E+02  0.7816164E-02  0.1266605E+00
        -11   -1    0    0    0    0  0.00000000000E+00  0.00000000000E+00  0.45593999997E+02  0.45594000000E+02  0.51100000000E-03 0.  1.
         11   -1    0    0    0    0 -0.00000000000E+00 -0.00000000000E+00 -0.45593999997E+02  0.45594000000E+02  0.51100000000E-03 0. -1.
    9900012    2    1    2    0    0 -0.13216373637E+02 -0.17949236228E+02  0.22800659929E+02  0.59301988859E+02  0.50000081761E+02 0.  0.
         12    1    1    2    0    0  0.13216373637E+02  0.17949236228E+02 -0.22800659929E+02  0.31886011141E+02  0.00000000000E+00 0. -1.
         11    1    3    3    0    0  0.27364051085E+01  0.51699309870E+01 -0.10611977373E+02  0.12117349683E+02  0.51100000000E-03 0. -1.
        -11    1    3    3    0    0 -0.16155137255E+02 -0.13175960245E+02  0.13246430752E+02  0.24699439590E+02  0.51100000000E-03 0.  1.
         12    1    3    3    0    0  0.20235850894E+00 -0.99432069694E+01  0.20166206550E+02  0.22485199586E+02  0.00000000000E+00 0. -1.
</event>
<event>
 7    1  0.7755875E-012  0.5930198E+02  0.7816164E-02  0.1266605E+00
        -11   -1    0    0    0    0  0.00000000000E+00  0.00000000000E+00  0.45593999997E+02  0.45594000000E+02  0.51100000000E-03 0. -1.
         11   -1    0    0    0    0 -0.00000000000E+00 -0.00000000000E+00 -0.45593999997E+02  0.45594000000E+02  0.51100000000E-03 0.  1.
    9900012    2    1    2    0    0  0.24767062932E+02  0.19794865512E+02 -0.33873261999E+01  0.59301982912E+02  0.50000070916E+02 0.  0.
         12    1    1    2    0    0 -0.24767062932E+02 -0.19794865512E+02  0.33873261999E+01  0.31886017088E+02  0.00000000000E+00 0. -1.
         11    1    3    3    0    0 -0.17379623621E+00  0.11984749333E+02  0.57724624967E+01  0.13303598958E+02  0.51100000000E-03 0. -1.
        -11    1    3    3    0    0  0.12832746380E+02 -0.14673218090E+02 -0.29191268257E+01  0.19710505079E+02  0.51100000000E-03 0.  1.
        -12    1    3    3    0    0  0.12108112789E+02  0.22483334270E+02 -0.62406618709E+01  0.26287878875E+02  0.00000000000E+00 0.  1.
</event>
<event>
 7    1  0.7755875E-012  0.5930198E+02  0.7816164E-02  0.1266605E+00
        -11   -1    0    0    0    0  0.00000000000E+00  0.00000000000E+00  0.45593999997E+02  0.45594000000E+02  0.51100000000E-03 0. -1.
         11   -1    0    0    0    0 -0.00000000000E+00 -0.00000000000E+00 -0.45593999997E+02  0.45594000000E+02  0.51100000000E-03 0.  1.
    9900012    2    1    2    0    0  0.60205854108E+01  0.25739792934E+02 -0.17830703270E+02  0.59301978484E+02  0.50000062841E+02 0.  0.
         12    1    1    2    0    0 -0.60205854108E+01 -0.25739792934E+02  0.17830703270E+02  0.31886021516E+02  0.00000000000E+00 0. -1.
         11    1    3    3    0    0 -0.48459884630E+01  0.13670773042E+02  0.13518115866E+02  0.19827079880E+02  0.51100000000E-03 0. -1.
        -11    1    3    3    0    0  0.15600771901E+02  0.88921342587E+01 -0.26382771606E+02  0.31914021581E+02  0.51100000000E-03 0.  1.
         12    1    3    3    0    0 -0.47341980276E+01  0.31768856338E+01 -0.49660475295E+01  0.75608770232E+01  0.00000000000E+00 0. -1.
</event>
<event>
 7    1  0.7755875E-012  0.5930187E+02  0.7816164E-02  0.1266605E+00
        -11   -1    0    0    0    0  0.00000000000E+00  0.00000000000E+00  0.45593999997E+02  0.45594000000E+02  0.51100000000E-03 0.  1.
         11   -1    0    0    0    0 -0.00000000000E+00 -0.00000000000E+00 -0.45593999997E+02  0.45594000000E+02  0.51100000000E-03 0. -1.
    9900012    2    1    2    0    0 -0.15473569111E+02  0.47585990217E+00  0.27875931657E+02  0.59301869011E+02  0.49999863188E+02 0.  0.
         12    1    1    2    0    0  0.15473569111E+02 -0.47585990217E+00 -0.27875931657E+02  0.31886130989E+02  0.00000000000E+00 0. -1.
         11    1    3    3    0    0  0.10527806925E+02  0.70548509201E+01  0.38050999216E+01  0.13231947167E+02  0.51100000000E-03 0. -1.
        -11    1    3    3    0    0 -0.21291951087E+02 -0.53664825284E+01  0.30764123982E+02  0.37796529476E+02  0.51100000000E-03 0.  1.
        -12    1    3    3    0    0 -0.47094249487E+01 -0.12125084896E+01 -0.66932922466E+01  0.82733923685E+01  0.00000000000E+00 0.  1.
</event>
<event>
 7    1  0.7755875E-012  0.5930196E+02  0.7816164E-02  0.1266605E+00
        -11   -1    0    0    0    0  0.00000000000E+00  0.00000000000E+00  0.45593999997E+02  0.45594000000E+02  0.51100000000E-03 0.  1.
         11   -1    0    0    0    0 -0.00000000000E+00 -0.00000000000E+00 -0.45593999997E+02  0.45594000000E+02  0.51100000000E-03 0. -1.
    9900012    2    1    2    0    0 -0.29442413301E+02  0.12227812191E+02 -0.58678148323E+00  0.59301962233E+02  0.50000033202E+02 0.  0.
         12    1    1    2    0    0  0.29442413301E+02 -0.12227812191E+02  0.58678148323E+00  0.31886037767E+02  0.00000000000E+00 0. -1.
         11    1    3    3    0    0  0.13577086063E+01  0.21325269057E+01 -0.17540471797E+02  0.17721715346E+02  0.51100000000E-03 0. -1.
        -11    1    3    3    0    0 -0.20689005189E+02  0.26128503774E+01  0.19720180525E+02  0.28701000732E+02  0.51100000000E-03 0.  1.
        -12    1    3    3    0    0 -0.10111116718E+02  0.74824349083E+01 -0.27664902107E+01  0.12879246155E+02  0.00000000000E+00 0.  1.
</event>
<event>
 7    1  0.7755875E-012  0.5930195E+02  0.7816164E-02  0.1266605E+00
        -11   -1    0    0    0    0  0.00000000000E+00  0.00000000000E+00  0.45593999997E+02  0.45594000000E+02  0.51100000000E-03 0. -1.
         11   -1    0    0    0    0 -0.00000000000E+00 -0.00000000000E+00 -0.45593999997E+02  0.45594000000E+02  0.51100000000E-03 0.  1.
    9900012    2    1    2    0    0  0.30869744019E+02  0.78239696361E+01 -0.16015190233E+01  0.59301945684E+02  0.50000003020E+02 0.  0.
         12    1    1    2    0    0 -0.30869744019E+02 -0.78239696361E+01  0.16015190233E+01  0.31886054316E+02  0.00000000000E+00 0. -1.
         11    1    3    3    0    0  0.32390622649E+02 -0.43232567617E+01 -0.11974476185E+02  0.34802745076E+02  0.51100000000E-03 0.  1.
        -11    1    3    3    0    0  0.56693895124E+01  0.17171571853E+01  0.10240249659E+02  0.11830186794E+02  0.51100000000E-03 0. -1.
         12    1    3    3    0    0 -0.71902681425E+01  0.10430069213E+02  0.13270750294E+00  0.12669013814E+02  0.00000000000E+00 0. -1.
</event>
<event>
 7    1  0.7755875E-012  0.5930202E+02  0.7816164E-02  0.1266604E+00
        -11   -1    0    0    0    0  0.00000000000E+00  0.00000000000E+00  0.45593999997E+02  0.45594000000E+02  0.51100000000E-03 0.  1.
         11   -1    0    0    0    0 -0.00000000000E+00 -0.00000000000E+00 -0.45593999997E+02  0.45594000000E+02  0.51100000000E-03 0. -1.
    9900012    2    1    2    0    0 -0.13506970707E+02 -0.13978909639E+02  0.25275827837E+02  0.59302021181E+02  0.50000140709E+02 0.  0.
         12    1    1    2    0    0  0.13506970707E+02  0.13978909639E+02 -0.25275827837E+02  0.31885978819E+02  0.00000000000E+00 0. -1.
         11    1    3    3    0    0 -0.12203195086E+02  0.37275438246E+01  0.34346896377E+02  0.36640440012E+02  0.51100000000E-03 0. -1.
        -11    1    3    3    0    0  0.28303433143E+01 -0.76284806897E+01 -0.84805534138E+01  0.11752631509E+02  0.51100000000E-03 0.  1.
         12    1    3    3    0    0 -0.41341189353E+01 -0.10077972774E+02 -0.59051512559E+00  0.10908949661E+02  0.00000000000E+00 0. -1.
</event>
<event>
 7    1  0.7755875E-012  0.5930195E+02  0.7816164E-02  0.1266605E+00
        -11   -1    0    0    0    0  0.00000000000E+00  0.00000000000E+00  0.45593999997E+02  0.45594000000E+02  0.51100000000E-03 0. -1.
         11   -1    0    0    0    0 -0.00000000000E+00 -0.00000000000E+00 -0.45593999997E+02  0.45594000000E+02  0.51100000000E-03 0.  1.
    9900012    2    1    2    0    0  0.55830993847E+01  0.25937479629E+02  0.17686049988E+02  0.59301949564E+02  0.50000010097E+02 0.  0.
         12    1    1    2    0    0 -0.55830993847E+01 -0.25937479629E+02 -0.17686049988E+02  0.31886050436E+02  0.00000000000E+00 0. -1.
         11    1    3    3    0    0  0.90085968192E+01  0.12046663835E+02  0.34024217026E+02  0.37201132653E+02  0.51100000000E-03 0. -1.
        -11    1    3    3    0    0 -0.18229333059E+01  0.53149965213E+01 -0.94112627594E+01  0.10961028275E+02  0.51100000000E-03 0.  1.
         12    1    3    3    0    0 -0.16025641286E+01  0.85758192719E+01 -0.69269042781E+01  0.11139788636E+02  0.00000000000E+00 0. -1.
</event>
<event>
 7    1  0.8555071E-012  0.5930206E+02  0.7816164E-02  0.1266604E+00
        -11   -1    0    0    0    0  0.00000000000E+00  0.00000000000E+00  0.45593999997E+02  0.45594000000E+02  0.51100000000E-03 0. -1.
         11   -1    0    0    0    0 -0.00000000000E+00 -0.00000000000E+00 -0.45593999997E+02  0.45594000000E+02  0.51100000000E-03 0.  1.
    9900012    2    1    2    0    0  0.90849113778E+01  0.16563058651E+02 -0.25687402882E+02  0.59302059627E+02  0.50000210825E+02 0.  0.
         12    1    1    2    0    0 -0.90849113778E+01 -0.16563058651E+02  0.25687402882E+02  0.31885940373E+02  0.00000000000E+00 0. -1.
         11    1    3    3    0    0 -0.64193865025E+01  0.76218262643E+01  0.78796413044E+01  0.12703916956E+02  0.51100000000E-03 0. -1.
        -11    1    3    3    0    0  0.16250218290E+01  0.41570343501E+01 -0.31450526390E+02  0.31765661350E+02  0.51100000000E-03 0.  1.
         12    1    3    3    0    0  0.13879276051E+02  0.47841980370E+01 -0.21165177969E+01  0.14832481321E+02  0.00000000000E+00 0. -1.
</event>
<event>
 7    1  0.7755875E-012  0.5930222E+02  0.7816164E-02  0.1266604E+00
        -11   -1    0    0    0    0  0.00000000000E+00  0.00000000000E+00  0.45593999997E+02  0.45594000000E+02  0.51100000000E-03 0.  1.
         11   -1    0    0    0    0 -0.00000000000E+00 -0.00000000000E+00 -0.45593999997E+02  0.45594000000E+02  0.51100000000E-03 0. -1.
    9900012    2    1    2    0    0 -0.27831179768E+02  0.15497162756E+02 -0.14023195688E+01  0.59302217573E+02  0.50000498879E+02 0.  0.
         12    1    1    2    0    0  0.27831179768E+02 -0.15497162756E+02  0.14023195688E+01  0.31885782427E+02  0.00000000000E+00 0. -1.
         11    1    3    3    0    0  0.87970520832E+00  0.39276509201E+01 -0.15883144550E+02  0.16385194660E+02  0.51100000000E-03 0. -1.
        -11    1    3    3    0    0 -0.21779339520E+02 -0.46662033651E+01  0.11311739147E+02  0.24981363585E+02  0.51100000000E-03 0.  1.
         12    1    3    3    0    0 -0.69315454572E+01  0.16235715201E+02  0.31690858338E+01  0.17935659328E+02  0.00000000000E+00 0. -1.
</event>
<event>
 7    1  0.7755875E-012  0.5930192E+02  0.7816164E-02  0.1266605E+00
        -11   -1    0    0    0    0  0.00000000000E+00  0.00000000000E+00  0.45593999997E+02  0.45594000000E+02  0.51100000000E-03 0.  1.
         11   -1    0    0    0    0 -0.00000000000E+00 -0.00000000000E+00 -0.45593999997E+02  0.45594000000E+02  0.51100000000E-03 0. -1.
    9900012    2    1    2    0    0  0.27180603022E+02 -0.16453578950E+02 -0.26864125563E+01  0.59301917561E+02  0.49999951731E+02 0.  0.
         12    1    1    2    0    0 -0.27180603022E+02  0.16453578950E+02  0.26864125563E+01  0.31886082439E+02  0.00000000000E+00 0. -1.
         11    1    3    3    0    0 -0.24548695189E+01 -0.32588224210E+01 -0.11192959903E+02  0.11913381534E+02  0.51100000000E-03 0. -1.
        -11    1    3    3    0    0  0.15360708520E+02 -0.10390479196E+02  0.21139734916E+02  0.28121198707E+02  0.51100000000E-03 0.  1.
        -12    1    3    3    0    0  0.14274764021E+02 -0.28042773330E+01 -0.12633187570E+02  0.19267337320E+02  0.00000000000E+00 0.  1.
</event>
<event>
 7    1  0.7755875E-012  0.5930195E+02  0.7816164E-02  0.1266605E+00
        -11   -1    0    0    0    0  0.00000000000E+00  0.00000000000E+00  0.45593999997E+02  0.45594000000E+02  0.51100000000E-03 0. -1.
         11   -1    0    0    0    0 -0.00000000000E+00 -0.00000000000E+00 -0.45593999997E+02  0.45594000000E+02  0.51100000000E-03 0.  1.
    9900012    2    1    2    0    0 -0.62755640141E+01  0.17056091765E+02 -0.26199758340E+02  0.59301948080E+02  0.50000007390E+02 0.  0.
         12    1    1    2    0    0  0.62755640141E+01 -0.17056091765E+02  0.26199758340E+02  0.31886051920E+02  0.00000000000E+00 0. -1.
         11    1    3    3    0    0 -0.12756233440E+01  0.18277247579E+01  0.10246659048E+02  0.10486267907E+02  0.51100000000E-03 0. -1.
        -11    1    3    3    0    0  0.28952165291E+01  0.21591399844E+02 -0.28823520757E+02  0.36129851578E+02  0.51100000000E-03 0.  1.
        -12    1    3    3    0    0 -0.78951571991E+01 -0.63630328369E+01 -0.76228966308E+01  0.12685828594E+02  0.00000000000E+00 0.  1.
</event>
<event>
 7    1  0.7755875E-012  0.5930193E+02  0.7816164E-02  0.1266605E+00
        -11   -1    0    0    0    0  0.00000000000E+00  0.00000000000E+00  0.45593999997E+02  0.45594000000E+02  0.51100000000E-03 0.  1.
         11   -1    0    0    0    0 -0.00000000000E+00 -0.00000000000E+00 -0.45593999997E+02  0.45594000000E+02  0.51100000000E-03 0. -1.
    9900012    2    1    2    0    0  0.93575756871E+01  0.21506234257E+02  0.21601830375E+02  0.59301930781E+02  0.49999975841E+02 0.  0.
         12    1    1    2    0    0 -0.93575756871E+01 -0.21506234257E+02 -0.21601830375E+02  0.31886069219E+02  0.00000000000E+00 0. -1.
         11    1    3    3    0    0 -0.20267001098E+01 -0.87862482351E+01  0.55421038371E+01  0.10583977824E+02  0.51100000000E-03 0. -1.
        -11    1    3    3    0    0 -0.80472126385E+01  0.11978461726E+02 -0.43915889190E+01  0.15084005770E+02  0.51100000000E-03 0.  1.
        -12    1    3    3    0    0  0.19431488435E+02  0.18314020767E+02  0.20451315457E+02  0.33633947187E+02  0.00000000000E+00 0.  1.
</event>
<event>
 7    1  0.7755875E-012  0.5930202E+02  0.7816164E-02  0.1266604E+00
        -11   -1    0    0    0    0  0.00000000000E+00  0.00000000000E+00  0.45593999997E+02  0.45594000000E+02  0.51100000000E-03 0. -1.
         11   -1    0    0    0    0 -0.00000000000E+00 -0.00000000000E+00 -0.45593999997E+02  0.45594000000E+02  0.51100000000E-03 0.  1.
    9900012    2    1    2    0    0 -0.11991819959E+00  0.18476025363E+02 -0.25987262685E+02  0.59302020080E+02  0.50000138701E+02 0.  0.
         12    1    1    2    0    0  0.11991819959E+00 -0.18476025363E+02  0.25987262685E+02  0.31885979920E+02  0.00000000000E+00 0. -1.
         11    1    3    3    0    0  0.33214129805E+01  0.30151749136E+01  0.91819359032E+01  0.10219149237E+02  0.51100000000E-03 0. -1.
        -11    1    3    3    0    0 -0.46072890588E+01  0.11656666808E+01 -0.34392392417E+02  0.34719195666E+02  0.51100000000E-03 0.  1.
        -12    1    3    3    0    0  0.11659578787E+01  0.14295183768E+02 -0.77680617179E+00  0.14363675176E+02  0.00000000000E+00 0.  1.
</event>
<event>
 7    1  0.7755875E-012  0.5930183E+02  0.7816164E-02  0.1266605E+00
        -11   -1    0    0    0    0  0.00000000000E+00  0.00000000000E+00  0.45593999997E+02  0.45594000000E+02  0.51100000000E-03 0. -1.
         11   -1    0    0    0    0 -0.00000000000E+00 -0.00000000000E+00 -0.45593999997E+02  0.45594000000E+02  0.51100000000E-03 0.  1.
    9900012    2    1    2    0    0 -0.65447945709E+01  0.24935461044E+02 -0.18764754931E+02  0.59301834017E+02  0.49999799367E+02 0.  0.
         12    1    1    2    0    0  0.65447945709E+01 -0.24935461044E+02  0.18764754931E+02  0.31886165983E+02  0.00000000000E+00 0. -1.
         11    1    3    3    0    0  0.81919006307E+01 -0.30363702212E+01 -0.28774835826E+01  0.91981896095E+01  0.51100000000E-03 0. -1.
        -11    1    3    3    0    0 -0.78128179633E+01  0.13456780343E+02  0.10803005990E+02  0.18942808673E+02  0.51100000000E-03 0.  1.
        -12    1    3    3    0    0 -0.69238772383E+01  0.14515050922E+02 -0.26690277339E+02  0.31160835735E+02  0.00000000000E+00 0.  1.
</event>
<event>
 7    1  0.7755875E-012  0.5930193E+02  0.7816164E-02  0.1266605E+00
        -11   -1    0    0    0    0  0.00000000000E+00  0.00000000000E+00  0.45593999997E+02  0.45594000000E+02  0.51100000000E-03 0. -1.
         11   -1    0    0    0    0 -0.00000000000E+00 -0.00000000000E+00 -0.45593999997E+02  0.45594000000E+02  0.51100000000E-03 0.  1.
    9900012    2    1    2    0    0  0.30930579555E+02  0.40707274648E+01  0.65916392637E+01  0.59301932794E+02  0.49999979512E+02 0.  0.
         12    1    1    2    0    0 -0.30930579555E+02 -0.40707274648E+01 -0.65916392637E+01  0.31886067206E+02  0.00000000000E+00 0. -1.
         11    1    3    3    0    0  0.45698396068E+01  0.10300260985E+02  0.20410132006E+02  0.23314208096E+02  0.51100000000E-03 0. -1.
        -11    1    3    3    0    0  0.23151150179E+02  0.31023909753E+01 -0.99133513036E+01  0.25374694455E+02  0.51100000000E-03 0.  1.
        -12    1    3    3    0    0  0.32095897693E+01 -0.93319244958E+01 -0.39051414384E+01  0.10613030243E+02  0.00000000000E+00 0.  1.
</event>
<event>
 7    1  0.7755875E-012  0.5930195E+02  0.7816164E-02  0.1266605E+00
        -11   -1    0    0    0    0  0.00000000000E+00  0.00000000000E+00  0.45593999997E+02  0.45594000000E+02  0.51100000000E-03 0. -1.
         11   -1    0    0    0    0 -0.00000000000E+00 -0.00000000000E+00 -0.45593999997E+02  0.45594000000E+02  0.51100000000E-03 0.  1.
    9900012    2    1    2    0    0  0.20225028517E+02 -0.19166630898E+02  0.15501889936E+02  0.59301951169E+02  0.50000013023E+02 0.  0.
         12    1    1    2    0    0 -0.20225028517E+02  0.19166630898E+02 -0.15501889936E+02  0.31886048831E+02  0.00000000000E+00 0. -1.
         11    1    3    3    0    0 -0.45267257842E+01 -0.17980820034E+02  0.58972677366E+01  0.19457104164E+02  0.51100000000E-03 0. -1.
        -11    1    3    3    0    0  0.11299655108E+02  0.82526549482E+01  0.16835640814E+02  0.21891261296E+02  0.51100000000E-03 0.  1.
        -12    1    3    3    0    0  0.13452099193E+02 -0.94384658120E+01 -0.72310186147E+01  0.17953585708E+02  0.00000000000E+00 0.  1.
</event>
<event>
 7    1  0.7755875E-012  0.5930194E+02  0.7816164E-02  0.1266605E+00
        -11   -1    0    0    0    0  0.00000000000E+00  0.00000000000E+00  0.45593999997E+02  0.45594000000E+02  0.51100000000E-03 0.  1.
         11   -1    0    0    0    0 -0.00000000000E+00 -0.00000000000E+00 -0.45593999997E+02  0.45594000000E+02  0.51100000000E-03 0. -1.
    9900012    2    1    2    0    0 -0.14588757244E+02 -0.75413880855E+01  0.27331606084E+02  0.59301936222E+02  0.49999985763E+02 0.  0.
         12    1    1    2    0    0  0.14588757244E+02  0.75413880855E+01 -0.27331606084E+02  0.31886063778E+02  0.00000000000E+00 0. -1.
         11    1    3    3    0    0 -0.92691964827E+01  0.11263070615E+01 -0.11450026500E+02  0.14774629544E+02  0.51100000000E-03 0. -1.
        -11    1    3    3    0    0 -0.61008127564E+01  0.42442799456E+01  0.22718378852E+02  0.23903107883E+02  0.51100000000E-03 0.  1.
         12    1    3    3    0    0  0.78125199553E+00 -0.12911975093E+02  0.16063253732E+02  0.20624198795E+02  0.00000000000E+00 0. -1.
</event>
<event>
 7    1  0.7755875E-012  0.5930194E+02  0.7816164E-02  0.1266605E+00
        -11   -1    0    0    0    0  0.00000000000E+00  0.00000000000E+00  0.45593999997E+02  0.45594000000E+02  0.51100000000E-03 0. -1.
         11   -1    0    0    0    0 -0.00000000000E+00 -0.00000000000E+00 -0.45593999997E+02  0.45594000000E+02  0.51100000000E-03 0.  1.
    9900012    2    1    2    0    0 -0.20926386047E+02  0.11811470890E+02 -0.20959402040E+02  0.59301937035E+02  0.49999987246E+02 0.  0.
         12    1    1    2    0    0  0.20926386047E+02 -0.11811470890E+02  0.20959402040E+02  0.31886062965E+02  0.00000000000E+00 0. -1.
         11    1    3    3    0    0 -0.26568897397E+02 -0.30318032191E+01  0.10523547998E+01  0.26762017684E+02  0.51100000000E-03 0. -1.
        -11    1    3    3    0    0  0.10539123782E+02  0.71836450285E+01 -0.59282741472E+01  0.14064932301E+02  0.51100000000E-03 0.  1.
         12    1    3    3    0    0 -0.48966124323E+01  0.76596290809E+01 -0.16083482693E+02  0.18474987050E+02  0.00000000000E+00 0. -1.
</event>
<event>
 7    1  0.7755875E-012  0.5930195E+02  0.7816164E-02  0.1266605E+00
        -11   -1    0    0    0    0  0.00000000000E+00  0.00000000000E+00  0.45593999997E+02  0.45594000000E+02  0.51100000000E-03 0. -1.
         11   -1    0    0    0    0 -0.00000000000E+00 -0.00000000000E+00 -0.45593999997E+02  0.45594000000E+02  0.51100000000E-03 0.  1.
    9900012    2    1    2    0    0  0.22506423628E+02  0.22375249704E+02 -0.30869070006E+01  0.59301954483E+02  0.50000019068E+02 0.  0.
         12    1    1    2    0    0 -0.22506423628E+02 -0.22375249704E+02  0.30869070006E+01  0.31886045517E+02  0.00000000000E+00 0. -1.
         11    1    3    3    0    0  0.92833109224E+01  0.39812820473E+01  0.16156148167E+02  0.19053912781E+02  0.51100000000E-03 0. -1.
        -11    1    3    3    0    0  0.20495120967E+02  0.90403658763E+01 -0.17161510723E+02  0.28218710977E+02  0.51100000000E-03 0.  1.
         12    1    3    3    0    0 -0.72720082612E+01  0.93536017808E+01 -0.20815444442E+01  0.12029330725E+02  0.00000000000E+00 0. -1.
</event>
<event>
 7    1  0.7755875E-012  0.5930195E+02  0.7816164E-02  0.1266605E+00
        -11   -1    0    0    0    0  0.00000000000E+00  0.00000000000E+00  0.45593999997E+02  0.45594000000E+02  0.51100000000E-03 0. -1.
         11   -1    0    0    0    0 -0.00000000000E+00 -0.00000000000E+00 -0.45593999997E+02  0.45594000000E+02  0.51100000000E-03 0.  1.
    9900012    2    1    2    0    0 -0.42561779533E+01 -0.10337984820E+02 -0.29861871930E+02  0.59301946997E+02  0.50000005416E+02 0.  0.
         12    1    1    2    0    0  0.42561779533E+01  0.10337984820E+02  0.29861871930E+02  0.31886053003E+02  0.00000000000E+00 0. -1.
         11    1    3    3    0    0 -0.24285733603E+02 -0.12509149003E+02 -0.19038361327E+02  0.33297670605E+02  0.51100000000E-03 0. -1.
        -11    1    3    3    0    0  0.18820242595E+01  0.43139533622E+01 -0.49007332737E+01  0.67948065319E+01  0.51100000000E-03 0.  1.
         12    1    3    3    0    0  0.18147531391E+02 -0.21427891787E+01 -0.59227773298E+01  0.19209469861E+02  0.00000000000E+00 0. -1.
</event>
<event>
 7    1  0.7755875E-012  0.5930200E+02  0.7816164E-02  0.1266605E+00
        -11   -1    0    0    0    0  0.00000000000E+00  0.00000000000E+00  0.45593999997E+02  0.45594000000E+02  0.51100000000E-03 0. -1.
         11   -1    0    0    0    0 -0.00000000000E+00 -0.00000000000E+00 -0.45593999997E+02  0.45594000000E+02  0.51100000000E-03 0.  1.
    9900012    2    1    2    0    0 -0.11382391852E+02  0.18257374626E+02 -0.23533513021E+02  0.59302002954E+02  0.50000107468E+02 0.  0.
         12    1    1    2    0    0  0.11382391852E+02 -0.18257374626E+02  0.23533513021E+02  0.31885997046E+02  0.00000000000E+00 0. -1.
         11    1    3    3    0    0  0.77094698023E+01 -0.19920710704E+01 -0.21447188938E+02  0.22877635048E+02  0.51100000000E-03 0.  1.
        -11    1    3    3    0    0 -0.21607466137E+02  0.89919917401E+01 -0.61432375731E+01  0.24196650108E+02  0.51100000000E-03 0. -1.
         12    1    3    3    0    0  0.25156044828E+01  0.11257453956E+02  0.40569134900E+01  0.12227717798E+02  0.00000000000E+00 0. -1.
</event>
<event>
 7    1  0.7755875E-012  0.5930194E+02  0.7816164E-02  0.1266605E+00
        -11   -1    0    0    0    0  0.00000000000E+00  0.00000000000E+00  0.45593999997E+02  0.45594000000E+02  0.51100000000E-03 0. -1.
         11   -1    0    0    0    0 -0.00000000000E+00 -0.00000000000E+00 -0.45593999997E+02  0.45594000000E+02  0.51100000000E-03 0.  1.
    9900012    2    1    2    0    0  0.43760213975E+01 -0.29873991046E+02 -0.10252619570E+02  0.59301935453E+02  0.49999984361E+02 0.  0.
         12    1    1    2    0    0 -0.43760213975E+01  0.29873991046E+02  0.10252619570E+02  0.31886064547E+02  0.00000000000E+00 0. -1.
         11    1    3    3    0    0 -0.21516136346E+01 -0.64494381896E+01  0.82944545492E+01  0.10724862271E+02  0.51100000000E-03 0. -1.
        -11    1    3    3    0    0  0.17035826018E+02  0.22227849259E+01 -0.70302318831E+01  0.18562982022E+02  0.51100000000E-03 0.  1.
        -12    1    3    3    0    0 -0.10508190986E+02 -0.25647337782E+02 -0.11516842236E+02  0.30014091160E+02  0.00000000000E+00 0.  1.
</event>
<event>
 7    1  0.7755875E-012  0.5930192E+02  0.7816164E-02  0.1266605E+00
        -11   -1    0    0    0    0  0.00000000000E+00  0.00000000000E+00  0.45593999997E+02  0.45594000000E+02  0.51100000000E-03 0. -1.
         11   -1    0    0    0    0 -0.00000000000E+00 -0.00000000000E+00 -0.45593999997E+02  0.45594000000E+02  0.51100000000E-03 0.  1.
    9900012    2    1    2    0    0  0.11813159025E+02  0.69922073817E+01 -0.28779865025E+02  0.59301916499E+02  0.49999949794E+02 0.  0.
         12    1    1    2    0    0 -0.11813159025E+02 -0.69922073817E+01  0.28779865025E+02  0.31886083501E+02  0.00000000000E+00 0. -1.
         11    1    3    3    0    0  0.73198050527E+01  0.16671257471E+02 -0.23012969365E+02  0.29344626951E+02  0.51100000000E-03 0. -1.
        -11    1    3    3    0    0 -0.78960156944E+01 -0.39755487671E+01  0.69992637380E+01  0.11275714832E+02  0.51100000000E-03 0.  1.
        -12    1    3    3    0    0  0.12389369667E+02 -0.57035013218E+01 -0.12766159398E+02  0.18681574715E+02  0.00000000000E+00 0.  1.
</event>
<event>
 7    1  0.7755875E-012  0.5930193E+02  0.7816164E-02  0.1266605E+00
        -11   -1    0    0    0    0  0.00000000000E+00  0.00000000000E+00  0.45593999997E+02  0.45594000000E+02  0.51100000000E-03 0.  1.
         11   -1    0    0    0    0 -0.00000000000E+00 -0.00000000000E+00 -0.45593999997E+02  0.45594000000E+02  0.51100000000E-03 0. -1.
    9900012    2    1    2    0    0  0.26310282063E+02  0.17969382770E+02 -0.12615739436E+01  0.59301933636E+02  0.49999981048E+02 0.  0.
         12    1    1    2    0    0 -0.26310282063E+02 -0.17969382770E+02  0.12615739436E+01  0.31886066364E+02  0.00000000000E+00 0. -1.
         11    1    3    3    0    0  0.37756182967E+01  0.19382969116E+01 -0.22317022821E+02  0.22716993558E+02  0.51100000000E-03 0. -1.
        -11    1    3    3    0    0  0.64228465710E+01  0.90477925100E+01  0.32148680081E+01  0.11552094353E+02  0.51100000000E-03 0.  1.
         12    1    3    3    0    0  0.16111817196E+02  0.69832933480E+01  0.17840580869E+02  0.25032845725E+02  0.00000000000E+00 0. -1.
</event>
<event>
 7    1  0.7755875E-012  0.5930193E+02  0.7816164E-02  0.1266605E+00
        -11   -1    0    0    0    0  0.00000000000E+00  0.00000000000E+00  0.45593999997E+02  0.45594000000E+02  0.51100000000E-03 0.  1.
         11   -1    0    0    0    0 -0.00000000000E+00 -0.00000000000E+00 -0.45593999997E+02  0.45594000000E+02  0.51100000000E-03 0. -1.
    9900012    2    1    2    0    0 -0.44432200026E+01 -0.26451443427E+02  0.17242403244E+02  0.59301928856E+02  0.49999972331E+02 0.  0.
         12    1    1    2    0    0  0.44432200026E+01  0.26451443427E+02 -0.17242403244E+02  0.31886071144E+02  0.00000000000E+00 0. -1.
         11    1    3    3    0    0  0.66469379819E+01  0.66796798498E+01 -0.34292470340E+01  0.10027943105E+02  0.51100000000E-03 0. -1.
        -11    1    3    3    0    0  0.22897703917E+01 -0.31109907822E+02  0.14184060894E+02  0.34267433473E+02  0.51100000000E-03 0.  1.
         12    1    3    3    0    0 -0.13379928376E+02 -0.20212154544E+01  0.64875893838E+01  0.15006552278E+02  0.00000000000E+00 0. -1.
</event>
<event>
 7    1  0.7755875E-012  0.5930195E+02  0.7816164E-02  0.1266605E+00
        -11   -1    0    0    0    0  0.00000000000E+00  0.00000000000E+00  0.45593999997E+02  0.45594000000E+02  0.51100000000E-03 0.  1.
         11   -1    0    0    0    0 -0.00000000000E+00 -0.00000000000E+00 -0.45593999997E+02  0.45594000000E+02  0.51100000000E-03 0. -1.
    9900012    2    1    2    0    0 -0.16723398447E+02 -0.24249028489E+02  0.12207890108E+02  0.59301952594E+02  0.50000015623E+02 0.  0.
         12    1    1    2    0    0  0.16723398447E+02  0.24249028489E+02 -0.12207890108E+02  0.31886047406E+02  0.00000000000E+00 0. -1.
         11    1    3    3    0    0 -0.12159615700E+01 -0.17482882714E+01 -0.12491996505E+02  0.12672215724E+02  0.51100000000E-03 0. -1.
        -11    1    3    3    0    0  0.55371390732E+01 -0.16137286137E+02  0.14513513515E+02  0.22398972918E+02  0.51100000000E-03 0.  1.
        -12    1    3    3    0    0 -0.21044575950E+02 -0.63634540812E+01  0.10186373098E+02  0.24230763951E+02  0.00000000000E+00 0.  1.
</event>
<event>
 7    1  0.7755875E-012  0.5930195E+02  0.7816164E-02  0.1266605E+00
        -11   -1    0    0    0    0  0.00000000000E+00  0.00000000000E+00  0.45593999997E+02  0.45594000000E+02  0.51100000000E-03 0.  1.
         11   -1    0    0    0    0 -0.00000000000E+00 -0.00000000000E+00 -0.45593999997E+02  0.45594000000E+02  0.51100000000E-03 0. -1.
    9900012    2    1    2    0    0  0.39765048837E+01  0.19906670503E+02  0.24589270027E+02  0.59301947845E+02  0.50000006961E+02 0.  0.
         12    1    1    2    0    0 -0.39765048837E+01 -0.19906670503E+02 -0.24589270027E+02  0.31886052155E+02  0.00000000000E+00 0. -1.
         11    1    3    3    0    0 -0.12826892228E+02  0.12850777089E+02  0.43872873215E+00  0.18162161743E+02  0.51100000000E-03 0. -1.
        -11    1    3    3    0    0  0.11998936450E+02  0.30815143473E+01  0.30082569145E+02  0.32533539206E+02  0.51100000000E-03 0.  1.
        -12    1    3    3    0    0  0.48044606614E+01  0.39743790667E+01 -0.59320278506E+01  0.86062468959E+01  0.00000000000E+00 0.  1.
</event>
<event>
 7    1  0.7755875E-012  0.5930194E+02  0.7816164E-02  0.1266605E+00
        -11   -1    0    0    0    0  0.00000000000E+00  0.00000000000E+00  0.45593999997E+02  0.45594000000E+02  0.51100000000E-03 0.  1.
         11   -1    0    0    0    0 -0.00000000000E+00 -0.00000000000E+00 -0.45593999997E+02  0.45594000000E+02  0.51100000000E-03 0. -1.
    9900012    2    1    2    0    0  0.15530517036E+02  0.14987525905E+02  0.23471212481E+02  0.59301941800E+02  0.49999995938E+02 0.  0.
         12    1    1    2    0    0 -0.15530517036E+02 -0.14987525905E+02 -0.23471212481E+02  0.31886058200E+02  0.00000000000E+00 0. -1.
         11    1    3    3    0    0 -0.42802343275E+01  0.60668240575E+01  0.11232997940E+02  0.13465028890E+02  0.51100000000E-03 0. -1.
        -11    1    3    3    0    0  0.21061442725E+02  0.68850054585E+01 -0.93982324752E+01  0.24068951862E+02  0.51100000000E-03 0.  1.
        -12    1    3    3    0    0 -0.12506913610E+01  0.20356963890E+01  0.21636447017E+02  0.21767961048E+02  0.00000000000E+00 0.  1.
</event>
<event>
 7    1  0.7755875E-012  0.5930196E+02  0.7816164E-02  0.1266605E+00
        -11   -1    0    0    0    0  0.00000000000E+00  0.00000000000E+00  0.45593999997E+02  0.45594000000E+02  0.51100000000E-03 0.  1.
         11   -1    0    0    0    0 -0.00000000000E+00 -0.00000000000E+00 -0.45593999997E+02  0.45594000000E+02  0.51100000000E-03 0. -1.
    9900012    2    1    2    0    0 -0.29579156512E+02  0.35226649291E+01  0.11374715914E+02  0.59301955556E+02  0.50000021025E+02 0.  0.
         12    1    1    2    0    0  0.29579156512E+02 -0.35226649291E+01 -0.11374715914E+02  0.31886044444E+02  0.00000000000E+00 0. -1.
         11    1    3    3    0    0 -0.84786500586E+01 -0.20608821312E+02  0.96565129191E+01  0.24287018440E+02  0.51100000000E-03 0. -1.
        -11    1    3    3    0    0 -0.99326430188E+01  0.56848700004E+01 -0.49131612472E+01  0.12454489069E+02  0.51100000000E-03 0.  1.
         12    1    3    3    0    0 -0.11167863434E+02  0.18446616240E+02  0.66313642425E+01  0.22560448048E+02  0.00000000000E+00 0. -1.
</event>
<event>
 7    1  0.7755875E-012  0.5930194E+02  0.7816164E-02  0.1266605E+00
        -11   -1    0    0    0    0  0.00000000000E+00  0.00000000000E+00  0.45593999997E+02  0.45594000000E+02  0.51100000000E-03 0. -1.
         11   -1    0    0    0    0 -0.00000000000E+00 -0.00000000000E+00 -0.45593999997E+02  0.45594000000E+02  0.51100000000E-03 0.  1.
    9900012    2    1    2    0    0 -0.16374711069E+02 -0.14166290551E+02 -0.23407390063E+02  0.59301939407E+02  0.49999991574E+02 0.  0.
         12    1    1    2    0    0  0.16374711069E+02  0.14166290551E+02  0.23407390063E+02  0.31886060593E+02  0.00000000000E+00 0. -1.
         11    1    3    3    0    0 -0.11955756510E+02  0.65287225386E+01  0.98068098001E+01  0.16785048419E+02  0.51100000000E-03 0. -1.
        -11    1    3    3    0    0 -0.82420841248E+01 -0.10400160205E+02 -0.26522225080E+02  0.29656764936E+02  0.51100000000E-03 0.  1.
         12    1    3    3    0    0  0.38231295662E+01 -0.10294852884E+02 -0.66919747829E+01  0.12860126052E+02  0.00000000000E+00 0. -1.
</event>
<event>
 7    1  0.7755875E-012  0.5930196E+02  0.7816164E-02  0.1266605E+00
        -11   -1    0    0    0    0  0.00000000000E+00  0.00000000000E+00  0.45593999997E+02  0.45594000000E+02  0.51100000000E-03 0.  1.
         11   -1    0    0    0    0 -0.00000000000E+00 -0.00000000000E+00 -0.45593999997E+02  0.45594000000E+02  0.51100000000E-03 0. -1.
    9900012    2    1    2    0    0 -0.98544249065E+00  0.31295091000E+02  0.60304170603E+01  0.59301956854E+02  0.50000023392E+02 0.  0.
         12    1    1    2    0    0  0.98544249065E+00 -0.31295091000E+02 -0.60304170603E+01  0.31886043146E+02  0.00000000000E+00 0. -1.
         11    1    3    3    0    0  0.66068585898E+01  0.27932583193E+01 -0.10035279193E+02  0.12335303045E+02  0.51100000000E-03 0. -1.
        -11    1    3    3    0    0 -0.70586271955E+01  0.30930325401E+02  0.10462404582E+01  0.31742776606E+02  0.51100000000E-03 0.  1.
         12    1    3    3    0    0 -0.53367388495E+00 -0.24284927206E+01  0.15019455795E+02  0.15223877203E+02  0.00000000000E+00 0. -1.
</event>
<event>
 7    1  0.7755875E-012  0.5930198E+02  0.7816164E-02  0.1266605E+00
        -11   -1    0    0    0    0  0.00000000000E+00  0.00000000000E+00  0.45593999997E+02  0.45594000000E+02  0.51100000000E-03 0.  1.
         11   -1    0    0    0    0 -0.00000000000E+00 -0.00000000000E+00 -0.45593999997E+02  0.45594000000E+02  0.51100000000E-03 0. -1.
    9900012    2    1    2    0    0 -0.19258360510E+02 -0.23099096608E+02 -0.10595541972E+02  0.59301980754E+02  0.50000066981E+02 0.  0.
         12    1    1    2    0    0  0.19258360510E+02  0.23099096608E+02  0.10595541972E+02  0.31886019246E+02  0.00000000000E+00 0. -1.
         11    1    3    3    0    0  0.14439748572E+02 -0.10126529450E+02  0.26375976693E+01  0.17832830938E+02  0.51100000000E-03 0. -1.
        -11    1    3    3    0    0 -0.22657316435E+02 -0.63815355910E+01 -0.75430549789E+00  0.23550943964E+02  0.51100000000E-03 0.  1.
         12    1    3    3    0    0 -0.11040792648E+02 -0.65910315671E+01 -0.12478834143E+02  0.17918205853E+02  0.00000000000E+00 0. -1.
</event>
<event>
 7    1  0.7755875E-012  0.5930192E+02  0.7816164E-02  0.1266605E+00
        -11   -1    0    0    0    0  0.00000000000E+00  0.00000000000E+00  0.45593999997E+02  0.45594000000E+02  0.51100000000E-03 0.  1.
         11   -1    0    0    0    0 -0.00000000000E+00 -0.00000000000E+00 -0.45593999997E+02  0.45594000000E+02  0.51100000000E-03 0. -1.
    9900012    2    1    2    0    0  0.19387939853E+01  0.39907015556E+01  0.31575905108E+02  0.59301915191E+02  0.49999947409E+02 0.  0.
         12    1    1    2    0    0 -0.19387939853E+01 -0.39907015556E+01 -0.31575905108E+02  0.31886084809E+02  0.00000000000E+00 0. -1.
         11    1    3    3    0    0 -0.11828048059E+01 -0.12341033020E+02  0.51541405277E+01  0.13426290927E+02  0.51100000000E-03 0. -1.
        -11    1    3    3    0    0  0.49328576137E+00  0.16716622093E+02  0.33975463790E+02  0.37868468744E+02  0.51100000000E-03 0.  1.
        -12    1    3    3    0    0  0.26283130298E+01 -0.38488751718E+00 -0.75536992089E+01  0.80071555200E+01  0.00000000000E+00 0.  1.
</event>
<event>
 7    1  0.7755875E-012  0.5930189E+02  0.7816164E-02  0.1266605E+00
        -11   -1    0    0    0    0  0.00000000000E+00  0.00000000000E+00  0.45593999997E+02  0.45594000000E+02  0.51100000000E-03 0.  1.
         11   -1    0    0    0    0 -0.00000000000E+00 -0.00000000000E+00 -0.45593999997E+02  0.45594000000E+02  0.51100000000E-03 0. -1.
    9900012    2    1    2    0    0  0.27188250239E+02 -0.30922971249E+01  0.16369510926E+02  0.59301887968E+02  0.49999897760E+02 0.  0.
         12    1    1    2    0    0 -0.27188250239E+02  0.30922971249E+01 -0.16369510926E+02  0.31886112032E+02  0.00000000000E+00 0. -1.
         11    1    3    3    0    0 -0.23894810116E+01 -0.65463325174E+01 -0.80466531775E+01  0.10644844600E+02  0.51100000000E-03 0. -1.
        -11    1    3    3    0    0  0.27545279302E+02  0.10986778209E+01  0.38239333606E+01  0.27831133132E+02  0.51100000000E-03 0.  1.
         12    1    3    3    0    0  0.20324519485E+01  0.23553575716E+01  0.20592230743E+02  0.20825910237E+02  0.00000000000E+00 0. -1.
</event>
<event>
 7    1  0.7755875E-012  0.5930196E+02  0.7816164E-02  0.1266605E+00
        -11   -1    0    0    0    0  0.00000000000E+00  0.00000000000E+00  0.45593999997E+02  0.45594000000E+02  0.51100000000E-03 0. -1.
         11   -1    0    0    0    0 -0.00000000000E+00 -0.00000000000E+00 -0.45593999997E+02  0.45594000000E+02  0.51100000000E-03 0.  1.
    9900012    2    1    2    0    0  0.56603127048E+01  0.14759834945E+02 -0.27691653500E+02  0.59301960091E+02  0.50000029295E+02 0.  0.
         12    1    1    2    0    0 -0.56603127048E+01 -0.14759834945E+02  0.27691653500E+02  0.31886039909E+02  0.00000000000E+00 0. -1.
         11    1    3    3    0    0 -0.10802699350E+02  0.23366365797E+02 -0.54596248710E+01  0.26315259220E+02  0.51100000000E-03 0. -1.
        -11    1    3    3    0    0  0.89151144969E+01 -0.11112631208E+02 -0.20303301323E+02  0.24803102300E+02  0.51100000000E-03 0.  1.
         12    1    3    3    0    0  0.75478975580E+01  0.25061003559E+01 -0.19287273064E+01  0.81835985704E+01  0.00000000000E+00 0. -1.
</event>
<event>
 7    1  0.7755875E-012  0.5930210E+02  0.7816164E-02  0.1266604E+00
        -11   -1    0    0    0    0  0.00000000000E+00  0.00000000000E+00  0.45593999997E+02  0.45594000000E+02  0.51100000000E-03 0.  1.
         11   -1    0    0    0    0 -0.00000000000E+00 -0.00000000000E+00 -0.45593999997E+02  0.45594000000E+02  0.51100000000E-03 0. -1.
    9900012    2    1    2    0    0  0.12356115284E+01 -0.67270504882E+00  0.31854853023E+02  0.59302095135E+02  0.50000275583E+02 0.  0.
         12    1    1    2    0    0 -0.12356115284E+01  0.67270504882E+00 -0.31854853023E+02  0.31885904865E+02  0.00000000000E+00 0. -1.
         11    1    3    3    0    0  0.50517625860E+00 -0.21499154545E+00 -0.44502409655E+01  0.44839791847E+01  0.51100000000E-03 0. -1.
        -11    1    3    3    0    0 -0.14437438432E+02 -0.11462767307E+02  0.29685353111E+02  0.34943595299E+02  0.51100000000E-03 0.  1.
        -12    1    3    3    0    0  0.15167873702E+02  0.11005053804E+02  0.66197408773E+01  0.19874520652E+02  0.00000000000E+00 0.  1.
</event>
<event>
 7    1  0.7755875E-012  0.5930191E+02  0.7816164E-02  0.1266605E+00
        -11   -1    0    0    0    0  0.00000000000E+00  0.00000000000E+00  0.45593999997E+02  0.45594000000E+02  0.51100000000E-03 0.  1.
         11   -1    0    0    0    0 -0.00000000000E+00 -0.00000000000E+00 -0.45593999997E+02  0.45594000000E+02  0.51100000000E-03 0. -1.
    9900012    2    1    2    0    0  0.21464191409E+02  0.19725236760E+02  0.12920005527E+02  0.59301905524E+02  0.49999929779E+02 0.  0.
         12    1    1    2    0    0 -0.21464191409E+02 -0.19725236760E+02 -0.12920005527E+02  0.31886094476E+02  0.00000000000E+00 0. -1.
         11    1    3    3    0    0 -0.23678410309E+01  0.79023950678E+01 -0.15392952366E+02  0.17464177672E+02  0.51100000000E-03 0. -1.
        -11    1    3    3    0    0  0.16833087449E+02  0.52998607323E+01  0.79835100253E+01  0.19369506690E+02  0.51100000000E-03 0.  1.
         12    1    3    3    0    0  0.69989449915E+01  0.65229809599E+01  0.20329447867E+02  0.22468221162E+02  0.00000000000E+00 0. -1.
</event>
<event>
 7    1  0.7755875E-012  0.5930194E+02  0.7816164E-02  0.1266605E+00
        -11   -1    0    0    0    0  0.00000000000E+00  0.00000000000E+00  0.45593999997E+02  0.45594000000E+02  0.51100000000E-03 0. -1.
         11   -1    0    0    0    0 -0.00000000000E+00 -0.00000000000E+00 -0.45593999997E+02  0.45594000000E+02  0.51100000000E-03 0.  1.
    9900012    2    1    2    0    0 -0.19822782324E+01  0.12353027148E+02 -0.29329071303E+02  0.59301935172E+02  0.49999983850E+02 0.  0.
         12    1    1    2    0    0  0.19822782324E+01 -0.12353027148E+02  0.29329071303E+02  0.31886064828E+02  0.00000000000E+00 0. -1.
         11    1    3    3    0    0 -0.14909828553E+02 -0.65206796492E+01  0.17081299534E+01  0.16362761343E+02  0.51100000000E-03 0. -1.
        -11    1    3    3    0    0 -0.27142922728E+01  0.12463150101E+02 -0.13974452240E+02  0.18920433627E+02  0.51100000000E-03 0.  1.
         12    1    3    3    0    0  0.15641842594E+02  0.64105566961E+01 -0.17062749017E+02  0.24018740202E+02  0.00000000000E+00 0. -1.
</event>
<event>
 7    1  0.7755875E-012  0.5930196E+02  0.7816164E-02  0.1266605E+00
        -11   -1    0    0    0    0  0.00000000000E+00  0.00000000000E+00  0.45593999997E+02  0.45594000000E+02  0.51100000000E-03 0. -1.
         11   -1    0    0    0    0 -0.00000000000E+00 -0.00000000000E+00 -0.45593999997E+02  0.45594000000E+02  0.51100000000E-03 0.  1.
    9900012    2    1    2    0    0 -0.28124964901E+02 -0.13821618968E+02  0.58880036519E+01  0.59301962482E+02  0.50000033657E+02 0.  0.
         12    1    1    2    0    0  0.28124964901E+02  0.13821618968E+02 -0.58880036519E+01  0.31886037518E+02  0.00000000000E+00 0. -1.
         11    1    3    3    0    0 -0.21553842227E+02 -0.80991158904E+01  0.88517999505E+01  0.24668160766E+02  0.51100000000E-03 0.  1.
        -11    1    3    3    0    0  0.20702796713E+01  0.49176860774E+01  0.12726274442E+02  0.13799556359E+02  0.51100000000E-03 0. -1.
        -12    1    3    3    0    0 -0.86414023448E+01 -0.10640189155E+02 -0.15690070741E+02  0.20834245357E+02  0.00000000000E+00 0.  1.
</event>
<event>
 7    1  0.7755875E-012  0.5930202E+02  0.7816164E-02  0.1266605E+00
        -11   -1    0    0    0    0  0.00000000000E+00  0.00000000000E+00  0.45593999997E+02  0.45594000000E+02  0.51100000000E-03 0.  1.
         11   -1    0    0    0    0 -0.00000000000E+00 -0.00000000000E+00 -0.45593999997E+02  0.45594000000E+02  0.51100000000E-03 0. -1.
    9900012    2    1    2    0    0  0.18786449833E+02 -0.98097281651E+01  0.23823398613E+02  0.59302018982E+02  0.50000136699E+02 0.  0.
         12    1    1    2    0    0 -0.18786449833E+02  0.98097281651E+01 -0.23823398613E+02  0.31885981018E+02  0.00000000000E+00 0. -1.
         11    1    3    3    0    0 -0.73911595352E+01  0.74476612051E+01 -0.54500597084E+01  0.11823707024E+02  0.51100000000E-03 0. -1.
        -11    1    3    3    0    0  0.13326664633E+02 -0.11217784232E+01  0.21727650298E+02  0.25513705431E+02  0.51100000000E-03 0.  1.
         12    1    3    3    0    0  0.12850944734E+02 -0.16135610947E+02  0.75458080236E+01  0.21964606528E+02  0.00000000000E+00 0. -1.
</event>
<event>
 7    1  0.7755875E-012  0.5930197E+02  0.7816164E-02  0.1266605E+00
        -11   -1    0    0    0    0  0.00000000000E+00  0.00000000000E+00  0.45593999997E+02  0.45594000000E+02  0.51100000000E-03 0.  1.
         11   -1    0    0    0    0 -0.00000000000E+00 -0.00000000000E+00 -0.45593999997E+02  0.45594000000E+02  0.51100000000E-03 0. -1.
    9900012    2    1    2    0    0  0.18677636222E+02  0.17764335873E+02  0.18769470145E+02  0.59301972756E+02  0.50000052394E+02 0.  0.
         12    1    1    2    0    0 -0.18677636222E+02 -0.17764335873E+02 -0.18769470145E+02  0.31886027244E+02  0.00000000000E+00 0. -1.
         11    1    3    3    0    0 -0.99093865670E+01 -0.31613670978E+01  0.41792126546E+01  0.11209638832E+02  0.51100000000E-03 0. -1.
        -11    1    3    3    0    0  0.10611894846E+02  0.18399466891E+02 -0.45407911792E+01  0.21720301077E+02  0.51100000000E-03 0.  1.
        -12    1    3    3    0    0  0.17975127943E+02  0.25262360796E+01  0.19131048670E+02  0.26372032847E+02  0.00000000000E+00 0.  1.
</event>
<event>
 7    1  0.7755875E-012  0.5930206E+02  0.7816164E-02  0.1266604E+00
        -11   -1    0    0    0    0  0.00000000000E+00  0.00000000000E+00  0.45593999997E+02  0.45594000000E+02  0.51100000000E-03 0. -1.
         11   -1    0    0    0    0 -0.00000000000E+00 -0.00000000000E+00 -0.45593999997E+02  0.45594000000E+02  0.51100000000E-03 0.  1.
    9900012    2    1    2    0    0 -0.23192426857E+02  0.11033058654E+02 -0.18896980021E+02  0.59302064218E+02  0.50000219198E+02 0.  0.
         12    1    1    2    0    0  0.23192426857E+02 -0.11033058654E+02  0.18896980021E+02  0.31885935782E+02  0.00000000000E+00 0. -1.
         11    1    3    3    0    0 -0.89623583306E+01 -0.10923481931E+02 -0.20782757053E+02  0.25131042862E+02  0.51100000000E-03 0. -1.
        -11    1    3    3    0    0 -0.20445533563E+00  0.19696541189E+02 -0.79559995141E+00  0.19713663189E+02  0.51100000000E-03 0.  1.
         12    1    3    3    0    0 -0.14025613191E+02  0.22599993957E+01  0.26813769834E+01  0.14457358167E+02  0.00000000000E+00 0. -1.
</event>
<event>
 7    1  0.7755875E-012  0.5930197E+02  0.7816164E-02  0.1266605E+00
        -11   -1    0    0    0    0  0.00000000000E+00  0.00000000000E+00  0.45593999997E+02  0.45594000000E+02  0.51100000000E-03 0. -1.
         11   -1    0    0    0    0 -0.00000000000E+00 -0.00000000000E+00 -0.45593999997E+02  0.45594000000E+02  0.51100000000E-03 0.  1.
    9900012    2    1    2    0    0  0.16530834191E+02  0.25793823301E+02 -0.88390685939E+01  0.59301969624E+02  0.50000046682E+02 0.  0.
         12    1    1    2    0    0 -0.16530834191E+02 -0.25793823301E+02  0.88390685939E+01  0.31886030376E+02  0.00000000000E+00 0. -1.
         11    1    3    3    0    0  0.17793867618E+02  0.15095804251E+02  0.37935267061E+01  0.23640978743E+02  0.51100000000E-03 0. -1.
        -11    1    3    3    0    0 -0.67272781713E+01 -0.98504161036E+01 -0.28947409514E+01  0.12274628078E+02  0.51100000000E-03 0.  1.
        -12    1    3    3    0    0  0.54642447437E+01  0.20548435153E+02 -0.97378543486E+01  0.23386362803E+02  0.00000000000E+00 0.  1.
</event>
<event>
 7    1  0.7755875E-012  0.5930194E+02  0.7816164E-02  0.1266605E+00
        -11   -1    0    0    0    0  0.00000000000E+00  0.00000000000E+00  0.45593999997E+02  0.45594000000E+02  0.51100000000E-03 0.  1.
         11   -1    0    0    0    0 -0.00000000000E+00 -0.00000000000E+00 -0.45593999997E+02  0.45594000000E+02  0.51100000000E-03 0. -1.
    9900012    2    1    2    0    0 -0.68763780585E+01 -0.27598444660E+02  0.14413955297E+02  0.59301939878E+02  0.49999992431E+02 0.  0.
         12    1    1    2    0    0  0.68763780585E+01  0.27598444660E+02 -0.14413955297E+02  0.31886060122E+02  0.00000000000E+00 0. -1.
         11    1    3    3    0    0 -0.24726451509E+02 -0.10240711612E+02  0.17269183563E+02  0.31851126821E+02  0.51100000000E-03 0. -1.
        -11    1    3    3    0    0  0.13964520606E+02 -0.10134556186E+02 -0.65489580283E+01  0.18455511815E+02  0.51100000000E-03 0.  1.
        -12    1    3    3    0    0  0.38855528447E+01 -0.72231768611E+01  0.36937297620E+01  0.89953012418E+01  0.00000000000E+00 0.  1.
</event>
<event>
 7    1  0.7755875E-012  0.5930196E+02  0.7816164E-02  0.1266605E+00
        -11   -1    0    0    0    0  0.00000000000E+00  0.00000000000E+00  0.45593999997E+02  0.45594000000E+02  0.51100000000E-03 0. -1.
         11   -1    0    0    0    0 -0.00000000000E+00 -0.00000000000E+00 -0.45593999997E+02  0.45594000000E+02  0.51100000000E-03 0.  1.
    9900012    2    1    2    0    0 -0.27267847176E+02 -0.16527789870E+02 -0.12636590550E+00  0.59301963935E+02  0.50000036306E+02 0.  0.
         12    1    1    2    0    0  0.27267847176E+02  0.16527789870E+02  0.12636590550E+00  0.31886036065E+02  0.00000000000E+00 0. -1.
         11    1    3    3    0    0  0.47030428216E+01 -0.64126894242E+00  0.17701788191E+02  0.18327114968E+02  0.51100000000E-03 0. -1.
        -11    1    3    3    0    0 -0.35892307814E+01 -0.74624618627E+00 -0.53206146449E+01  0.64613002897E+01  0.51100000000E-03 0.  1.
         12    1    3    3    0    0 -0.28381659217E+02 -0.15140274741E+02 -0.12507539452E+02  0.34513548677E+02  0.00000000000E+00 0. -1.
</event>
<event>
 7    1  0.7755875E-012  0.5930194E+02  0.7816164E-02  0.1266605E+00
        -11   -1    0    0    0    0  0.00000000000E+00  0.00000000000E+00  0.45593999997E+02  0.45594000000E+02  0.51100000000E-03 0. -1.
         11   -1    0    0    0    0 -0.00000000000E+00 -0.00000000000E+00 -0.45593999997E+02  0.45594000000E+02  0.51100000000E-03 0.  1.
    9900012    2    1    2    0    0  0.28994915016E+01  0.28131883418E+02 -0.14727888905E+02  0.59301943060E+02  0.49999998235E+02 0.  0.
         12    1    1    2    0    0 -0.28994915016E+01 -0.28131883418E+02  0.14727888905E+02  0.31886056940E+02  0.00000000000E+00 0. -1.
         11    1    3    3    0    0  0.63996952250E+01  0.33185647838E+01  0.45125082661E+01  0.85048046603E+01  0.51100000000E-03 0. -1.
        -11    1    3    3    0    0 -0.13202745790E+02  0.31431178267E+02 -0.91115055219E+01  0.35288114100E+02  0.51100000000E-03 0.  1.
        -12    1    3    3    0    0  0.97025420661E+01 -0.66178596330E+01 -0.10128891649E+02  0.15509024299E+02  0.00000000000E+00 0.  1.
</event>
<event>
 7    1  0.7755875E-012  0.5930195E+02  0.7816164E-02  0.1266605E+00
        -11   -1    0    0    0    0  0.00000000000E+00  0.00000000000E+00  0.45593999997E+02  0.45594000000E+02  0.51100000000E-03 0.  1.
         11   -1    0    0    0    0 -0.00000000000E+00 -0.00000000000E+00 -0.45593999997E+02  0.45594000000E+02  0.51100000000E-03 0. -1.
    9900012    2    1    2    0    0 -0.16149143517E+02 -0.96748324591E+01  0.25735640300E+02  0.59301946605E+02  0.50000004701E+02 0.  0.
         12    1    1    2    0    0  0.16149143517E+02  0.96748324591E+01 -0.25735640300E+02  0.31886053395E+02  0.00000000000E+00 0. -1.
         11    1    3    3    0    0  0.10177419243E+02  0.20048308857E+01  0.77386585430E+01  0.12941639990E+02  0.51100000000E-03 0. -1.
        -11    1    3    3    0    0 -0.13532101700E+02 -0.21237171685E+02  0.16951475994E+02  0.30356017134E+02  0.51100000000E-03 0.  1.
        -12    1    3    3    0    0 -0.12794461060E+02  0.95575083404E+01  0.10455057625E+01  0.16004289481E+02  0.00000000000E+00 0.  1.
</event>
<event>
 7    1  0.7755875E-012  0.5930197E+02  0.7816164E-02  0.1266605E+00
        -11   -1    0    0    0    0  0.00000000000E+00  0.00000000000E+00  0.45593999997E+02  0.45594000000E+02  0.51100000000E-03 0.  1.
         11   -1    0    0    0    0 -0.00000000000E+00 -0.00000000000E+00 -0.45593999997E+02  0.45594000000E+02  0.51100000000E-03 0. -1.
    9900012    2    1    2    0    0 -0.19152007108E+02  0.24787015798E+02 -0.59601242302E+01  0.59301974703E+02  0.50000055944E+02 0.  0.
         12    1    1    2    0    0  0.19152007108E+02 -0.24787015798E+02  0.59601242302E+01  0.31886025297E+02  0.00000000000E+00 0. -1.
         11    1    3    3    0    0 -0.31560433785E+01 -0.14200084729E+01 -0.22772175190E+02  0.23033649233E+02  0.51100000000E-03 0. -1.
        -11    1    3    3    0    0 -0.35614755733E+01  0.72432054067E+01  0.54633542948E-01  0.80716242423E+01  0.51100000000E-03 0.  1.
         12    1    3    3    0    0 -0.12434488156E+02  0.18963818864E+02  0.16757417417E+02  0.28196701227E+02  0.00000000000E+00 0. -1.
</event>
<event>
 7    1  0.7755875E-012  0.5930195E+02  0.7816164E-02  0.1266605E+00
        -11   -1    0    0    0    0  0.00000000000E+00  0.00000000000E+00  0.45593999997E+02  0.45594000000E+02  0.51100000000E-03 0.  1.
         11   -1    0    0    0    0 -0.00000000000E+00 -0.00000000000E+00 -0.45593999997E+02  0.45594000000E+02  0.51100000000E-03 0. -1.
    9900012    2    1    2    0    0 -0.52582363758E+01 -0.25259825520E+02  0.18735330290E+02  0.59301946055E+02  0.50000003698E+02 0.  0.
         12    1    1    2    0    0  0.52582363758E+01  0.25259825520E+02 -0.18735330290E+02  0.31886053945E+02  0.00000000000E+00 0. -1.
         11    1    3    3    0    0 -0.17151772281E+02 -0.17395073677E+02 -0.33237097433E+01  0.24653984005E+02  0.51100000000E-03 0. -1.
        -11    1    3    3    0    0  0.16982592414E+02 -0.20971767454E+01  0.20666489602E+02  0.26831145859E+02  0.51100000000E-03 0.  1.
        -12    1    3    3    0    0 -0.50890565087E+01 -0.57675750976E+01  0.13925504316E+01  0.78168161908E+01  0.00000000000E+00 0.  1.
</event>
<event>
 7    1  0.7755875E-012  0.5930195E+02  0.7816164E-02  0.1266605E+00
        -11   -1    0    0    0    0  0.00000000000E+00  0.00000000000E+00  0.45593999997E+02  0.45594000000E+02  0.51100000000E-03 0. -1.
         11   -1    0    0    0    0 -0.00000000000E+00 -0.00000000000E+00 -0.45593999997E+02  0.45594000000E+02  0.51100000000E-03 0.  1.
    9900012    2    1    2    0    0 -0.20403422326E+02 -0.24501065994E+02  0.34355422454E+00  0.59301954353E+02  0.50000018831E+02 0.  0.
         12    1    1    2    0    0  0.20403422326E+02  0.24501065994E+02 -0.34355422454E+00  0.31886045647E+02  0.00000000000E+00 0. -1.
         11    1    3    3    0    0  0.88891032236E+01 -0.23193424802E+02  0.51175498055E+01  0.25360213454E+02  0.51100000000E-03 0. -1.
        -11    1    3    3    0    0 -0.13211309567E+02 -0.85176613217E+01 -0.43632026096E+01  0.16313393030E+02  0.51100000000E-03 0.  1.
        -12    1    3    3    0    0 -0.16081215983E+02  0.72100201290E+01 -0.41079297135E+00  0.17628347870E+02  0.00000000000E+00 0.  1.
</event>
<event>
 7    1  0.7755875E-012  0.5930190E+02  0.7816164E-02  0.1266605E+00
        -11   -1    0    0    0    0  0.00000000000E+00  0.00000000000E+00  0.45593999997E+02  0.45594000000E+02  0.51100000000E-03 0.  1.
         11   -1    0    0    0    0 -0.00000000000E+00 -0.00000000000E+00 -0.45593999997E+02  0.45594000000E+02  0.51100000000E-03 0. -1.
    9900012    2    1    2    0    0 -0.18362821308E+02  0.18539831747E+02  0.18324986320E+02  0.59301895013E+02  0.49999910609E+02 0.  0.
         12    1    1    2    0    0  0.18362821308E+02 -0.18539831747E+02 -0.18324986320E+02  0.31886104987E+02  0.00000000000E+00 0. -1.
         11    1    3    3    0    0  0.31414142027E+01  0.52530690900E+01 -0.11266366813E+02  0.12821631701E+02  0.51100000000E-03 0. -1.
        -11    1    3    3    0    0 -0.19885388305E+02  0.45701978516E+01  0.59841804578E+01  0.21263249809E+02  0.51100000000E-03 0.  1.
        -12    1    3    3    0    0 -0.16188472064E+01  0.87165648054E+01  0.23607172675E+02  0.25217013503E+02  0.00000000000E+00 0.  1.
</event>
<event>
 7    1  0.7755875E-012  0.5930196E+02  0.7816164E-02  0.1266605E+00
        -11   -1    0    0    0    0  0.00000000000E+00  0.00000000000E+00  0.45593999997E+02  0.45594000000E+02  0.51100000000E-03 0.  1.
         11   -1    0    0    0    0 -0.00000000000E+00 -0.00000000000E+00 -0.45593999997E+02  0.45594000000E+02  0.51100000000E-03 0. -1.
    9900012    2    1    2    0    0 -0.24471345366E+02 -0.20431152658E+02 -0.66411711282E+00  0.59301956117E+02  0.50000022048E+02 0.  0.
         12    1    1    2    0    0  0.24471345366E+02  0.20431152658E+02  0.66411711282E+00  0.31886043883E+02  0.00000000000E+00 0. -1.
         11    1    3    3    0    0  0.57183744847E+01 -0.22353597451E+02  0.10664691467E+02  0.25418866421E+02  0.51100000000E-03 0.  1.
        -11    1    3    3    0    0 -0.28409358400E+02 -0.20559521239E+00 -0.12279334024E+02  0.30950217422E+02  0.51100000000E-03 0. -1.
         12    1    3    3    0    0 -0.17803614506E+01  0.21280400060E+01  0.95052544399E+00  0.29328722750E+01  0.00000000000E+00 0. -1.
</event>
<event>
 7    1  0.7755875E-012  0.5930195E+02  0.7816164E-02  0.1266605E+00
        -11   -1    0    0    0    0  0.00000000000E+00  0.00000000000E+00  0.45593999997E+02  0.45594000000E+02  0.51100000000E-03 0.  1.
         11   -1    0    0    0    0 -0.00000000000E+00 -0.00000000000E+00 -0.45593999997E+02  0.45594000000E+02  0.51100000000E-03 0. -1.
    9900012    2    1    2    0    0 -0.20362480419E+02 -0.13870497837E+02  0.20241011866E+02  0.59301954770E+02  0.50000019592E+02 0.  0.
         12    1    1    2    0    0  0.20362480419E+02  0.13870497837E+02 -0.20241011866E+02  0.31886045230E+02  0.00000000000E+00 0. -1.
         11    1    3    3    0    0 -0.11495437873E+02 -0.20692163164E+02 -0.46105746163E+00  0.23675372912E+02  0.51100000000E-03 0. -1.
        -11    1    3    3    0    0 -0.20443784455E+01  0.16383251275E+02  0.80694935447E+01  0.18376809623E+02  0.51100000000E-03 0.  1.
         12    1    3    3    0    0 -0.68226641006E+01 -0.95615859477E+01  0.12632575783E+02  0.17249772236E+02  0.00000000000E+00 0. -1.
</event>
<event>
 7    1  0.7755875E-012  0.5930194E+02  0.7816164E-02  0.1266605E+00
        -11   -1    0    0    0    0  0.00000000000E+00  0.00000000000E+00  0.45593999997E+02  0.45594000000E+02  0.51100000000E-03 0.  1.
         11   -1    0    0    0    0 -0.00000000000E+00 -0.00000000000E+00 -0.45593999997E+02  0.45594000000E+02  0.51100000000E-03 0. -1.
    9900012    2    1    2    0    0 -0.30073329786E+02  0.35422204885E+01  0.99884010547E+01  0.59301942764E+02  0.49999997695E+02 0.  0.
         12    1    1    2    0    0  0.30073329786E+02 -0.35422204885E+01 -0.99884010547E+01  0.31886057236E+02  0.00000000000E+00 0. -1.
         11    1    3    3    0    0 -0.58578822327E+01  0.23030827311E+02 -0.11415257494E+01  0.23791529421E+02  0.51100000000E-03 0. -1.
        -11    1    3    3    0    0 -0.13268433526E+02 -0.94558443059E+01  0.12588859299E+02  0.20589893115E+02  0.51100000000E-03 0.  1.
         12    1    3    3    0    0 -0.10947014028E+02 -0.10032762517E+02 -0.14589324952E+01  0.14920520228E+02  0.00000000000E+00 0. -1.
</event>
<event>
 7    1  0.7755875E-012  0.5930193E+02  0.7816164E-02  0.1266605E+00
        -11   -1    0    0    0    0  0.00000000000E+00  0.00000000000E+00  0.45593999997E+02  0.45594000000E+02  0.51100000000E-03 0.  1.
         11   -1    0    0    0    0 -0.00000000000E+00 -0.00000000000E+00 -0.45593999997E+02  0.45594000000E+02  0.51100000000E-03 0. -1.
    9900012    2    1    2    0    0 -0.27514480499E+02  0.74677736583E+01  0.14279597552E+02  0.59301934285E+02  0.49999982231E+02 0.  0.
         12    1    1    2    0    0  0.27514480499E+02 -0.74677736583E+01 -0.14279597552E+02  0.31886065715E+02  0.00000000000E+00 0. -1.
         11    1    3    3    0    0 -0.10306761377E+02  0.16323359482E+02 -0.28618793507E+01  0.19515935758E+02  0.51100000000E-03 0. -1.
        -11    1    3    3    0    0 -0.24124553836E+02 -0.76828736242E+01  0.19945241600E+02  0.32230937121E+02  0.51100000000E-03 0.  1.
        -12    1    3    3    0    0  0.69168347139E+01 -0.11727121991E+01 -0.28037646978E+01  0.75550614055E+01  0.00000000000E+00 0.  1.
</event>
<event>
 7    1  0.7755875E-012  0.5930195E+02  0.7816164E-02  0.1266605E+00
        -11   -1    0    0    0    0  0.00000000000E+00  0.00000000000E+00  0.45593999997E+02  0.45594000000E+02  0.51100000000E-03 0. -1.
         11   -1    0    0    0    0 -0.00000000000E+00 -0.00000000000E+00 -0.45593999997E+02  0.45594000000E+02  0.51100000000E-03 0.  1.
    9900012    2    1    2    0    0  0.16725300131E+02  0.25460403648E+02  0.94208572068E+01  0.59301947110E+02  0.50000005622E+02 0.  0.
         12    1    1    2    0    0 -0.16725300131E+02 -0.25460403648E+02 -0.94208572068E+01  0.31886052890E+02  0.00000000000E+00 0. -1.
         11    1    3    3    0    0  0.21407378126E+01 -0.32386461600E+01 -0.26256940428E+01  0.46867746692E+01  0.51100000000E-03 0. -1.
        -11    1    3    3    0    0  0.24808220879E+02  0.12049067255E+02  0.19421179935E+02  0.33731440456E+02  0.51100000000E-03 0.  1.
        -12    1    3    3    0    0 -0.10223658561E+02  0.16649982552E+02 -0.73746286854E+01  0.20883731985E+02  0.00000000000E+00 0.  1.
</event>
<event>
 7    1  0.7755875E-012  0.5930197E+02  0.7816164E-02  0.1266605E+00
        -11   -1    0    0    0    0  0.00000000000E+00  0.00000000000E+00  0.45593999997E+02  0.45594000000E+02  0.51100000000E-03 0.  1.
         11   -1    0    0    0    0 -0.00000000000E+00 -0.00000000000E+00 -0.45593999997E+02  0.45594000000E+02  0.51100000000E-03 0. -1.
    9900012    2    1    2    0    0 -0.27582214720E+02 -0.13918702364E+02  0.78873216881E+01  0.59301973472E+02  0.50000053699E+02 0.  0.
         12    1    1    2    0    0  0.27582214720E+02  0.13918702364E+02 -0.78873216881E+01  0.31886026528E+02  0.00000000000E+00 0. -1.
         11    1    3    3    0    0 -0.20115468585E+02  0.16992021857E+01 -0.10497892700E+01  0.20214386516E+02  0.51100000000E-03 0. -1.
        -11    1    3    3    0    0  0.92339395049E+01  0.38591431757E+01 -0.34646949386E+01  0.10590691012E+02  0.51100000000E-03 0.  1.
        -12    1    3    3    0    0 -0.16700685640E+02 -0.19477047725E+02  0.12401805897E+02  0.28496895944E+02  0.00000000000E+00 0.  1.
</event>
<event>
 7    1  0.7755875E-012  0.5930189E+02  0.7816164E-02  0.1266605E+00
        -11   -1    0    0    0    0  0.00000000000E+00  0.00000000000E+00  0.45593999997E+02  0.45594000000E+02  0.51100000000E-03 0.  1.
         11   -1    0    0    0    0 -0.00000000000E+00 -0.00000000000E+00 -0.45593999997E+02  0.45594000000E+02  0.51100000000E-03 0. -1.
    9900012    2    1    2    0    0  0.18502523758E+02  0.13274624358E+02  0.22319607713E+02  0.59301891336E+02  0.49999903902E+02 0.  0.
         12    1    1    2    0    0 -0.18502523758E+02 -0.13274624358E+02 -0.22319607713E+02  0.31886108664E+02  0.00000000000E+00 0. -1.
         11    1    3    3    0    0  0.20098224392E+01  0.10567070067E+02 -0.63635524583E+01  0.12497886069E+02  0.51100000000E-03 0. -1.
        -11    1    3    3    0    0  0.18401351476E+02  0.43330502347E+01  0.35126262136E+02  0.39890341593E+02  0.51100000000E-03 0.  1.
        -12    1    3    3    0    0 -0.19086501573E+01 -0.16254959433E+01 -0.64431019640E+01  0.69136636744E+01  0.00000000000E+00 0.  1.
</event>
<event>
 7    1  0.7755875E-012  0.5930196E+02  0.7816164E-02  0.1266605E+00
        -11   -1    0    0    0    0  0.00000000000E+00  0.00000000000E+00  0.45593999997E+02  0.45594000000E+02  0.51100000000E-03 0. -1.
         11   -1    0    0    0    0 -0.00000000000E+00 -0.00000000000E+00 -0.45593999997E+02  0.45594000000E+02  0.51100000000E-03 0.  1.
    9900012    2    1    2    0    0 -0.10715715473E+02  0.21597933177E+02 -0.20866778538E+02  0.59301957251E+02  0.50000024117E+02 0.  0.
         12    1    1    2    0    0  0.10715715473E+02 -0.21597933177E+02  0.20866778538E+02  0.31886042749E+02  0.00000000000E+00 0. -1.
         11    1    3    3    0    0  0.50987805445E+01 -0.14295078026E+02 -0.11261167265E+02  0.18898695914E+02  0.51100000000E-03 0.  1.
        -11    1    3    3    0    0 -0.11518148477E+02  0.27459867475E+02 -0.70888478560E+01  0.30609864918E+02  0.51100000000E-03 0. -1.
        -12    1    3    3    0    0 -0.42963475412E+01  0.84331437281E+01 -0.25167634169E+01  0.97933964195E+01  0.00000000000E+00 0.  1.
</event>
<event>
 7    1  0.7755875E-012  0.5930193E+02  0.7816164E-02  0.1266605E+00
        -11   -1    0    0    0    0  0.00000000000E+00  0.00000000000E+00  0.45593999997E+02  0.45594000000E+02  0.51100000000E-03 0.  1.
         11   -1    0    0    0    0 -0.00000000000E+00 -0.00000000000E+00 -0.45593999997E+02  0.45594000000E+02  0.51100000000E-03 0. -1.
    9900012    2    1    2    0    0 -0.31451137854E+02 -0.50954062380E+01 -0.12587266103E+01  0.59301927340E+02  0.49999969565E+02 0.  0.
         12    1    1    2    0    0  0.31451137854E+02  0.50954062380E+01  0.12587266103E+01  0.31886072660E+02  0.00000000000E+00 0. -1.
         11    1    3    3    0    0 -0.16105990574E+02 -0.58610298279E+01  0.18800607939E+02  0.25440468984E+02  0.51100000000E-03 0.  1.
        -11    1    3    3    0    0  0.45864153183E+01  0.18968603436E+01 -0.10736662016E+02  0.11828321781E+02  0.51100000000E-03 0. -1.
        -12    1    3    3    0    0 -0.19931562598E+02 -0.11312367536E+01 -0.93226725327E+01  0.22033136575E+02  0.00000000000E+00 0.  1.
</event>
<event>
 7    1  0.7755875E-012  0.5930196E+02  0.7816164E-02  0.1266605E+00
        -11   -1    0    0    0    0  0.00000000000E+00  0.00000000000E+00  0.45593999997E+02  0.45594000000E+02  0.51100000000E-03 0.  1.
         11   -1    0    0    0    0 -0.00000000000E+00 -0.00000000000E+00 -0.45593999997E+02  0.45594000000E+02  0.51100000000E-03 0. -1.
    9900012    2    1    2    0    0  0.23920630432E+02 -0.20818484992E+02 -0.33337588272E+01  0.59301955630E+02  0.50000021161E+02 0.  0.
         12    1    1    2    0    0 -0.23920630432E+02  0.20818484992E+02  0.33337588272E+01  0.31886044370E+02  0.00000000000E+00 0. -1.
         11    1    3    3    0    0  0.28897608884E+01  0.20827010226E+01  0.67056592704E+01  0.75930381306E+01  0.51100000000E-03 0. -1.
        -11    1    3    3    0    0  0.58088959039E+01 -0.36054752888E+01 -0.22950300549E+02  0.23947004389E+02  0.51100000000E-03 0.  1.
        -12    1    3    3    0    0  0.15221973640E+02 -0.19295710726E+02  0.12910882451E+02  0.27761913111E+02  0.00000000000E+00 0.  1.
</event>
<event>
 7    1  0.7755875E-012  0.5930194E+02  0.7816164E-02  0.1266605E+00
        -11   -1    0    0    0    0  0.00000000000E+00  0.00000000000E+00  0.45593999997E+02  0.45594000000E+02  0.51100000000E-03 0. -1.
         11   -1    0    0    0    0 -0.00000000000E+00 -0.00000000000E+00 -0.45593999997E+02  0.45594000000E+02  0.51100000000E-03 0.  1.
    9900012    2    1    2    0    0  0.21238269856E+02 -0.22823314127E+02 -0.66897818481E+01  0.59301937913E+02  0.49999988849E+02 0.  0.
         12    1    1    2    0    0 -0.21238269856E+02  0.22823314127E+02  0.66897818481E+01  0.31886062087E+02  0.00000000000E+00 0. -1.
         11    1    3    3    0    0  0.16997327409E+02 -0.32888169872E+01 -0.14927087298E+02  0.22859208028E+02  0.51100000000E-03 0. -1.
        -11    1    3    3    0    0 -0.88344367127E+01 -0.15798418564E+02 -0.35510700318E+01  0.18445796263E+02  0.51100000000E-03 0.  1.
         12    1    3    3    0    0  0.13075379160E+02 -0.37360785761E+01  0.11788375482E+02  0.17996933622E+02  0.00000000000E+00 0. -1.
</event>
<event>
 7    1  0.7755875E-012  0.5930193E+02  0.7816164E-02  0.1266605E+00
        -11   -1    0    0    0    0  0.00000000000E+00  0.00000000000E+00  0.45593999997E+02  0.45594000000E+02  0.51100000000E-03 0. -1.
         11   -1    0    0    0    0 -0.00000000000E+00 -0.00000000000E+00 -0.45593999997E+02  0.45594000000E+02  0.51100000000E-03 0.  1.
    9900012    2    1    2    0    0 -0.15666589060E+02 -0.27076156829E+02 -0.61774730077E+01  0.59301930092E+02  0.49999974585E+02 0.  0.
         12    1    1    2    0    0  0.15666589060E+02  0.27076156829E+02  0.61774730077E+01  0.31886069908E+02  0.00000000000E+00 0. -1.
         11    1    3    3    0    0  0.10908460457E+02  0.28909649200E+01  0.13372182884E+01  0.11363993168E+02  0.51100000000E-03 0. -1.
        -11    1    3    3    0    0 -0.14806699139E+02 -0.30873946700E+02 -0.57492529794E+00  0.34245721829E+02  0.51100000000E-03 0.  1.
        -12    1    3    3    0    0 -0.11768350378E+02  0.90682495036E+00 -0.69397659982E+01  0.13692215095E+02  0.00000000000E+00 0.  1.
</event>
<event>
 7    1  0.7755875E-012  0.5930194E+02  0.7816164E-02  0.1266605E+00
        -11   -1    0    0    0    0  0.00000000000E+00  0.00000000000E+00  0.45593999997E+02  0.45594000000E+02  0.51100000000E-03 0. -1.
         11   -1    0    0    0    0 -0.00000000000E+00 -0.00000000000E+00 -0.45593999997E+02  0.45594000000E+02  0.51100000000E-03 0.  1.
    9900012    2    1    2    0    0 -0.21458097739E+02 -0.18195378955E+02 -0.15006623915E+02  0.59301944502E+02  0.50000000865E+02 0.  0.
         12    1    1    2    0    0  0.21458097739E+02  0.18195378955E+02  0.15006623915E+02  0.31886055498E+02  0.00000000000E+00 0. -1.
         11    1    3    3    0    0 -0.88769484640E+01 -0.17218680697E+02  0.12598302006E+02  0.23108448513E+02  0.51100000000E-03 0. -1.
        -11    1    3    3    0    0 -0.22557305128E+01 -0.96579966395E+01 -0.11763892392E+02  0.15386825004E+02  0.51100000000E-03 0.  1.
         12    1    3    3    0    0 -0.10325418762E+02  0.86812983817E+01 -0.15841033529E+02  0.20806670985E+02  0.00000000000E+00 0. -1.
</event>
<event>
 7    1  0.7755875E-012  0.5930195E+02  0.7816164E-02  0.1266605E+00
        -11   -1    0    0    0    0  0.00000000000E+00  0.00000000000E+00  0.45593999997E+02  0.45594000000E+02  0.51100000000E-03 0. -1.
         11   -1    0    0    0    0 -0.00000000000E+00 -0.00000000000E+00 -0.45593999997E+02  0.45594000000E+02  0.51100000000E-03 0.  1.
    9900012    2    1    2    0    0 -0.21491995339E+02  0.23329304717E+02 -0.32492748861E+01  0.59301951177E+02  0.50000013039E+02 0.  0.
         12    1    1    2    0    0  0.21491995339E+02 -0.23329304717E+02  0.32492748861E+01  0.31886048823E+02  0.00000000000E+00 0. -1.
         11    1    3    3    0    0 -0.31680014153E+02  0.77015296555E+01  0.10893573888E+02  0.34374508114E+02  0.51100000000E-03 0. -1.
        -11    1    3    3    0    0  0.30475212246E+01  0.40249959684E+01  0.31942843531E+00  0.50586572276E+01  0.51100000000E-03 0.  1.
         12    1    3    3    0    0  0.71404975898E+01  0.11602779093E+02 -0.14462277209E+02  0.19868785836E+02  0.00000000000E+00 0. -1.
</event>
<event>
 7    1  0.7755875E-012  0.5930194E+02  0.7816164E-02  0.1266605E+00
        -11   -1    0    0    0    0  0.00000000000E+00  0.00000000000E+00  0.45593999997E+02  0.45594000000E+02  0.51100000000E-03 0. -1.
         11   -1    0    0    0    0 -0.00000000000E+00 -0.00000000000E+00 -0.45593999997E+02  0.45594000000E+02  0.51100000000E-03 0.  1.
    9900012    2    1    2    0    0  0.27417671687E+02  0.13587603423E+01 -0.16221764765E+02  0.59301943447E+02  0.49999998940E+02 0.  0.
         12    1    1    2    0    0 -0.27417671687E+02 -0.13587603423E+01  0.16221764765E+02  0.31886056553E+02  0.00000000000E+00 0. -1.
         11    1    3    3    0    0  0.82929883751E+01  0.12311703740E+02 -0.19518422257E+02  0.24521837469E+02  0.51100000000E-03 0. -1.
        -11    1    3    3    0    0  0.12680887488E+02 -0.16573529457E+02 -0.64232091558E+01  0.21834477375E+02  0.51100000000E-03 0.  1.
        -12    1    3    3    0    0  0.64437958246E+01  0.56205860586E+01  0.97198666474E+01  0.12945628603E+02  0.00000000000E+00 0.  1.
</event>
<event>
 7    1  0.7755875E-012  0.5930195E+02  0.7816164E-02  0.1266605E+00
        -11   -1    0    0    0    0  0.00000000000E+00  0.00000000000E+00  0.45593999997E+02  0.45594000000E+02  0.51100000000E-03 0.  1.
         11   -1    0    0    0    0 -0.00000000000E+00 -0.00000000000E+00 -0.45593999997E+02  0.45594000000E+02  0.51100000000E-03 0. -1.
    9900012    2    1    2    0    0 -0.13851089693E+01  0.24923711334E+02  0.19839608036E+02  0.59301953514E+02  0.50000017300E+02 0.  0.
         12    1    1    2    0    0  0.13851089693E+01 -0.24923711334E+02 -0.19839608036E+02  0.31886046486E+02  0.00000000000E+00 0. -1.
         11    1    3    3    0    0  0.13162904504E+02  0.26987639816E+02  0.12933091146E+02  0.32693418369E+02  0.51100000000E-03 0. -1.
        -11    1    3    3    0    0 -0.19046183921E+02 -0.94420178086E+00  0.94914310683E+01  0.21301077507E+02  0.51100000000E-03 0.  1.
        -12    1    3    3    0    0  0.44981704479E+01 -0.11197267014E+01 -0.25849141783E+01  0.53074576375E+01  0.00000000000E+00 0.  1.
</event>
<event>
 7    1  0.7755875E-012  0.5930195E+02  0.7816164E-02  0.1266605E+00
        -11   -1    0    0    0    0  0.00000000000E+00  0.00000000000E+00  0.45593999997E+02  0.45594000000E+02  0.51100000000E-03 0. -1.
         11   -1    0    0    0    0 -0.00000000000E+00 -0.00000000000E+00 -0.45593999997E+02  0.45594000000E+02  0.51100000000E-03 0.  1.
    9900012    2    1    2    0    0 -0.24529988596E+02  0.83838798835E+01 -0.18566373444E+02  0.59301952812E+02  0.50000016020E+02 0.  0.
         12    1    1    2    0    0  0.24529988596E+02 -0.83838798835E+01  0.18566373444E+02  0.31886047188E+02  0.00000000000E+00 0. -1.
         11    1    3    3    0    0  0.88033966224E+01 -0.15951807359E+00 -0.38770725746E+01  0.96206512314E+01  0.51100000000E-03 0. -1.
        -11    1    3    3    0    0 -0.27946837132E+02 -0.33982735350E+01 -0.21017372981E+02  0.35132661954E+02  0.51100000000E-03 0.  1.
        -12    1    3    3    0    0 -0.53865480864E+01  0.11941671492E+02  0.63280721124E+01  0.14548639626E+02  0.00000000000E+00 0.  1.
</event>
<event>
 7    1  0.7755875E-012  0.5930195E+02  0.7816164E-02  0.1266605E+00
        -11   -1    0    0    0    0  0.00000000000E+00  0.00000000000E+00  0.45593999997E+02  0.45594000000E+02  0.51100000000E-03 0. -1.
         11   -1    0    0    0    0 -0.00000000000E+00 -0.00000000000E+00 -0.45593999997E+02  0.45594000000E+02  0.51100000000E-03 0.  1.
    9900012    2    1    2    0    0  0.26038502081E+02 -0.12558391070E+02  0.13453758663E+02  0.59301946637E+02  0.50000004759E+02 0.  0.
         12    1    1    2    0    0 -0.26038502081E+02  0.12558391070E+02 -0.13453758663E+02  0.31886053363E+02  0.00000000000E+00 0. -1.
         11    1    3    3    0    0 -0.61600820420E+01 -0.76882224564E+01  0.20778313038E+02  0.22995514090E+02  0.51100000000E-03 0. -1.
        -11    1    3    3    0    0  0.23191117212E+02 -0.79436763595E+01 -0.99145356470E+01  0.26442918315E+02  0.51100000000E-03 0.  1.
         12    1    3    3    0    0  0.90074669107E+01  0.30735077459E+01  0.25899812718E+01  0.98635142317E+01  0.00000000000E+00 0. -1.
</event>
<event>
 7    1  0.7755875E-012  0.5930192E+02  0.7816164E-02  0.1266605E+00
        -11   -1    0    0    0    0  0.00000000000E+00  0.00000000000E+00  0.45593999997E+02  0.45594000000E+02  0.51100000000E-03 0.  1.
         11   -1    0    0    0    0 -0.00000000000E+00 -0.00000000000E+00 -0.45593999997E+02  0.45594000000E+02  0.51100000000E-03 0. -1.
    9900012    2    1    2    0    0  0.11055176924E+02 -0.29091170073E+02  0.69432836814E+01  0.59301916808E+02  0.49999950358E+02 0.  0.
         12    1    1    2    0    0 -0.11055176924E+02  0.29091170073E+02 -0.69432836814E+01  0.31886083192E+02  0.00000000000E+00 0. -1.
         11    1    3    3    0    0  0.60765155419E+01  0.91918514875E+01  0.31482738703E+01  0.11459747097E+02  0.51100000000E-03 0. -1.
        -11    1    3    3    0    0  0.26564630676E+01 -0.25340304959E+02  0.15846966949E+02  0.30005236429E+02  0.51100000000E-03 0.  1.
        -12    1    3    3    0    0  0.23221983142E+01 -0.12942716602E+02 -0.12051957138E+02  0.17836933282E+02  0.00000000000E+00 0.  1.
</event>
<event>
 7    1  0.7755875E-012  0.5930194E+02  0.7816164E-02  0.1266605E+00
        -11   -1    0    0    0    0  0.00000000000E+00  0.00000000000E+00  0.45593999997E+02  0.45594000000E+02  0.51100000000E-03 0.  1.
         11   -1    0    0    0    0 -0.00000000000E+00 -0.00000000000E+00 -0.45593999997E+02  0.45594000000E+02  0.51100000000E-03 0. -1.
    9900012    2    1    2    0    0 -0.11983361862E+02  0.14394403563E+02  0.25805451332E+02  0.59301935115E+02  0.49999983745E+02 0.  0.
         12    1    1    2    0    0  0.11983361862E+02 -0.14394403563E+02 -0.25805451332E+02  0.31886064885E+02  0.00000000000E+00 0. -1.
         11    1    3    3    0    0 -0.97835447491E+01  0.38511467436E+01  0.71923765724E+00  0.10538803640E+02  0.51100000000E-03 0. -1.
        -11    1    3    3    0    0  0.80256499218E+01  0.11849188585E+02  0.32867086382E+02  0.35847729276E+02  0.51100000000E-03 0.  1.
        -12    1    3    3    0    0 -0.10225467035E+02 -0.13059317658E+01 -0.77808727072E+01  0.12915402198E+02  0.00000000000E+00 0.  1.
</event>
<event>
 7    1  0.7755875E-012  0.5930195E+02  0.7816164E-02  0.1266605E+00
        -11   -1    0    0    0    0  0.00000000000E+00  0.00000000000E+00  0.45593999997E+02  0.45594000000E+02  0.51100000000E-03 0. -1.
         11   -1    0    0    0    0 -0.00000000000E+00 -0.00000000000E+00 -0.45593999997E+02  0.45594000000E+02  0.51100000000E-03 0.  1.
    9900012    2    1    2    0    0 -0.14409996634E+02  0.22591440714E+02 -0.17282911401E+02  0.59301949397E+02  0.50000009793E+02 0.  0.
         12    1    1    2    0    0  0.14409996634E+02 -0.22591440714E+02  0.17282911401E+02  0.31886050603E+02  0.00000000000E+00 0. -1.
         11    1    3    3    0    0 -0.15283584300E+02  0.91381239951E+01  0.15368696843E+02  0.23522119423E+02  0.51100000000E-03 0. -1.
        -11    1    3    3    0    0 -0.19231671527E+01  0.25959902668E+01 -0.51355210494E+01  0.60672328184E+01  0.51100000000E-03 0.  1.
         12    1    3    3    0    0  0.27967548195E+01  0.10857326452E+02 -0.27516087195E+02  0.29712597156E+02  0.00000000000E+00 0. -1.
</event>
<event>
 7    1  0.7755875E-012  0.5930194E+02  0.7816164E-02  0.1266605E+00
        -11   -1    0    0    0    0  0.00000000000E+00  0.00000000000E+00  0.45593999997E+02  0.45594000000E+02  0.51100000000E-03 0.  1.
         11   -1    0    0    0    0 -0.00000000000E+00 -0.00000000000E+00 -0.45593999997E+02  0.45594000000E+02  0.51100000000E-03 0. -1.
    9900012    2    1    2    0    0  0.24581290012E+02  0.20245006853E+02 -0.16189159331E+01  0.59301937058E+02  0.49999987289E+02 0.  0.
         12    1    1    2    0    0 -0.24581290012E+02 -0.20245006853E+02  0.16189159331E+01  0.31886062942E+02  0.00000000000E+00 0. -1.
         11    1    3    3    0    0 -0.12489814211E+01  0.90926141708E+01 -0.20503612223E+02  0.22464053542E+02  0.51100000000E-03 0. -1.
        -11    1    3    3    0    0  0.18375321112E+02  0.13389723181E+02  0.18010638913E+02  0.29005520632E+02  0.51100000000E-03 0.  1.
         12    1    3    3    0    0  0.74549503212E+01 -0.22373304983E+01  0.87405737724E+00  0.78323628841E+01  0.00000000000E+00 0. -1.
</event>
<event>
 7    1  0.7755875E-012  0.5930195E+02  0.7816164E-02  0.1266605E+00
        -11   -1    0    0    0    0  0.00000000000E+00  0.00000000000E+00  0.45593999997E+02  0.45594000000E+02  0.51100000000E-03 0. -1.
         11   -1    0    0    0    0 -0.00000000000E+00 -0.00000000000E+00 -0.45593999997E+02  0.45594000000E+02  0.51100000000E-03 0.  1.
    9900012    2    1    2    0    0 -0.65060584311E+01 -0.29448654573E+02  0.10352212329E+02  0.59301947366E+02  0.50000006088E+02 0.  0.
         12    1    1    2    0    0  0.65060584311E+01  0.29448654573E+02 -0.10352212329E+02  0.31886052634E+02  0.00000000000E+00 0. -1.
         11    1    3    3    0    0  0.13927389134E+02 -0.11766872449E+02  0.36230632277E+01  0.18589191557E+02  0.51100000000E-03 0. -1.
        -11    1    3    3    0    0 -0.15935130744E+02 -0.10202480819E+02 -0.10324903390E+02  0.21555106981E+02  0.51100000000E-03 0.  1.
         12    1    3    3    0    0 -0.44983168206E+01 -0.74793013045E+01  0.17054052492E+02  0.19157648828E+02  0.00000000000E+00 0. -1.
</event>
<event>
 7    1  0.7755875E-012  0.5930218E+02  0.7816164E-02  0.1266604E+00
        -11   -1    0    0    0    0  0.00000000000E+00  0.00000000000E+00  0.45593999997E+02  0.45594000000E+02  0.51100000000E-03 0.  1.
         11   -1    0    0    0    0 -0.00000000000E+00 -0.00000000000E+00 -0.45593999997E+02  0.45594000000E+02  0.51100000000E-03 0. -1.
    9900012    2    1    2    0    0  0.12444397234E+02 -0.78073847163E+01  0.28299954861E+02  0.59302176759E+02  0.50000424444E+02 0.  0.
         12    1    1    2    0    0 -0.12444397234E+02  0.78073847163E+01 -0.28299954861E+02  0.31885823241E+02  0.00000000000E+00 0. -1.
         11    1    3    3    0    0 -0.29825634569E+01 -0.44111190807E+01 -0.11109599089E+02  0.12319774694E+02  0.51100000000E-03 0. -1.
        -11    1    3    3    0    0  0.92796675780E+01  0.58281756791E+01  0.31536029144E+02  0.33385640574E+02  0.51100000000E-03 0.  1.
        -12    1    3    3    0    0  0.61472931125E+01 -0.92244413147E+01  0.78735248057E+01  0.13596761491E+02  0.00000000000E+00 0.  1.
</event>
<event>
 7    1  0.7755875E-012  0.5930193E+02  0.7816164E-02  0.1266605E+00
        -11   -1    0    0    0    0  0.00000000000E+00  0.00000000000E+00  0.45593999997E+02  0.45594000000E+02  0.51100000000E-03 0.  1.
         11   -1    0    0    0    0 -0.00000000000E+00 -0.00000000000E+00 -0.45593999997E+02  0.45594000000E+02  0.51100000000E-03 0. -1.
    9900012    2    1    2    0    0  0.15713638319E+02 -0.19610999075E+02  0.19626805293E+02  0.59301934079E+02  0.49999981856E+02 0.  0.
         12    1    1    2    0    0 -0.15713638319E+02  0.19610999075E+02 -0.19626805293E+02  0.31886065921E+02  0.00000000000E+00 0. -1.
         11    1    3    3    0    0  0.30120058065E+02 -0.19094368962E+02  0.22093049873E+02  0.41951348927E+02  0.51100000000E-03 0. -1.
        -11    1    3    3    0    0 -0.50540091467E+01  0.17004436903E+01  0.31747297275E+01  0.62059186510E+01  0.51100000000E-03 0.  1.
         12    1    3    3    0    0 -0.93524105996E+01 -0.22170738032E+01 -0.56409743071E+01  0.11144666500E+02  0.00000000000E+00 0. -1.
</event>
<event>
 7    1  0.7755875E-012  0.5930194E+02  0.7816164E-02  0.1266605E+00
        -11   -1    0    0    0    0  0.00000000000E+00  0.00000000000E+00  0.45593999997E+02  0.45594000000E+02  0.51100000000E-03 0. -1.
         11   -1    0    0    0    0 -0.00000000000E+00 -0.00000000000E+00 -0.45593999997E+02  0.45594000000E+02  0.51100000000E-03 0.  1.
    9900012    2    1    2    0    0  0.16144258992E+02 -0.12166585580E+02 -0.24658833384E+02  0.59301937732E+02  0.49999988519E+02 0.  0.
         12    1    1    2    0    0 -0.16144258992E+02  0.12166585580E+02  0.24658833384E+02  0.31886062268E+02  0.00000000000E+00 0. -1.
         11    1    3    3    0    0  0.11675297982E+02 -0.52287852724E+01  0.74864549753E+01  0.14822273333E+02  0.51100000000E-03 0. -1.
        -11    1    3    3    0    0 -0.22990667459E+01 -0.29645290248E+01 -0.35676856229E+02  0.35873558659E+02  0.51100000000E-03 0.  1.
        -12    1    3    3    0    0  0.67680277563E+01 -0.39732712826E+01  0.35315678695E+01  0.86061057403E+01  0.00000000000E+00 0.  1.
</event>
<event>
 7    1  0.7755875E-012  0.5930199E+02  0.7816164E-02  0.1266605E+00
        -11   -1    0    0    0    0  0.00000000000E+00  0.00000000000E+00  0.45593999997E+02  0.45594000000E+02  0.51100000000E-03 0. -1.
         11   -1    0    0    0    0 -0.00000000000E+00 -0.00000000000E+00 -0.45593999997E+02  0.45594000000E+02  0.51100000000E-03 0.  1.
    9900012    2    1    2    0    0  0.25524037453E+02  0.94546632409E+01 -0.16608747210E+02  0.59301990077E+02  0.50000083983E+02 0.  0.
         12    1    1    2    0    0 -0.25524037453E+02 -0.94546632409E+01  0.16608747210E+02  0.31886009923E+02  0.00000000000E+00 0. -1.
         11    1    3    3    0    0  0.31021776927E+02 -0.39620863539E+01 -0.18739253474E+02  0.36458310342E+02  0.51100000000E-03 0.  1.
        -11    1    3    3    0    0 -0.11754645432E+02  0.70691536769E+01  0.16993158669E+00  0.13717634634E+02  0.51100000000E-03 0. -1.
         12    1    3    3    0    0  0.62569059586E+01  0.63475959179E+01  0.19605746771E+01  0.91260451004E+01  0.00000000000E+00 0. -1.
</event>
<event>
 7    1  0.7755875E-012  0.5930189E+02  0.7816164E-02  0.1266605E+00
        -11   -1    0    0    0    0  0.00000000000E+00  0.00000000000E+00  0.45593999997E+02  0.45594000000E+02  0.51100000000E-03 0.  1.
         11   -1    0    0    0    0 -0.00000000000E+00 -0.00000000000E+00 -0.45593999997E+02  0.45594000000E+02  0.51100000000E-03 0. -1.
    9900012    2    1    2    0    0  0.87759735383E+01 -0.50368562652E+01  0.30237993226E+02  0.59301892258E+02  0.49999905585E+02 0.  0.
         12    1    1    2    0    0 -0.87759735383E+01  0.50368562652E+01 -0.30237993226E+02  0.31886107742E+02  0.00000000000E+00 0. -1.
         11    1    3    3    0    0  0.14453946100E+02 -0.94624014587E+00 -0.43916200057E+01  0.15135992032E+02  0.51100000000E-03 0. -1.
        -11    1    3    3    0    0  0.22880539184E+01 -0.56342257235E+01  0.35489073911E+02  0.36006305803E+02  0.51100000000E-03 0.  1.
         12    1    3    3    0    0 -0.79660264799E+01  0.15436096041E+01 -0.85946067973E+00  0.81595944230E+01  0.00000000000E+00 0. -1.
</event>
<event>
 7    1  0.7755875E-012  0.5930189E+02  0.7816164E-02  0.1266605E+00
        -11   -1    0    0    0    0  0.00000000000E+00  0.00000000000E+00  0.45593999997E+02  0.45594000000E+02  0.51100000000E-03 0.  1.
         11   -1    0    0    0    0 -0.00000000000E+00 -0.00000000000E+00 -0.45593999997E+02  0.45594000000E+02  0.51100000000E-03 0. -1.
    9900012    2    1    2    0    0  0.12846374990E+02 -0.29091428135E+02  0.23202007116E+01  0.59301892168E+02  0.49999905420E+02 0.  0.
         12    1    1    2    0    0 -0.12846374990E+02  0.29091428135E+02 -0.23202007116E+01  0.31886107832E+02  0.00000000000E+00 0. -1.
         11    1    3    3    0    0 -0.50667907291E+01 -0.12748217915E+02  0.58768356184E+00  0.13730797519E+02  0.51100000000E-03 0. -1.
        -11    1    3    3    0    0  0.13999958452E+02  0.71668210071E+01  0.11836691207E+02  0.19684242911E+02  0.51100000000E-03 0.  1.
        -12    1    3    3    0    0  0.39132072677E+01 -0.23510031228E+02 -0.10104174058E+02  0.25886851737E+02  0.00000000000E+00 0.  1.
</event>
<event>
 7    1  0.7755875E-012  0.5930191E+02  0.7816164E-02  0.1266605E+00
        -11   -1    0    0    0    0  0.00000000000E+00  0.00000000000E+00  0.45593999997E+02  0.45594000000E+02  0.51100000000E-03 0. -1.
         11   -1    0    0    0    0 -0.00000000000E+00 -0.00000000000E+00 -0.45593999997E+02  0.45594000000E+02  0.51100000000E-03 0.  1.
    9900012    2    1    2    0    0 -0.76938754839E+01 -0.17184431306E+02 -0.25733679032E+02  0.59301911564E+02  0.49999940794E+02 0.  0.
         12    1    1    2    0    0  0.76938754839E+01  0.17184431306E+02  0.25733679032E+02  0.31886088436E+02  0.00000000000E+00 0. -1.
         11    1    3    3    0    0 -0.84064548936E+01 -0.28814561114E+02 -0.42353859909E+01  0.30313130997E+02  0.51100000000E-03 0. -1.
        -11    1    3    3    0    0 -0.42069820405E+01  0.10174856567E+02 -0.21152946668E+02  0.23846877302E+02  0.51100000000E-03 0.  1.
         12    1    3    3    0    0  0.49195614501E+01  0.14552732418E+01 -0.34534637247E+00  0.51419032650E+01  0.00000000000E+00 0. -1.
</event>
<event>
 7    1  0.7755875E-012  0.5930196E+02  0.7816164E-02  0.1266605E+00
        -11   -1    0    0    0    0  0.00000000000E+00  0.00000000000E+00  0.45593999997E+02  0.45594000000E+02  0.51100000000E-03 0. -1.
         11   -1    0    0    0    0 -0.00000000000E+00 -0.00000000000E+00 -0.45593999997E+02  0.45594000000E+02  0.51100000000E-03 0.  1.
    9900012    2    1    2    0    0 -0.30711729548E+02 -0.80012116850E+01 -0.30805129594E+01  0.59301964179E+02  0.50000036751E+02 0.  0.
         12    1    1    2    0    0  0.30711729548E+02  0.80012116850E+01  0.30805129594E+01  0.31886035821E+02  0.00000000000E+00 0. -1.
         11    1    3    3    0    0  0.34458373329E+01  0.38127345336E+01 -0.13768331035E+02  0.14696179072E+02  0.51100000000E-03 0. -1.
        -11    1    3    3    0    0 -0.25843415462E+02 -0.18035950333E+02  0.29442173480E+01  0.31651951649E+02  0.51100000000E-03 0.  1.
         12    1    3    3    0    0 -0.83141514198E+01  0.62220041143E+01  0.77436007280E+01  0.12953833458E+02  0.00000000000E+00 0. -1.
</event>
<event>
 7    1  0.7755875E-012  0.5930194E+02  0.7816164E-02  0.1266605E+00
        -11   -1    0    0    0    0  0.00000000000E+00  0.00000000000E+00  0.45593999997E+02  0.45594000000E+02  0.51100000000E-03 0. -1.
         11   -1    0    0    0    0 -0.00000000000E+00 -0.00000000000E+00 -0.45593999997E+02  0.45594000000E+02  0.51100000000E-03 0.  1.
    9900012    2    1    2    0    0 -0.97102077446E+01 -0.22974643328E+02 -0.19864501592E+02  0.59301940444E+02  0.49999993465E+02 0.  0.
         12    1    1    2    0    0  0.97102077446E+01  0.22974643328E+02  0.19864501592E+02  0.31886059556E+02  0.00000000000E+00 0. -1.
         11    1    3    3    0    0  0.58439970897E+01  0.44019642444E+01 -0.45198886789E+01  0.85999409954E+01  0.51100000000E-03 0. -1.
        -11    1    3    3    0    0 -0.21873968772E+02 -0.50016847240E+01  0.70593300512E+00  0.22449625868E+02  0.51100000000E-03 0.  1.
        -12    1    3    3    0    0  0.63197639378E+01 -0.22374922848E+02 -0.16050545918E+02  0.28252373581E+02  0.00000000000E+00 0.  1.
</event>
<event>
 7    1  0.7755875E-012  0.5930195E+02  0.7816164E-02  0.1266605E+00
        -11   -1    0    0    0    0  0.00000000000E+00  0.00000000000E+00  0.45593999997E+02  0.45594000000E+02  0.51100000000E-03 0.  1.
         11   -1    0    0    0    0 -0.00000000000E+00 -0.00000000000E+00 -0.45593999997E+02  0.45594000000E+02  0.51100000000E-03 0. -1.
    9900012    2    1    2    0    0  0.89600117096E+01 -0.29379175723E+02 -0.85616774632E+01  0.59301951374E+02  0.50000013398E+02 0.  0.
         12    1    1    2    0    0 -0.89600117096E+01  0.29379175723E+02  0.85616774632E+01  0.31886048626E+02  0.00000000000E+00 0. -1.
         11    1    3    3    0    0 -0.14130404587E+01  0.37944507589E+01 -0.83466429441E+00  0.41341510187E+01  0.51100000000E-03 0. -1.
        -11    1    3    3    0    0  0.22087827376E+02 -0.22071900562E+02  0.84167084975E+01  0.32340097322E+02  0.51100000000E-03 0.  1.
        -12    1    3    3    0    0 -0.11714775207E+02 -0.11101725920E+02 -0.16143721666E+02  0.22827703034E+02  0.00000000000E+00 0.  1.
</event>
<event>
 7    1  0.7755875E-012  0.5930198E+02  0.7816164E-02  0.1266605E+00
        -11   -1    0    0    0    0  0.00000000000E+00  0.00000000000E+00  0.45593999997E+02  0.45594000000E+02  0.51100000000E-03 0.  1.
         11   -1    0    0    0    0 -0.00000000000E+00 -0.00000000000E+00 -0.45593999997E+02  0.45594000000E+02  0.51100000000E-03 0. -1.
    9900012    2    1    2    0    0 -0.30221600411E+02 -0.86126955703E+01  0.54032312030E+01  0.59301975415E+02  0.50000057242E+02 0.  0.
         12    1    1    2    0    0  0.30221600411E+02  0.86126955703E+01 -0.54032312030E+01  0.31886024585E+02  0.00000000000E+00 0. -1.
         11    1    3    3    0    0 -0.80984213131E+01  0.76990527663E+01  0.20015653303E+02  0.22923486181E+02  0.51100000000E-03 0. -1.
        -11    1    3    3    0    0 -0.21225180088E+02 -0.71409363517E+01 -0.47715671431E+01  0.22896923265E+02  0.51100000000E-03 0.  1.
         12    1    3    3    0    0 -0.89799901074E+00 -0.91708119849E+01 -0.98408549574E+01  0.13481565969E+02  0.00000000000E+00 0. -1.
</event>
<event>
 7    1  0.8316376E-012  0.5930189E+02  0.7816164E-02  0.1266605E+00
        -11   -1    0    0    0    0  0.00000000000E+00  0.00000000000E+00  0.45593999997E+02  0.45594000000E+02  0.51100000000E-03 0. -1.
         11   -1    0    0    0    0 -0.00000000000E+00 -0.00000000000E+00 -0.45593999997E+02  0.45594000000E+02  0.51100000000E-03 0.  1.
    9900012    2    1    2    0    0 -0.47107643049E+00 -0.11549861006E+02 -0.29717049443E+02  0.59301886567E+02  0.49999895206E+02 0.  0.
         12    1    1    2    0    0  0.47107643049E+00  0.11549861006E+02  0.29717049443E+02  0.31886113433E+02  0.00000000000E+00 0. -1.
         11    1    3    3    0    0 -0.89155486902E+00  0.87983994093E+01  0.51920204258E+01  0.10254939230E+02  0.51100000000E-03 0. -1.
        -11    1    3    3    0    0 -0.70367589692E+01 -0.34052474827E+01 -0.28349526858E+02  0.29407607188E+02  0.51100000000E-03 0.  1.
         12    1    3    3    0    0  0.74572374077E+01 -0.16943012932E+02 -0.65595430108E+01  0.19639340149E+02  0.00000000000E+00 0. -1.
</event>
<event>
 7    1  0.7755875E-012  0.5930200E+02  0.7816164E-02  0.1266605E+00
        -11   -1    0    0    0    0  0.00000000000E+00  0.00000000000E+00  0.45593999997E+02  0.45594000000E+02  0.51100000000E-03 0. -1.
         11   -1    0    0    0    0 -0.00000000000E+00 -0.00000000000E+00 -0.45593999997E+02  0.45594000000E+02  0.51100000000E-03 0.  1.
    9900012    2    1    2    0    0  0.23091696725E+02 -0.70635902542E+01 -0.20822977892E+02  0.59301997221E+02  0.50000097012E+02 0.  0.
         12    1    1    2    0    0 -0.23091696725E+02  0.70635902542E+01  0.20822977892E+02  0.31886002779E+02  0.00000000000E+00 0. -1.
         11    1    3    3    0    0  0.82872691160E+01 -0.15142454312E+02 -0.20065938376E+02  0.26469126075E+02  0.51100000000E-03 0.  1.
        -11    1    3    3    0    0 -0.36448678916E+01  0.11969149905E+02  0.44374774126E+01  0.13275421554E+02  0.51100000000E-03 0. -1.
         12    1    3    3    0    0  0.18449295501E+02 -0.38902858469E+01 -0.51945169284E+01  0.19557449592E+02  0.00000000000E+00 0. -1.
</event>
<event>
 7    1  0.7755875E-012  0.5930200E+02  0.7816164E-02  0.1266605E+00
        -11   -1    0    0    0    0  0.00000000000E+00  0.00000000000E+00  0.45593999997E+02  0.45594000000E+02  0.51100000000E-03 0. -1.
         11   -1    0    0    0    0 -0.00000000000E+00 -0.00000000000E+00 -0.45593999997E+02  0.45594000000E+02  0.51100000000E-03 0.  1.
    9900012    2    1    2    0    0  0.27568004405E+02 -0.96912695480E+01 -0.12759372823E+02  0.59301997316E+02  0.50000097185E+02 0.  0.
         12    1    1    2    0    0 -0.27568004405E+02  0.96912695480E+01  0.12759372823E+02  0.31886002684E+02  0.00000000000E+00 0. -1.
         11    1    3    3    0    0 -0.57741311530E+01  0.86624186829E+01  0.78750045560E+00  0.10440222471E+02  0.51100000000E-03 0. -1.
        -11    1    3    3    0    0  0.17748836203E+02 -0.20460079973E+02 -0.17984890161E+02  0.32512956393E+02  0.51100000000E-03 0.  1.
         12    1    3    3    0    0  0.15593299355E+02  0.21063917418E+01  0.44380168819E+01  0.16348818453E+02  0.00000000000E+00 0. -1.
</event>
<event>
 7    1  0.7755875E-012  0.5930194E+02  0.7816164E-02  0.1266605E+00
        -11   -1    0    0    0    0  0.00000000000E+00  0.00000000000E+00  0.45593999997E+02  0.45594000000E+02  0.51100000000E-03 0. -1.
         11   -1    0    0    0    0 -0.00000000000E+00 -0.00000000000E+00 -0.45593999997E+02  0.45594000000E+02  0.51100000000E-03 0.  1.
    9900012    2    1    2    0    0 -0.20239630334E+02 -0.23360691265E+02 -0.78330068873E+01  0.59301944594E+02  0.50000001034E+02 0.  0.
         12    1    1    2    0    0  0.20239630334E+02  0.23360691265E+02  0.78330068873E+01  0.31886055406E+02  0.00000000000E+00 0. -1.
         11    1    3    3    0    0 -0.19728040732E+01 -0.52751359980E+01  0.70979452956E+01  0.90608963899E+01  0.51100000000E-03 0. -1.
        -11    1    3    3    0    0 -0.11555114759E+02 -0.10256935119E+02 -0.28963559184E+02  0.32827018689E+02  0.51100000000E-03 0.  1.
        -12    1    3    3    0    0 -0.67117115017E+01 -0.78286201474E+01  0.14032607002E+02  0.17414029515E+02  0.00000000000E+00 0.  1.
</event>
<event>
 7    1  0.7755875E-012  0.5930194E+02  0.7816164E-02  0.1266605E+00
        -11   -1    0    0    0    0  0.00000000000E+00  0.00000000000E+00  0.45593999997E+02  0.45594000000E+02  0.51100000000E-03 0.  1.
         11   -1    0    0    0    0 -0.00000000000E+00 -0.00000000000E+00 -0.45593999997E+02  0.45594000000E+02  0.51100000000E-03 0. -1.
    9900012    2    1    2    0    0  0.13321946073E+02 -0.21777604188E+02  0.19104517170E+02  0.59301939289E+02  0.49999991358E+02 0.  0.
         12    1    1    2    0    0 -0.13321946073E+02  0.21777604188E+02 -0.19104517170E+02  0.31886060711E+02  0.00000000000E+00 0. -1.
         11    1    3    3    0    0  0.57628748498E+01  0.98892561165E+01 -0.89025033440E+01  0.14500437205E+02  0.51100000000E-03 0. -1.
        -11    1    3    3    0    0  0.93328060901E+01 -0.30928444512E+02  0.23642959716E+02  0.40033229870E+02  0.51100000000E-03 0.  1.
         12    1    3    3    0    0 -0.17737348669E+01 -0.73841579298E+00  0.43640607985E+01  0.47682722149E+01  0.00000000000E+00 0. -1.
</event>
<event>
 7    1  0.7755875E-012  0.5930195E+02  0.7816164E-02  0.1266605E+00
        -11   -1    0    0    0    0  0.00000000000E+00  0.00000000000E+00  0.45593999997E+02  0.45594000000E+02  0.51100000000E-03 0.  1.
         11   -1    0    0    0    0 -0.00000000000E+00 -0.00000000000E+00 -0.45593999997E+02  0.45594000000E+02  0.51100000000E-03 0. -1.
    9900012    2    1    2    0    0 -0.96764555774E+01  0.59818642320E+00  0.30376446792E+02  0.59301950711E+02  0.50000012189E+02 0.  0.
         12    1    1    2    0    0  0.96764555774E+01 -0.59818642320E+00 -0.30376446792E+02  0.31886049289E+02  0.00000000000E+00 0. -1.
         11    1    3    3    0    0  0.44222767500E+01  0.16289277550E+01 -0.12299349063E+02  0.13171329657E+02  0.51100000000E-03 0. -1.
        -11    1    3    3    0    0 -0.64576263329E+01 -0.16888497033E+01  0.71296942674E+01  0.97665598745E+01  0.51100000000E-03 0.  1.
         12    1    3    3    0    0 -0.76411059945E+01  0.65810837143E+00  0.35546101588E+02  0.36364061180E+02  0.00000000000E+00 0. -1.
</event>
<event>
 7    1  0.7755875E-012  0.5930194E+02  0.7816164E-02  0.1266605E+00
        -11   -1    0    0    0    0  0.00000000000E+00  0.00000000000E+00  0.45593999997E+02  0.45594000000E+02  0.51100000000E-03 0.  1.
         11   -1    0    0    0    0 -0.00000000000E+00 -0.00000000000E+00 -0.45593999997E+02  0.45594000000E+02  0.51100000000E-03 0. -1.
    9900012    2    1    2    0    0  0.18558698063E+02  0.81228495899E+01  0.24623456087E+02  0.59301944287E+02  0.50000000474E+02 0.  0.
         12    1    1    2    0    0 -0.18558698063E+02 -0.81228495899E+01 -0.24623456087E+02  0.31886055713E+02  0.00000000000E+00 0. -1.
         11    1    3    3    0    0  0.30156825043E+02  0.11427674298E+02  0.18037165958E+01  0.32299833287E+02  0.51100000000E-03 0. -1.
        -11    1    3    3    0    0 -0.84265109385E+01 -0.14229698086E+01  0.79156741030E+01  0.11648554693E+02  0.51100000000E-03 0.  1.
         12    1    3    3    0    0 -0.31716160421E+01 -0.18818548999E+01  0.14904065388E+02  0.15353556307E+02  0.00000000000E+00 0. -1.
</event>
<event>
 7    1  0.7755875E-012  0.5930195E+02  0.7816164E-02  0.1266605E+00
        -11   -1    0    0    0    0  0.00000000000E+00  0.00000000000E+00  0.45593999997E+02  0.45594000000E+02  0.51100000000E-03 0.  1.
         11   -1    0    0    0    0 -0.00000000000E+00 -0.00000000000E+00 -0.45593999997E+02  0.45594000000E+02  0.51100000000E-03 0. -1.
    9900012    2    1    2    0    0 -0.58207841140E+01  0.31328594850E+02 -0.11652401989E+01  0.59301950265E+02  0.50000011376E+02 0.  0.
         12    1    1    2    0    0  0.58207841140E+01 -0.31328594850E+02  0.11652401989E+01  0.31886049735E+02  0.00000000000E+00 0. -1.
         11    1    3    3    0    0 -0.63025462439E+01 -0.64587218474E+01  0.58448870006E+01  0.10751738528E+02  0.51100000000E-03 0. -1.
        -11    1    3    3    0    0 -0.91398415916E+01  0.33837247412E+02 -0.11956378342E+02  0.37033106811E+02  0.51100000000E-03 0.  1.
         12    1    3    3    0    0  0.96216037215E+01  0.39500692851E+01  0.49462511427E+01  0.11517104927E+02  0.00000000000E+00 0. -1.
</event>
<event>
 7    1  0.7755875E-012  0.5930199E+02  0.7816164E-02  0.1266605E+00
        -11   -1    0    0    0    0  0.00000000000E+00  0.00000000000E+00  0.45593999997E+02  0.45594000000E+02  0.51100000000E-03 0.  1.
         11   -1    0    0    0    0 -0.00000000000E+00 -0.00000000000E+00 -0.45593999997E+02  0.45594000000E+02  0.51100000000E-03 0. -1.
    9900012    2    1    2    0    0 -0.16708211584E+02 -0.71131757559E+01  0.26209845036E+02  0.59301990835E+02  0.50000085365E+02 0.  0.
         12    1    1    2    0    0  0.16708211584E+02  0.71131757559E+01 -0.26209845036E+02  0.31886009165E+02  0.00000000000E+00 0. -1.
         11    1    3    3    0    0 -0.95555999627E+01  0.27190972480E+01 -0.96512011667E+01  0.13850944542E+02  0.51100000000E-03 0. -1.
        -11    1    3    3    0    0 -0.19956735263E+01 -0.17941441370E+02  0.20337179513E+02  0.27193361360E+02  0.51100000000E-03 0.  1.
         12    1    3    3    0    0 -0.51569380948E+01  0.81091683661E+01  0.15523866690E+02  0.18257684933E+02  0.00000000000E+00 0. -1.
</event>
<event>
 7    1  0.7755875E-012  0.5930195E+02  0.7816164E-02  0.1266605E+00
        -11   -1    0    0    0    0  0.00000000000E+00  0.00000000000E+00  0.45593999997E+02  0.45594000000E+02  0.51100000000E-03 0.  1.
         11   -1    0    0    0    0 -0.00000000000E+00 -0.00000000000E+00 -0.45593999997E+02  0.45594000000E+02  0.51100000000E-03 0. -1.
    9900012    2    1    2    0    0  0.92211690963E+01  0.63087808677E+01  0.29864514794E+02  0.59301954158E+02  0.50000018475E+02 0.  0.
         12    1    1    2    0    0 -0.92211690963E+01 -0.63087808677E+01 -0.29864514794E+02  0.31886045842E+02  0.00000000000E+00 0. -1.
         11    1    3    3    0    0 -0.16517688039E+02  0.71895226490E+01  0.19259984885E+02  0.26371770363E+02  0.51100000000E-03 0. -1.
        -11    1    3    3    0    0  0.12469221901E+02 -0.71935893412E+01  0.11175763119E+02  0.18224349206E+02  0.51100000000E-03 0.  1.
         12    1    3    3    0    0  0.13269635234E+02  0.63128475599E+01 -0.57123320965E+00  0.14705834588E+02  0.00000000000E+00 0. -1.
</event>
<event>
 7    1  0.7755875E-012  0.5930196E+02  0.7816164E-02  0.1266605E+00
        -11   -1    0    0    0    0  0.00000000000E+00  0.00000000000E+00  0.45593999997E+02  0.45594000000E+02  0.51100000000E-03 0.  1.
         11   -1    0    0    0    0 -0.00000000000E+00 -0.00000000000E+00 -0.45593999997E+02  0.45594000000E+02  0.51100000000E-03 0. -1.
    9900012    2    1    2    0    0  0.29960698929E+02 -0.57437204810E+01  0.92782549449E+01  0.59301955716E+02  0.50000021316E+02 0.  0.
         12    1    1    2    0    0 -0.29960698929E+02  0.57437204810E+01 -0.92782549449E+01  0.31886044284E+02  0.00000000000E+00 0. -1.
         11    1    3    3    0    0 -0.61485114890E+01  0.10311547510E+02 -0.55610539404E+01  0.13230930684E+02  0.51100000000E-03 0. -1.
        -11    1    3    3    0    0  0.36341062388E+02 -0.16887215309E+02  0.17161667566E+02  0.43593275747E+02  0.51100000000E-03 0.  1.
         12    1    3    3    0    0 -0.23185197031E+00  0.83194731879E+00 -0.23223586810E+01  0.24777492852E+01  0.00000000000E+00 0. -1.
</event>
<event>
 7    1  0.7755875E-012  0.5930195E+02  0.7816164E-02  0.1266605E+00
        -11   -1    0    0    0    0  0.00000000000E+00  0.00000000000E+00  0.45593999997E+02  0.45594000000E+02  0.51100000000E-03 0.  1.
         11   -1    0    0    0    0 -0.00000000000E+00 -0.00000000000E+00 -0.45593999997E+02  0.45594000000E+02  0.51100000000E-03 0. -1.
    9900012    2    1    2    0    0 -0.29545423437E+02  0.11719573952E+02  0.25376613437E+01  0.59301949997E+02  0.50000010887E+02 0.  0.
         12    1    1    2    0    0  0.29545423437E+02 -0.11719573952E+02 -0.25376613437E+01  0.31886050003E+02  0.00000000000E+00 0. -1.
         11    1    3    3    0    0 -0.19319580881E+02 -0.54236295982E+01  0.22914392322E+02  0.30458682492E+02  0.51100000000E-03 0. -1.
        -11    1    3    3    0    0 -0.72284329188E+01  0.88568585920E+01 -0.96442592258E+01  0.14956801893E+02  0.51100000000E-03 0.  1.
         12    1    3    3    0    0 -0.29974096372E+01  0.82863449585E+01 -0.10732471752E+02  0.13886465613E+02  0.00000000000E+00 0. -1.
</event>
<event>
 7    1  0.7755875E-012  0.5930192E+02  0.7816164E-02  0.1266605E+00
        -11   -1    0    0    0    0  0.00000000000E+00  0.00000000000E+00  0.45593999997E+02  0.45594000000E+02  0.51100000000E-03 0. -1.
         11   -1    0    0    0    0 -0.00000000000E+00 -0.00000000000E+00 -0.45593999997E+02  0.45594000000E+02  0.51100000000E-03 0.  1.
    9900012    2    1    2    0    0 -0.29115706754E+02  0.11851515516E+02 -0.53422402324E+01  0.59301916350E+02  0.49999949523E+02 0.  0.
         12    1    1    2    0    0  0.29115706754E+02 -0.11851515516E+02  0.53422402324E+01  0.31886083650E+02  0.00000000000E+00 0. -1.
         11    1    3    3    0    0 -0.25019483821E+01 -0.14943382949E+02  0.40866523329E+01  0.15692838086E+02  0.51100000000E-03 0. -1.
        -11    1    3    3    0    0 -0.29318275829E+02  0.25294087184E+02 -0.10838819478E+02  0.40209851429E+02  0.51100000000E-03 0.  1.
        -12    1    3    3    0    0  0.27045174566E+01  0.15008112803E+01  0.14099269124E+01  0.33992268342E+01  0.00000000000E+00 0.  1.
</event>
<event>
 7    1  0.7755875E-012  0.5930195E+02  0.7816164E-02  0.1266605E+00
        -11   -1    0    0    0    0  0.00000000000E+00  0.00000000000E+00  0.45593999997E+02  0.45594000000E+02  0.51100000000E-03 0. -1.
         11   -1    0    0    0    0 -0.00000000000E+00 -0.00000000000E+00 -0.45593999997E+02  0.45594000000E+02  0.51100000000E-03 0.  1.
    9900012    2    1    2    0    0 -0.20651579400E+02 -0.22613255549E+02 -0.88810479194E+01  0.59301951791E+02  0.50000014158E+02 0.  0.
         12    1    1    2    0    0  0.20651579400E+02  0.22613255549E+02  0.88810479194E+01  0.31886048209E+02  0.00000000000E+00 0. -1.
         11    1    3    3    0    0  0.53991705223E+01 -0.25061833302E+02 -0.66118287570E+01  0.26475702267E+02  0.51100000000E-03 0. -1.
        -11    1    3    3    0    0 -0.20055306012E+02 -0.24347321685E+01 -0.94230174840E+01  0.22292072105E+02  0.51100000000E-03 0.  1.
         12    1    3    3    0    0 -0.59954439097E+01  0.48833099209E+01  0.71537983216E+01  0.10534177419E+02  0.00000000000E+00 0. -1.
</event>
<event>
 7    1  0.7755875E-012  0.5930194E+02  0.7816164E-02  0.1266605E+00
        -11   -1    0    0    0    0  0.00000000000E+00  0.00000000000E+00  0.45593999997E+02  0.45594000000E+02  0.51100000000E-03 0.  1.
         11   -1    0    0    0    0 -0.00000000000E+00 -0.00000000000E+00 -0.45593999997E+02  0.45594000000E+02  0.51100000000E-03 0. -1.
    9900012    2    1    2    0    0 -0.31478681128E+02 -0.50555907200E+01 -0.50449279396E+00  0.59301939157E+02  0.49999991117E+02 0.  0.
         12    1    1    2    0    0  0.31478681128E+02  0.50555907200E+01  0.50449279396E+00  0.31886060843E+02  0.00000000000E+00 0. -1.
         11    1    3    3    0    0  0.12814697518E+01 -0.63633081474E+01  0.11630323775E+02  0.13319094814E+02  0.51100000000E-03 0. -1.
        -11    1    3    3    0    0 -0.25197505683E+02 -0.12694913993E+02 -0.55263605184E+01  0.28750926851E+02  0.51100000000E-03 0.  1.
         12    1    3    3    0    0 -0.75626451969E+01  0.14002631420E+02 -0.66084560506E+01  0.17231917492E+02  0.00000000000E+00 0. -1.
</event>
<event>
 7    1  0.7755875E-012  0.5930192E+02  0.7816164E-02  0.1266605E+00
        -11   -1    0    0    0    0  0.00000000000E+00  0.00000000000E+00  0.45593999997E+02  0.45594000000E+02  0.51100000000E-03 0.  1.
         11   -1    0    0    0    0 -0.00000000000E+00 -0.00000000000E+00 -0.45593999997E+02  0.45594000000E+02  0.51100000000E-03 0. -1.
    9900012    2    1    2    0    0  0.15840815860E+02 -0.26866734549E+02 -0.66309084501E+01  0.59301924367E+02  0.49999964143E+02 0.  0.
         12    1    1    2    0    0 -0.15840815860E+02  0.26866734549E+02  0.66309084501E+01  0.31886075633E+02  0.00000000000E+00 0. -1.
         11    1    3    3    0    0  0.14917462509E+02 -0.20936919509E+02 -0.26015941922E+02  0.36574779843E+02  0.51100000000E-03 0. -1.
        -11    1    3    3    0    0  0.25703332933E+01  0.10549056867E+01  0.12418724790E+02  0.12725728463E+02  0.51100000000E-03 0.  1.
         12    1    3    3    0    0 -0.16469799424E+01 -0.69847207264E+01  0.69663086818E+01  0.10001416060E+02  0.00000000000E+00 0. -1.
</event>
<event>
 7    1  0.7755875E-012  0.5930195E+02  0.7816164E-02  0.1266605E+00
        -11   -1    0    0    0    0  0.00000000000E+00  0.00000000000E+00  0.45593999997E+02  0.45594000000E+02  0.51100000000E-03 0.  1.
         11   -1    0    0    0    0 -0.00000000000E+00 -0.00000000000E+00 -0.45593999997E+02  0.45594000000E+02  0.51100000000E-03 0. -1.
    9900012    2    1    2    0    0  0.28916022874E+02  0.45313386214E+01  0.12651107470E+02  0.59301954012E+02  0.50000018208E+02 0.  0.
         12    1    1    2    0    0 -0.28916022874E+02 -0.45313386214E+01 -0.12651107470E+02  0.31886045988E+02  0.00000000000E+00 0. -1.
         11    1    3    3    0    0  0.10344601862E+02 -0.96004379137E+01 -0.13883150462E+02  0.19796996308E+02  0.51100000000E-03 0. -1.
        -11    1    3    3    0    0  0.12158141984E+02  0.14626961846E+02  0.94266664601E+01  0.21228058559E+02  0.51100000000E-03 0.  1.
        -12    1    3    3    0    0  0.64132790277E+01 -0.49518531127E+00  0.17107591472E+02  0.18276899145E+02  0.00000000000E+00 0.  1.
</event>
<event>
 7    1  0.7755875E-012  0.5930195E+02  0.7816164E-02  0.1266605E+00
        -11   -1    0    0    0    0  0.00000000000E+00  0.00000000000E+00  0.45593999997E+02  0.45594000000E+02  0.51100000000E-03 0. -1.
         11   -1    0    0    0    0 -0.00000000000E+00 -0.00000000000E+00 -0.45593999997E+02  0.45594000000E+02  0.51100000000E-03 0.  1.
    9900012    2    1    2    0    0 -0.16555820770E+02 -0.16910110045E+01 -0.27198624994E+02  0.59301954131E+02  0.50000018426E+02 0.  0.
         12    1    1    2    0    0  0.16555820770E+02  0.16910110045E+01  0.27198624994E+02  0.31886045869E+02  0.00000000000E+00 0. -1.
         11    1    3    3    0    0 -0.24832636793E+02  0.12361676089E+02 -0.24433591424E+02  0.36965812258E+02  0.51100000000E-03 0. -1.
        -11    1    3    3    0    0 -0.34290322015E+01 -0.76667471443E+01 -0.32179358360E+01  0.89940193973E+01  0.51100000000E-03 0.  1.
         12    1    3    3    0    0  0.11705848224E+02 -0.63859399489E+01  0.45290226564E+00  0.13342122475E+02  0.00000000000E+00 0. -1.
</event>
<event>
 7    1  0.7755875E-012  0.5930194E+02  0.7816164E-02  0.1266605E+00
        -11   -1    0    0    0    0  0.00000000000E+00  0.00000000000E+00  0.45593999997E+02  0.45594000000E+02  0.51100000000E-03 0.  1.
         11   -1    0    0    0    0 -0.00000000000E+00 -0.00000000000E+00 -0.45593999997E+02  0.45594000000E+02  0.51100000000E-03 0. -1.
    9900012    2    1    2    0    0  0.15936288342E+02 -0.23955808674E+02 -0.13743168774E+02  0.59301941239E+02  0.49999994914E+02 0.  0.
         12    1    1    2    0    0 -0.15936288342E+02  0.23955808674E+02  0.13743168774E+02  0.31886058761E+02  0.00000000000E+00 0. -1.
         11    1    3    3    0    0  0.73841257977E+01  0.14773283343E+01 -0.56120364468E+01  0.93916327731E+01  0.51100000000E-03 0. -1.
        -11    1    3    3    0    0 -0.17131071552E+01 -0.10376254017E+02  0.16320179998E+02  0.19415191449E+02  0.51100000000E-03 0.  1.
        -12    1    3    3    0    0  0.10265269700E+02 -0.15056882991E+02 -0.24451312326E+02  0.30495117017E+02  0.00000000000E+00 0.  1.
</event>
<event>
 7    1  0.7755875E-012  0.5930192E+02  0.7816164E-02  0.1266605E+00
        -11   -1    0    0    0    0  0.00000000000E+00  0.00000000000E+00  0.45593999997E+02  0.45594000000E+02  0.51100000000E-03 0.  1.
         11   -1    0    0    0    0 -0.00000000000E+00 -0.00000000000E+00 -0.45593999997E+02  0.45594000000E+02  0.51100000000E-03 0. -1.
    9900012    2    1    2    0    0 -0.10031566295E+02 -0.11895825658E+02  0.27831256397E+02  0.59301924308E+02  0.49999964035E+02 0.  0.
         12    1    1    2    0    0  0.10031566295E+02  0.11895825658E+02 -0.27831256397E+02  0.31886075692E+02  0.00000000000E+00 0. -1.
         11    1    3    3    0    0  0.11173149141E+02 -0.23937770858E+02  0.19056335088E+02  0.32572995605E+02  0.51100000000E-03 0. -1.
        -11    1    3    3    0    0 -0.19480300740E+02  0.89909298684E+01  0.60561976318E+01  0.22293417567E+02  0.51100000000E-03 0.  1.
         12    1    3    3    0    0 -0.17244146960E+01  0.30510153322E+01  0.27187236775E+01  0.44355111358E+01  0.00000000000E+00 0. -1.
</event>
<event>
 7    1  0.7755875E-012  0.5930198E+02  0.7816164E-02  0.1266605E+00
        -11   -1    0    0    0    0  0.00000000000E+00  0.00000000000E+00  0.45593999997E+02  0.45594000000E+02  0.51100000000E-03 0.  1.
         11   -1    0    0    0    0 -0.00000000000E+00 -0.00000000000E+00 -0.45593999997E+02  0.45594000000E+02  0.51100000000E-03 0. -1.
    9900012    2    1    2    0    0 -0.13805046785E+01  0.21100824140E+02  0.23865620749E+02  0.59301977572E+02  0.50000061177E+02 0.  0.
         12    1    1    2    0    0  0.13805046785E+01 -0.21100824140E+02 -0.23865620749E+02  0.31886022428E+02  0.00000000000E+00 0. -1.
         11    1    3    3    0    0 -0.19054125344E+02  0.10280046131E+02  0.13941295368E+02  0.25750704027E+02  0.51100000000E-03 0.  1.
        -11    1    3    3    0    0  0.11578973231E+02  0.15702786433E+02 -0.16600091574E+01  0.19580749564E+02  0.51100000000E-03 0. -1.
        -12    1    3    3    0    0  0.60946474347E+01 -0.48820084245E+01  0.11584334538E+02  0.13970523981E+02  0.00000000000E+00 0.  1.
</event>
<event>
 7    1  0.7755875E-012  0.5930194E+02  0.7816164E-02  0.1266605E+00
        -11   -1    0    0    0    0  0.00000000000E+00  0.00000000000E+00  0.45593999997E+02  0.45594000000E+02  0.51100000000E-03 0. -1.
         11   -1    0    0    0    0 -0.00000000000E+00 -0.00000000000E+00 -0.45593999997E+02  0.45594000000E+02  0.51100000000E-03 0.  1.
    9900012    2    1    2    0    0 -0.30400511956E+02  0.50583630453E+00  0.96059217906E+01  0.59301941432E+02  0.49999995266E+02 0.  0.
         12    1    1    2    0    0  0.30400511956E+02 -0.50583630453E+00 -0.96059217906E+01  0.31886058568E+02  0.00000000000E+00 0. -1.
         11    1    3    3    0    0 -0.87567225447E+01 -0.17695403640E+02  0.46420113246E+01  0.20281907433E+02  0.51100000000E-03 0. -1.
        -11    1    3    3    0    0  0.27842668545E+01  0.12364304724E+02 -0.22869456873E+01  0.12878598295E+02  0.51100000000E-03 0.  1.
        -12    1    3    3    0    0 -0.24428056266E+02  0.58369352212E+01  0.72508561532E+01  0.26141435704E+02  0.00000000000E+00 0.  1.
</event>
<event>
 7    1  0.7755875E-012  0.5930193E+02  0.7816164E-02  0.1266605E+00
        -11   -1    0    0    0    0  0.00000000000E+00  0.00000000000E+00  0.45593999997E+02  0.45594000000E+02  0.51100000000E-03 0. -1.
         11   -1    0    0    0    0 -0.00000000000E+00 -0.00000000000E+00 -0.45593999997E+02  0.45594000000E+02  0.51100000000E-03 0.  1.
    9900012    2    1    2    0    0 -0.15731389421E+02 -0.89248006004E+01 -0.26260095188E+02  0.59301932852E+02  0.49999979619E+02 0.  0.
         12    1    1    2    0    0  0.15731389421E+02  0.89248006004E+01  0.26260095188E+02  0.31886067148E+02  0.00000000000E+00 0. -1.
         11    1    3    3    0    0 -0.62173131709E+01 -0.21875070175E+01  0.66306794192E+01  0.93491218752E+01  0.51100000000E-03 0. -1.
        -11    1    3    3    0    0 -0.22826696500E+02 -0.31825895083E+01 -0.25289618902E+02  0.34216250139E+02  0.51100000000E-03 0.  1.
        -12    1    3    3    0    0  0.13312620250E+02 -0.35547040746E+01 -0.76011557047E+01  0.15736560838E+02  0.00000000000E+00 0.  1.
</event>
<event>
 7    1  0.7755875E-012  0.5930193E+02  0.7816164E-02  0.1266605E+00
        -11   -1    0    0    0    0  0.00000000000E+00  0.00000000000E+00  0.45593999997E+02  0.45594000000E+02  0.51100000000E-03 0.  1.
         11   -1    0    0    0    0 -0.00000000000E+00 -0.00000000000E+00 -0.45593999997E+02  0.45594000000E+02  0.51100000000E-03 0. -1.
    9900012    2    1    2    0    0  0.10076541188E+02  0.15454970707E+02  0.26006321438E+02  0.59301928486E+02  0.49999971656E+02 0.  0.
         12    1    1    2    0    0 -0.10076541188E+02 -0.15454970707E+02 -0.26006321438E+02  0.31886071514E+02  0.00000000000E+00 0. -1.
         11    1    3    3    0    0  0.75530872192E+01  0.29447483872E+02  0.16682418149E+01  0.30446452403E+02  0.51100000000E-03 0. -1.
        -11    1    3    3    0    0 -0.72954075452E-01 -0.82947387373E+01  0.18585637589E+02  0.20352737847E+02  0.51100000000E-03 0.  1.
         12    1    3    3    0    0  0.25964080441E+01 -0.56977744274E+01  0.57524420339E+01  0.85027382361E+01  0.00000000000E+00 0. -1.
</event>
<event>
 7    1  0.7755875E-012  0.5930194E+02  0.7816164E-02  0.1266605E+00
        -11   -1    0    0    0    0  0.00000000000E+00  0.00000000000E+00  0.45593999997E+02  0.45594000000E+02  0.51100000000E-03 0.  1.
         11   -1    0    0    0    0 -0.00000000000E+00 -0.00000000000E+00 -0.45593999997E+02  0.45594000000E+02  0.51100000000E-03 0. -1.
    9900012    2    1    2    0    0 -0.13185783543E+02 -0.29015523927E+02  0.97736257183E+00  0.59301941071E+02  0.49999994608E+02 0.  0.
         12    1    1    2    0    0  0.13185783543E+02  0.29015523927E+02 -0.97736257183E+00  0.31886058929E+02  0.00000000000E+00 0. -1.
         11    1    3    3    0    0 -0.23167478885E+02 -0.22681309753E+02 -0.11902886247E+02  0.34537698118E+02  0.51100000000E-03 0. -1.
        -11    1    3    3    0    0  0.60533827215E+01 -0.12167297050E+02  0.57715346199E+01  0.14764727292E+02  0.51100000000E-03 0.  1.
         12    1    3    3    0    0  0.39283126205E+01  0.58330828758E+01  0.71087141994E+01  0.99995156608E+01  0.00000000000E+00 0. -1.
</event>
<event>
 7    1  0.7755875E-012  0.5930192E+02  0.7816164E-02  0.1266605E+00
        -11   -1    0    0    0    0  0.00000000000E+00  0.00000000000E+00  0.45593999997E+02  0.45594000000E+02  0.51100000000E-03 0.  1.
         11   -1    0    0    0    0 -0.00000000000E+00 -0.00000000000E+00 -0.45593999997E+02  0.45594000000E+02  0.51100000000E-03 0. -1.
    9900012    2    1    2    0    0  0.16264111603E+02 -0.16068362164E+02  0.22226297525E+02  0.59301923250E+02  0.49999962106E+02 0.  0.
         12    1    1    2    0    0 -0.16264111603E+02  0.16068362164E+02 -0.22226297525E+02  0.31886076750E+02  0.00000000000E+00 0. -1.
         11    1    3    3    0    0  0.83679281797E+00  0.13032328449E+01 -0.11763733724E+01  0.19448631419E+01  0.51100000000E-03 0. -1.
        -11    1    3    3    0    0  0.20513840624E+02 -0.13625320047E+02  0.35794546047E+02  0.43447859907E+02  0.51100000000E-03 0.  1.
        -12    1    3    3    0    0 -0.50865218394E+01 -0.37462749612E+01 -0.12391875150E+02  0.13909200201E+02  0.00000000000E+00 0.  1.
</event>
<event>
 7    1  0.7755875E-012  0.5930194E+02  0.7816164E-02  0.1266605E+00
        -11   -1    0    0    0    0  0.00000000000E+00  0.00000000000E+00  0.45593999997E+02  0.45594000000E+02  0.51100000000E-03 0.  1.
         11   -1    0    0    0    0 -0.00000000000E+00 -0.00000000000E+00 -0.45593999997E+02  0.45594000000E+02  0.51100000000E-03 0. -1.
    9900012    2    1    2    0    0  0.67358669710E+01  0.82192000854E+01  0.30063161470E+02  0.59301939857E+02  0.49999992393E+02 0.  0.
         12    1    1    2    0    0 -0.67358669710E+01 -0.82192000854E+01 -0.30063161470E+02  0.31886060143E+02  0.00000000000E+00 0. -1.
         11    1    3    3    0    0  0.85949578951E+01  0.22981307025E+02  0.49146906470E+01  0.25023348262E+02  0.51100000000E-03 0. -1.
        -11    1    3    3    0    0 -0.86877663711E+01 -0.93639675238E+01  0.21130712266E+02  0.24691459525E+02  0.51100000000E-03 0.  1.
         12    1    3    3    0    0  0.68286754470E+01 -0.53981394160E+01  0.40177585568E+01  0.95871320704E+01  0.00000000000E+00 0. -1.
</event>
<event>
 7    1  0.7755875E-012  0.5930195E+02  0.7816164E-02  0.1266605E+00
        -11   -1    0    0    0    0  0.00000000000E+00  0.00000000000E+00  0.45593999997E+02  0.45594000000E+02  0.51100000000E-03 0.  1.
         11   -1    0    0    0    0 -0.00000000000E+00 -0.00000000000E+00 -0.45593999997E+02  0.45594000000E+02  0.51100000000E-03 0. -1.
    9900012    2    1    2    0    0 -0.27840484053E+02  0.95521469558E+01  0.12263113039E+02  0.59301952814E+02  0.50000016024E+02 0.  0.
         12    1    1    2    0    0  0.27840484053E+02 -0.95521469558E+01 -0.12263113039E+02  0.31886047186E+02  0.00000000000E+00 0. -1.
         11    1    3    3    0    0 -0.24274865321E+01  0.10849083004E+02  0.39232664805E+01  0.11789288063E+02  0.51100000000E-03 0. -1.
        -11    1    3    3    0    0 -0.12161878171E+02 -0.19374434822E+02  0.10149252778E+02  0.25025733506E+02  0.51100000000E-03 0.  1.
        -12    1    3    3    0    0 -0.13251119350E+02  0.18077498774E+02 -0.18094062190E+01  0.22486931245E+02  0.00000000000E+00 0.  1.
</event>
<event>
 7    1  0.7755875E-012  0.5930192E+02  0.7816164E-02  0.1266605E+00
        -11   -1    0    0    0    0  0.00000000000E+00  0.00000000000E+00  0.45593999997E+02  0.45594000000E+02  0.51100000000E-03 0.  1.
         11   -1    0    0    0    0 -0.00000000000E+00 -0.00000000000E+00 -0.45593999997E+02  0.45594000000E+02  0.51100000000E-03 0. -1.
    9900012    2    1    2    0    0 -0.24299930561E+01  0.13866287802E+02  0.28610200443E+02  0.59301915683E+02  0.49999948307E+02 0.  0.
         12    1    1    2    0    0  0.24299930561E+01 -0.13866287802E+02 -0.28610200443E+02  0.31886084317E+02  0.00000000000E+00 0. -1.
         11    1    3    3    0    0 -0.36859043288E+01  0.10372852156E+02 -0.36821113614E+01  0.11607751587E+02  0.51100000000E-03 0. -1.
        -11    1    3    3    0    0 -0.13060708075E+02 -0.91797153734E+01  0.14000594288E+02  0.21233603331E+02  0.51100000000E-03 0.  1.
        -12    1    3    3    0    0  0.14316619347E+02  0.12673151019E+02  0.18291717516E+02  0.26460560765E+02  0.00000000000E+00 0.  1.
</event>
<event>
 7    1  0.7755875E-012  0.5930171E+02  0.7816164E-02  0.1266606E+00
        -11   -1    0    0    0    0  0.00000000000E+00  0.00000000000E+00  0.45593999997E+02  0.45594000000E+02  0.51100000000E-03 0.  1.
         11   -1    0    0    0    0 -0.00000000000E+00 -0.00000000000E+00 -0.45593999997E+02  0.45594000000E+02  0.51100000000E-03 0. -1.
    9900012    2    1    2    0    0 -0.43082482311E+01 -0.65121970394E+01  0.30915459030E+02  0.59301712663E+02  0.49999578045E+02 0.  0.
         12    1    1    2    0    0  0.43082482311E+01  0.65121970394E+01 -0.30915459030E+02  0.31886287337E+02  0.00000000000E+00 0. -1.
         11    1    3    3    0    0  0.66288584242E+01 -0.20559735823E+02  0.33996614150E+01  0.21867834806E+02  0.51100000000E-03 0. -1.
        -11    1    3    3    0    0 -0.14042906416E+02  0.51402289665E+01  0.11572662539E+02  0.18909037335E+02  0.51100000000E-03 0.  1.
        -12    1    3    3    0    0  0.31057997602E+01  0.89073098170E+01  0.15943135075E+02  0.18524840522E+02  0.00000000000E+00 0.  1.
</event>
<event>
 7    1  0.7755875E-012  0.5930194E+02  0.7816164E-02  0.1266605E+00
        -11   -1    0    0    0    0  0.00000000000E+00  0.00000000000E+00  0.45593999997E+02  0.45594000000E+02  0.51100000000E-03 0.  1.
         11   -1    0    0    0    0 -0.00000000000E+00 -0.00000000000E+00 -0.45593999997E+02  0.45594000000E+02  0.51100000000E-03 0. -1.
    9900012    2    1    2    0    0  0.38032487596E+01  0.15499042915E+02  0.27604997600E+02  0.59301938391E+02  0.49999989720E+02 0.  0.
         12    1    1    2    0    0 -0.38032487596E+01 -0.15499042915E+02 -0.27604997600E+02  0.31886061609E+02  0.00000000000E+00 0. -1.
         11    1    3    3    0    0 -0.14158855661E+01 -0.43091469255E+01 -0.79950662501E+01  0.91920924586E+01  0.51100000000E-03 0. -1.
        -11    1    3    3    0    0  0.35106452512E+01  0.24823596445E+02  0.15848376123E+02  0.29659848222E+02  0.51100000000E-03 0.  1.
        -12    1    3    3    0    0  0.17084890746E+01 -0.50154066039E+01  0.19751687727E+02  0.20449997711E+02  0.00000000000E+00 0.  1.
</event>
<event>
 7    1  0.7755875E-012  0.5930192E+02  0.7816164E-02  0.1266605E+00
        -11   -1    0    0    0    0  0.00000000000E+00  0.00000000000E+00  0.45593999997E+02  0.45594000000E+02  0.51100000000E-03 0.  1.
         11   -1    0    0    0    0 -0.00000000000E+00 -0.00000000000E+00 -0.45593999997E+02  0.45594000000E+02  0.51100000000E-03 0. -1.
    9900012    2    1    2    0    0 -0.30545029052E+02  0.86308491487E+01  0.30383958887E+01  0.59301918297E+02  0.49999953073E+02 0.  0.
         12    1    1    2    0    0  0.30545029052E+02 -0.86308491487E+01 -0.30383958887E+01  0.31886081703E+02  0.00000000000E+00 0. -1.
         11    1    3    3    0    0 -0.31229947088E+00  0.32452850697E+01 -0.11787337882E+02  0.12229911723E+02  0.51100000000E-03 0. -1.
        -11    1    3    3    0    0 -0.32955861866E+02  0.12608772752E+02  0.16834208143E+02  0.39095531019E+02  0.51100000000E-03 0.  1.
         12    1    3    3    0    0  0.27231322845E+01 -0.72232086728E+01 -0.20084743717E+01  0.79764755545E+01  0.00000000000E+00 0. -1.
</event>
<event>
 7    1  0.7755875E-012  0.5930196E+02  0.7816164E-02  0.1266605E+00
        -11   -1    0    0    0    0  0.00000000000E+00  0.00000000000E+00  0.45593999997E+02  0.45594000000E+02  0.51100000000E-03 0. -1.
         11   -1    0    0    0    0 -0.00000000000E+00 -0.00000000000E+00 -0.45593999997E+02  0.45594000000E+02  0.51100000000E-03 0.  1.
    9900012    2    1    2    0    0 -0.26273625353E+02 -0.17880988610E+02 -0.25858517369E+01  0.59301956469E+02  0.50000022689E+02 0.  0.
         12    1    1    2    0    0  0.26273625353E+02  0.17880988610E+02  0.25858517369E+01  0.31886043531E+02  0.00000000000E+00 0. -1.
         11    1    3    3    0    0 -0.12316836054E+02 -0.12580490422E+02  0.14460923369E+01  0.17665343838E+02  0.51100000000E-03 0. -1.
        -11    1    3    3    0    0  0.10577798723E+02 -0.10885745475E+02 -0.61677303287E+01  0.16383838929E+02  0.51100000000E-03 0.  1.
        -12    1    3    3    0    0 -0.24534588023E+02  0.55852472864E+01  0.21357862549E+01  0.25252773702E+02  0.00000000000E+00 0.  1.
</event>
<event>
 7    1  0.7755875E-012  0.5930196E+02  0.7816164E-02  0.1266605E+00
        -11   -1    0    0    0    0  0.00000000000E+00  0.00000000000E+00  0.45593999997E+02  0.45594000000E+02  0.51100000000E-03 0.  1.
         11   -1    0    0    0    0 -0.00000000000E+00 -0.00000000000E+00 -0.45593999997E+02  0.45594000000E+02  0.51100000000E-03 0. -1.
    9900012    2    1    2    0    0  0.17045618462E+02 -0.24989478221E+02 -0.10084271884E+02  0.59301958070E+02  0.50000025610E+02 0.  0.
         12    1    1    2    0    0 -0.17045618462E+02  0.24989478221E+02  0.10084271884E+02  0.31886041930E+02  0.00000000000E+00 0. -1.
         11    1    3    3    0    0  0.88213489125E+01 -0.39330001231E+01 -0.20353985204E+02  0.22529300933E+02  0.51100000000E-03 0. -1.
        -11    1    3    3    0    0  0.60340437961E+01 -0.23916844951E+02  0.16429272425E+02  0.29636905196E+02  0.51100000000E-03 0.  1.
        -12    1    3    3    0    0  0.21902257536E+01  0.28603668530E+01 -0.61595591056E+01  0.71357519408E+01  0.00000000000E+00 0.  1.
</event>
<event>
 7    1  0.7755875E-012  0.5930192E+02  0.7816164E-02  0.1266605E+00
        -11   -1    0    0    0    0  0.00000000000E+00  0.00000000000E+00  0.45593999997E+02  0.45594000000E+02  0.51100000000E-03 0.  1.
         11   -1    0    0    0    0 -0.00000000000E+00 -0.00000000000E+00 -0.45593999997E+02  0.45594000000E+02  0.51100000000E-03 0. -1.
    9900012    2    1    2    0    0  0.14353729884E+02 -0.49270067872E+01  0.28043128074E+02  0.59301921696E+02  0.49999959272E+02 0.  0.
         12    1    1    2    0    0 -0.14353729884E+02  0.49270067872E+01 -0.28043128074E+02  0.31886078304E+02  0.00000000000E+00 0. -1.
         11    1    3    3    0    0  0.81917988209E+01  0.15952498075E+02  0.69405480292E+01  0.19229117764E+02  0.51100000000E-03 0. -1.
        -11    1    3    3    0    0  0.12355968683E+02 -0.19503541879E+02  0.23817589036E+02  0.33171307718E+02  0.51100000000E-03 0.  1.
        -12    1    3    3    0    0 -0.61940376204E+01 -0.13759629829E+01 -0.27150089913E+01  0.69014962143E+01  0.00000000000E+00 0.  1.
</event>
<event>
 7    1  0.7755875E-012  0.5930194E+02  0.7816164E-02  0.1266605E+00
        -11   -1    0    0    0    0  0.00000000000E+00  0.00000000000E+00  0.45593999997E+02  0.45594000000E+02  0.51100000000E-03 0.  1.
         11   -1    0    0    0    0 -0.00000000000E+00 -0.00000000000E+00 -0.45593999997E+02  0.45594000000E+02  0.51100000000E-03 0. -1.
    9900012    2    1    2    0    0 -0.19038921485E+02  0.12444682535E+02  0.22346596355E+02  0.59301936848E+02  0.49999986905E+02 0.  0.
         12    1    1    2    0    0  0.19038921485E+02 -0.12444682535E+02 -0.22346596355E+02  0.31886063152E+02  0.00000000000E+00 0. -1.
         11    1    3    3    0    0 -0.11519028652E+01 -0.56303037875E+00 -0.49671060266E+01  0.51299148101E+01  0.51100000000E-03 0. -1.
        -11    1    3    3    0    0 -0.17895724248E+02  0.26796826231E+02  0.14451618915E+02  0.35315380954E+02  0.51100000000E-03 0.  1.
        -12    1    3    3    0    0  0.87056283574E-02 -0.13789113317E+02  0.12862083466E+02  0.18856641084E+02  0.00000000000E+00 0.  1.
</event>
<event>
 7    1  0.7755875E-012  0.5930196E+02  0.7816164E-02  0.1266605E+00
        -11   -1    0    0    0    0  0.00000000000E+00  0.00000000000E+00  0.45593999997E+02  0.45594000000E+02  0.51100000000E-03 0.  1.
         11   -1    0    0    0    0 -0.00000000000E+00 -0.00000000000E+00 -0.45593999997E+02  0.45594000000E+02  0.51100000000E-03 0. -1.
    9900012    2    1    2    0    0 -0.21133491039E+02  0.18314272264E+02  0.15319342075E+02  0.59301964598E+02  0.50000037515E+02 0.  0.
         12    1    1    2    0    0  0.21133491039E+02 -0.18314272264E+02 -0.15319342075E+02  0.31886035402E+02  0.00000000000E+00 0. -1.
         11    1    3    3    0    0  0.44528682574E+01  0.13270889396E+02 -0.48560229323E+01  0.14816392950E+02  0.51100000000E-03 0. -1.
        -11    1    3    3    0    0 -0.14868759456E+02 -0.12254373873E+02  0.10687298955E+02  0.22033339420E+02  0.51100000000E-03 0.  1.
        -12    1    3    3    0    0 -0.10717599840E+02  0.17297756741E+02  0.94880660526E+01  0.22452232228E+02  0.00000000000E+00 0.  1.
</event>
<event>
 7    1  0.7755875E-012  0.5930198E+02  0.7816164E-02  0.1266605E+00
        -11   -1    0    0    0    0  0.00000000000E+00  0.00000000000E+00  0.45593999997E+02  0.45594000000E+02  0.51100000000E-03 0.  1.
         11   -1    0    0    0    0 -0.00000000000E+00 -0.00000000000E+00 -0.45593999997E+02  0.45594000000E+02  0.51100000000E-03 0. -1.
    9900012    2    1    2    0    0  0.23302946254E+02 -0.18954044434E+02 -0.10697426347E+02  0.59301983708E+02  0.50000072368E+02 0.  0.
         12    1    1    2    0    0 -0.23302946254E+02  0.18954044434E+02  0.10697426347E+02  0.31886016292E+02  0.00000000000E+00 0. -1.
         11    1    3    3    0    0  0.16025070353E+01 -0.13026249026E+02 -0.14324560868E+02  0.19427924150E+02  0.51100000000E-03 0. -1.
        -11    1    3    3    0    0  0.86782673218E+01  0.79760595061E+00  0.17590498963E+02  0.19630948856E+02  0.51100000000E-03 0.  1.
         12    1    3    3    0    0  0.13022171896E+02 -0.67254013592E+01 -0.13963364442E+02  0.20243110702E+02  0.00000000000E+00 0. -1.
</event>
<event>
 7    1  0.7755875E-012  0.5930194E+02  0.7816164E-02  0.1266605E+00
        -11   -1    0    0    0    0  0.00000000000E+00  0.00000000000E+00  0.45593999997E+02  0.45594000000E+02  0.51100000000E-03 0.  1.
         11   -1    0    0    0    0 -0.00000000000E+00 -0.00000000000E+00 -0.45593999997E+02  0.45594000000E+02  0.51100000000E-03 0. -1.
    9900012    2    1    2    0    0  0.89385141009E+01  0.19528640848E+02  0.23568115549E+02  0.59301938496E+02  0.49999989912E+02 0.  0.
         12    1    1    2    0    0 -0.89385141009E+01 -0.19528640848E+02 -0.23568115549E+02  0.31886061504E+02  0.00000000000E+00 0. -1.
         11    1    3    3    0    0 -0.10915773730E+02  0.17486314527E+02 -0.35952603340E+01  0.20924894480E+02  0.51100000000E-03 0. -1.
        -11    1    3    3    0    0  0.21705209105E+02 -0.28342764076E+01  0.21660651365E+02  0.30795016526E+02  0.51100000000E-03 0.  1.
        -12    1    3    3    0    0 -0.18509212743E+01  0.48766027286E+01  0.55027245179E+01  0.75820274898E+01  0.00000000000E+00 0.  1.
</event>
<event>
 7    1  0.7755875E-012  0.5930194E+02  0.7816164E-02  0.1266605E+00
        -11   -1    0    0    0    0  0.00000000000E+00  0.00000000000E+00  0.45593999997E+02  0.45594000000E+02  0.51100000000E-03 0.  1.
         11   -1    0    0    0    0 -0.00000000000E+00 -0.00000000000E+00 -0.45593999997E+02  0.45594000000E+02  0.51100000000E-03 0. -1.
    9900012    2    1    2    0    0 -0.76114966178E+01 -0.13148467541E+02  0.28033976705E+02  0.59301938322E+02  0.49999989594E+02 0.  0.
         12    1    1    2    0    0  0.76114966178E+01  0.13148467541E+02 -0.28033976705E+02  0.31886061678E+02  0.00000000000E+00 0. -1.
         11    1    3    3    0    0 -0.22942012982E+01  0.41339048318E+01  0.23959946976E+01  0.53003131612E+01  0.51100000000E-03 0. -1.
        -11    1    3    3    0    0  0.39349562549E+01 -0.29968212396E+02  0.23220449170E+02  0.38115179324E+02  0.51100000000E-03 0.  1.
        -12    1    3    3    0    0 -0.92522515744E+01  0.12685840024E+02  0.24175328374E+01  0.15886445837E+02  0.00000000000E+00 0.  1.
</event>
<event>
 7    1  0.7755875E-012  0.5930187E+02  0.7816164E-02  0.1266605E+00
        -11   -1    0    0    0    0  0.00000000000E+00  0.00000000000E+00  0.45593999997E+02  0.45594000000E+02  0.51100000000E-03 0.  1.
         11   -1    0    0    0    0 -0.00000000000E+00 -0.00000000000E+00 -0.45593999997E+02  0.45594000000E+02  0.51100000000E-03 0. -1.
    9900012    2    1    2    0    0  0.22534448403E+02  0.22156769677E+02 -0.42428168397E+01  0.59301869753E+02  0.49999864541E+02 0.  0.
         12    1    1    2    0    0 -0.22534448403E+02 -0.22156769677E+02  0.42428168397E+01  0.31886130247E+02  0.00000000000E+00 0. -1.
         11    1    3    3    0    0  0.10782608592E+02  0.34834039457E+02 -0.12198732680E+02  0.38451060222E+02  0.51100000000E-03 0. -1.
        -11    1    3    3    0    0  0.41615675760E+01 -0.25799112490E+01  0.64960209263E+01  0.81346711598E+01  0.51100000000E-03 0.  1.
         12    1    3    3    0    0  0.75902722354E+01 -0.10097358531E+02  0.14598949137E+01  0.12716138371E+02  0.00000000000E+00 0. -1.
</event>
<event>
 7    1  0.7755875E-012  0.5930192E+02  0.7816164E-02  0.1266605E+00
        -11   -1    0    0    0    0  0.00000000000E+00  0.00000000000E+00  0.45593999997E+02  0.45594000000E+02  0.51100000000E-03 0. -1.
         11   -1    0    0    0    0 -0.00000000000E+00 -0.00000000000E+00 -0.45593999997E+02  0.45594000000E+02  0.51100000000E-03 0.  1.
    9900012    2    1    2    0    0  0.14899953599E+02 -0.17925064796E+02 -0.21757885428E+02  0.59301919283E+02  0.49999954871E+02 0.  0.
         12    1    1    2    0    0 -0.14899953599E+02  0.17925064796E+02  0.21757885428E+02  0.31886080717E+02  0.00000000000E+00 0. -1.
         11    1    3    3    0    0 -0.26172843313E+01 -0.19668163848E+02 -0.10288329715E+02  0.22350314875E+02  0.51100000000E-03 0. -1.
        -11    1    3    3    0    0 -0.61153145106E+01  0.62301814110E+01  0.25688465375E+01  0.91000661960E+01  0.51100000000E-03 0.  1.
         12    1    3    3    0    0  0.23632552441E+02 -0.44870823584E+01 -0.14038402251E+02  0.27851538211E+02  0.00000000000E+00 0. -1.
</event>
<event>
 7    1  0.7755875E-012  0.5930180E+02  0.7816164E-02  0.1266605E+00
        -11   -1    0    0    0    0  0.00000000000E+00  0.00000000000E+00  0.45593999997E+02  0.45594000000E+02  0.51100000000E-03 0. -1.
         11   -1    0    0    0    0 -0.00000000000E+00 -0.00000000000E+00 -0.45593999997E+02  0.45594000000E+02  0.51100000000E-03 0.  1.
    9900012    2    1    2    0    0 -0.14536834201E+01  0.31805169698E+02 -0.17458249840E+01  0.59301797344E+02  0.49999732483E+02 0.  0.
         12    1    1    2    0    0  0.14536834201E+01 -0.31805169698E+02  0.17458249840E+01  0.31886202656E+02  0.00000000000E+00 0. -1.
         11    1    3    3    0    0  0.14519121899E+02  0.24326168914E+00 -0.61250036082E+01  0.15760068097E+02  0.51100000000E-03 0. -1.
        -11    1    3    3    0    0 -0.42342868595E+01  0.21007095508E+02 -0.86141355886E+01  0.23096116104E+02  0.51100000000E-03 0.  1.
         12    1    3    3    0    0 -0.11738518459E+02  0.10554812500E+02  0.12993314213E+02  0.20445613142E+02  0.00000000000E+00 0. -1.
</event>
<event>
 7    1  0.7755875E-012  0.5930195E+02  0.7816164E-02  0.1266605E+00
        -11   -1    0    0    0    0  0.00000000000E+00  0.00000000000E+00  0.45593999997E+02  0.45594000000E+02  0.51100000000E-03 0.  1.
         11   -1    0    0    0    0 -0.00000000000E+00 -0.00000000000E+00 -0.45593999997E+02  0.45594000000E+02  0.51100000000E-03 0. -1.
    9900012    2    1    2    0    0 -0.91913326632E+01  0.90247766375E+01  0.29168351287E+02  0.59301954364E+02  0.50000018851E+02 0.  0.
         12    1    1    2    0    0  0.91913326632E+01 -0.90247766375E+01 -0.29168351287E+02  0.31886045636E+02  0.00000000000E+00 0. -1.
         11    1    3    3    0    0 -0.14883023115E+02 -0.12499652870E+02  0.10474840552E+02  0.22078677129E+02  0.51100000000E-03 0. -1.
        -11    1    3    3    0    0  0.88672292291E+01  0.17716202443E+01  0.14011993255E+02  0.16676400923E+02  0.51100000000E-03 0.  1.
         12    1    3    3    0    0 -0.31755387773E+01  0.19752809263E+02  0.46815174799E+01  0.20546876313E+02  0.00000000000E+00 0. -1.
</event>
<event>
 7    1  0.7755875E-012  0.5930188E+02  0.7816164E-02  0.1266605E+00
        -11   -1    0    0    0    0  0.00000000000E+00  0.00000000000E+00  0.45593999997E+02  0.45594000000E+02  0.51100000000E-03 0.  1.
         11   -1    0    0    0    0 -0.00000000000E+00 -0.00000000000E+00 -0.45593999997E+02  0.45594000000E+02  0.51100000000E-03 0. -1.
    9900012    2    1    2    0    0  0.24683444285E+00 -0.27791532795E+02  0.15629923155E+02  0.59301878879E+02  0.49999881184E+02 0.  0.
         12    1    1    2    0    0 -0.24683444285E+00  0.27791532795E+02 -0.15629923155E+02  0.31886121121E+02  0.00000000000E+00 0. -1.
         11    1    3    3    0    0  0.56251046919E+01 -0.54438339691E+01  0.17883852832E+00  0.78300137011E+01  0.51100000000E-03 0. -1.
        -11    1    3    3    0    0 -0.17332931195E+02 -0.30157648056E+02  0.10072688992E+02  0.36212888642E+02  0.51100000000E-03 0.  1.
        -12    1    3    3    0    0  0.11954660946E+02  0.78099492297E+01  0.53783956349E+01  0.15258976535E+02  0.00000000000E+00 0.  1.
</event>
<event>
 7    1  0.7755875E-012  0.5930193E+02  0.7816164E-02  0.1266605E+00
        -11   -1    0    0    0    0  0.00000000000E+00  0.00000000000E+00  0.45593999997E+02  0.45594000000E+02  0.51100000000E-03 0. -1.
         11   -1    0    0    0    0 -0.00000000000E+00 -0.00000000000E+00 -0.45593999997E+02  0.45594000000E+02  0.51100000000E-03 0.  1.
    9900012    2    1    2    0    0  0.23248864376E+02 -0.75981108861E+01 -0.20456792400E+02  0.59301931897E+02  0.49999977876E+02 0.  0.
         12    1    1    2    0    0 -0.23248864376E+02  0.75981108861E+01  0.20456792400E+02  0.31886068103E+02  0.00000000000E+00 0. -1.
         11    1    3    3    0    0  0.41326184786E+01 -0.10389181878E+02  0.14872074828E+02  0.18606242113E+02  0.51100000000E-03 0. -1.
        -11    1    3    3    0    0  0.58179824739E+01 -0.82005966879E+00 -0.66219502762E+01  0.88527760419E+01  0.51100000000E-03 0.  1.
         12    1    3    3    0    0  0.13298263423E+02  0.36111306609E+01 -0.28706916952E+02  0.31842913742E+02  0.00000000000E+00 0. -1.
</event>
<event>
 7    1  0.7755875E-012  0.5930186E+02  0.7816164E-02  0.1266605E+00
        -11   -1    0    0    0    0  0.00000000000E+00  0.00000000000E+00  0.45593999997E+02  0.45594000000E+02  0.51100000000E-03 0. -1.
         11   -1    0    0    0    0 -0.00000000000E+00 -0.00000000000E+00 -0.45593999997E+02  0.45594000000E+02  0.51100000000E-03 0.  1.
    9900012    2    1    2    0    0 -0.28617362666E+02 -0.11482593370E+02 -0.81192603685E+01  0.59301862175E+02  0.49999850720E+02 0.  0.
         12    1    1    2    0    0  0.28617362666E+02  0.11482593370E+02  0.81192603685E+01  0.31886137825E+02  0.00000000000E+00 0. -1.
         11    1    3    3    0    0 -0.15049343421E+02 -0.71016148233E+01  0.11170348100E+02  0.20042264030E+02  0.51100000000E-03 0.  1.
        -11    1    3    3    0    0 -0.15298859943E+02 -0.12278541727E+02 -0.23113543584E+02  0.30315896816E+02  0.51100000000E-03 0. -1.
         12    1    3    3    0    0  0.17308406984E+01  0.78975631796E+01  0.38239351152E+01  0.89437013291E+01  0.00000000000E+00 0. -1.
</event>
<event>
 7    1  0.7755875E-012  0.5930186E+02  0.7816164E-02  0.1266605E+00
        -11   -1    0    0    0    0  0.00000000000E+00  0.00000000000E+00  0.45593999997E+02  0.45594000000E+02  0.51100000000E-03 0. -1.
         11   -1    0    0    0    0 -0.00000000000E+00 -0.00000000000E+00 -0.45593999997E+02  0.45594000000E+02  0.51100000000E-03 0.  1.
    9900012    2    1    2    0    0  0.93624108603E+01 -0.28676665396E+02 -0.10330530891E+02  0.59301862826E+02  0.49999851908E+02 0.  0.
         12    1    1    2    0    0 -0.93624108603E+01  0.28676665396E+02  0.10330530891E+02  0.31886137174E+02  0.00000000000E+00 0. -1.
         11    1    3    3    0    0 -0.33825451908E+01 -0.40419294976E+01 -0.23459162231E+01  0.57690665812E+01  0.51100000000E-03 0. -1.
        -11    1    3    3    0    0  0.19975231000E+02 -0.26615333052E+01  0.11575099895E+02  0.23239547131E+02  0.51100000000E-03 0.  1.
        -12    1    3    3    0    0 -0.72302749486E+01 -0.21973202594E+02 -0.19559714564E+02  0.30293249114E+02  0.00000000000E+00 0.  1.
</event>
<event>
 7    1  0.7755875E-012  0.5930195E+02  0.7816164E-02  0.1266605E+00
        -11   -1    0    0    0    0  0.00000000000E+00  0.00000000000E+00  0.45593999997E+02  0.45594000000E+02  0.51100000000E-03 0. -1.
         11   -1    0    0    0    0 -0.00000000000E+00 -0.00000000000E+00 -0.45593999997E+02  0.45594000000E+02  0.51100000000E-03 0.  1.
    9900012    2    1    2    0    0  0.28575714509E+02  0.48998570263E+01  0.13271778728E+02  0.59301950242E+02  0.50000011333E+02 0.  0.
         12    1    1    2    0    0 -0.28575714509E+02 -0.48998570263E+01 -0.13271778728E+02  0.31886049758E+02  0.00000000000E+00 0. -1.
         11    1    3    3    0    0 -0.18641275150E+01  0.59175429780E+01 -0.88693261406E+00  0.62672909628E+01  0.51100000000E-03 0. -1.
        -11    1    3    3    0    0  0.20315130903E+02 -0.20682777214E+02  0.79515367876E+01  0.30061749024E+02  0.51100000000E-03 0.  1.
        -12    1    3    3    0    0  0.10124711121E+02  0.19665091262E+02  0.62071745545E+01  0.22972910255E+02  0.00000000000E+00 0.  1.
</event>
<event>
 7    1  0.7755875E-012  0.5930186E+02  0.7816164E-02  0.1266605E+00
        -11   -1    0    0    0    0  0.00000000000E+00  0.00000000000E+00  0.45593999997E+02  0.45594000000E+02  0.51100000000E-03 0. -1.
         11   -1    0    0    0    0 -0.00000000000E+00 -0.00000000000E+00 -0.45593999997E+02  0.45594000000E+02  0.51100000000E-03 0.  1.
    9900012    2    1    2    0    0  0.75779713937E+01 -0.46955565611E+00 -0.30969011152E+02  0.59301862186E+02  0.49999850740E+02 0.  0.
         12    1    1    2    0    0 -0.75779713937E+01  0.46955565611E+00  0.30969011152E+02  0.31886137814E+02  0.00000000000E+00 0. -1.
         11    1    3    3    0    0  0.75220769866E+01 -0.18129911110E+02 -0.34420619632E+00  0.19631449188E+02  0.51100000000E-03 0. -1.
        -11    1    3    3    0    0 -0.74174968916E+01  0.71164825507E+01 -0.21558179335E+02  0.23883439462E+02  0.51100000000E-03 0.  1.
         12    1    3    3    0    0  0.74733912987E+01  0.10543872903E+02 -0.90666256211E+01  0.15786973537E+02  0.00000000000E+00 0. -1.
</event>
<event>
 7    1  0.7755875E-012  0.5930193E+02  0.7816164E-02  0.1266605E+00
        -11   -1    0    0    0    0  0.00000000000E+00  0.00000000000E+00  0.45593999997E+02  0.45594000000E+02  0.51100000000E-03 0.  1.
         11   -1    0    0    0    0 -0.00000000000E+00 -0.00000000000E+00 -0.45593999997E+02  0.45594000000E+02  0.51100000000E-03 0. -1.
    9900012    2    1    2    0    0 -0.30639958451E+02 -0.86321005341E+01  0.18442067700E+01  0.59301932320E+02  0.49999978647E+02 0.  0.
         12    1    1    2    0    0  0.30639958451E+02  0.86321005341E+01 -0.18442067700E+01  0.31886067680E+02  0.00000000000E+00 0. -1.
         11    1    3    3    0    0 -0.24793809486E+01  0.59709090194E+01 -0.10382272407E+02  0.12230726266E+02  0.51100000000E-03 0. -1.
        -11    1    3    3    0    0 -0.17184357250E+02 -0.24599413477E+02  0.45251778539E+01  0.30346507417E+02  0.51100000000E-03 0.  1.
        -12    1    3    3    0    0 -0.10976220252E+02  0.99964039236E+01  0.77013013229E+01  0.16724698637E+02  0.00000000000E+00 0.  1.
</event>
<event>
 7    1  0.7755875E-012  0.5930195E+02  0.7816164E-02  0.1266605E+00
        -11   -1    0    0    0    0  0.00000000000E+00  0.00000000000E+00  0.45593999997E+02  0.45594000000E+02  0.51100000000E-03 0.  1.
         11   -1    0    0    0    0 -0.00000000000E+00 -0.00000000000E+00 -0.45593999997E+02  0.45594000000E+02  0.51100000000E-03 0. -1.
    9900012    2    1    2    0    0 -0.57302989432E+01 -0.31353709755E+02  0.91036088239E+00  0.59301949785E+02  0.50000010500E+02 0.  0.
         12    1    1    2    0    0  0.57302989432E+01  0.31353709755E+02 -0.91036088239E+00  0.31886050215E+02  0.00000000000E+00 0. -1.
         11    1    3    3    0    0  0.62556248138E+01  0.52316134563E+01  0.44978914523E+01  0.93130901931E+01  0.51100000000E-03 0. -1.
        -11    1    3    3    0    0 -0.99678252196E+00 -0.33496571295E+02 -0.12227799808E+02  0.35672579838E+02  0.51100000000E-03 0.  1.
        -12    1    3    3    0    0 -0.10989141235E+02 -0.30887519159E+01  0.86402692380E+01  0.14316279754E+02  0.00000000000E+00 0.  1.
</event>
<event>
 7    1  0.7755875E-012  0.5930197E+02  0.7816164E-02  0.1266605E+00
        -11   -1    0    0    0    0  0.00000000000E+00  0.00000000000E+00  0.45593999997E+02  0.45594000000E+02  0.51100000000E-03 0. -1.
         11   -1    0    0    0    0 -0.00000000000E+00 -0.00000000000E+00 -0.45593999997E+02  0.45594000000E+02  0.51100000000E-03 0.  1.
    9900012    2    1    2    0    0  0.12518708611E+02  0.21330469819E+02 -0.20124914689E+02  0.59301965452E+02  0.50000039072E+02 0.  0.
         12    1    1    2    0    0 -0.12518708611E+02 -0.21330469819E+02  0.20124914689E+02  0.31886034548E+02  0.00000000000E+00 0. -1.
         11    1    3    3    0    0  0.70762019668E+01  0.13412579145E+02 -0.26342884082E+01  0.15391861137E+02  0.51100000000E-03 0. -1.
        -11    1    3    3    0    0 -0.52701261426E+01  0.61338765043E+01 -0.27790028209E+02  0.28942776969E+02  0.51100000000E-03 0.  1.
        -12    1    3    3    0    0  0.10712632787E+02  0.17840141694E+01  0.10299401928E+02  0.14967327346E+02  0.00000000000E+00 0.  1.
</event>
<event>
 7    1  0.7755875E-012  0.5930192E+02  0.7816164E-02  0.1266605E+00
        -11   -1    0    0    0    0  0.00000000000E+00  0.00000000000E+00  0.45593999997E+02  0.45594000000E+02  0.51100000000E-03 0. -1.
         11   -1    0    0    0    0 -0.00000000000E+00 -0.00000000000E+00 -0.45593999997E+02  0.45594000000E+02  0.51100000000E-03 0.  1.
    9900012    2    1    2    0    0 -0.39287023056E+01 -0.28356741818E+02  0.14042181825E+02  0.59301915594E+02  0.49999948144E+02 0.  0.
         12    1    1    2    0    0  0.39287023056E+01  0.28356741818E+02 -0.14042181825E+02  0.31886084406E+02  0.00000000000E+00 0. -1.
         11    1    3    3    0    0 -0.63304404368E+01 -0.79184591214E+01  0.16612643146E+02  0.19461664460E+02  0.51100000000E-03 0. -1.
        -11    1    3    3    0    0 -0.14393010708E+02 -0.42036572537E+01 -0.61544801416E+01  0.16208242274E+02  0.51100000000E-03 0.  1.
        -12    1    3    3    0    0  0.16794748839E+02 -0.16234625443E+02  0.35840188201E+01  0.23632008860E+02  0.00000000000E+00 0.  1.
</event>
<event>
 7    1  0.7755875E-012  0.5930196E+02  0.7816164E-02  0.1266605E+00
        -11   -1    0    0    0    0  0.00000000000E+00  0.00000000000E+00  0.45593999997E+02  0.45594000000E+02  0.51100000000E-03 0.  1.
         11   -1    0    0    0    0 -0.00000000000E+00 -0.00000000000E+00 -0.45593999997E+02  0.45594000000E+02  0.51100000000E-03 0. -1.
    9900012    2    1    2    0    0  0.14428222878E+02 -0.19829602735E+02  0.20379719652E+02  0.59301957079E+02  0.50000023803E+02 0.  0.
         12    1    1    2    0    0 -0.14428222878E+02  0.19829602735E+02 -0.20379719652E+02  0.31886042921E+02  0.00000000000E+00 0. -1.
         11    1    3    3    0    0  0.11903724587E+02 -0.31182749641E+01  0.89426965735E-01  0.12305701737E+02  0.51100000000E-03 0. -1.
        -11    1    3    3    0    0  0.76875973520E+01 -0.17973710120E+02  0.30069799132E+02  0.35865669220E+02  0.51100000000E-03 0.  1.
        -12    1    3    3    0    0 -0.51630990610E+01  0.12623823495E+01 -0.97795064452E+01  0.11130586122E+02  0.00000000000E+00 0.  1.
</event>
<event>
 7    1  0.7755875E-012  0.5930194E+02  0.7816164E-02  0.1266605E+00
        -11   -1    0    0    0    0  0.00000000000E+00  0.00000000000E+00  0.45593999997E+02  0.45594000000E+02  0.51100000000E-03 0.  1.
         11   -1    0    0    0    0 -0.00000000000E+00 -0.00000000000E+00 -0.45593999997E+02  0.45594000000E+02  0.51100000000E-03 0. -1.
    9900012    2    1    2    0    0  0.22039256145E+02  0.20638106780E+02 -0.10249891511E+02  0.59301944444E+02  0.50000000759E+02 0.  0.
         12    1    1    2    0    0 -0.22039256145E+02 -0.20638106780E+02  0.10249891511E+02  0.31886055556E+02  0.00000000000E+00 0. -1.
         11    1    3    3    0    0 -0.20988576277E+01  0.33433759045E+01  0.47792455884E+00  0.39764026363E+01  0.51100000000E-03 0. -1.
        -11    1    3    3    0    0  0.29291288908E+02  0.46981223246E+01 -0.22577461132E+02  0.37279937107E+02  0.51100000000E-03 0.  1.
        -12    1    3    3    0    0 -0.51531751347E+01  0.12596608551E+02  0.11849645061E+02  0.18045604701E+02  0.00000000000E+00 0.  1.
</event>
<event>
 7    1  0.7755875E-012  0.5930197E+02  0.7816164E-02  0.1266605E+00
        -11   -1    0    0    0    0  0.00000000000E+00  0.00000000000E+00  0.45593999997E+02  0.45594000000E+02  0.51100000000E-03 0. -1.
         11   -1    0    0    0    0 -0.00000000000E+00 -0.00000000000E+00 -0.45593999997E+02  0.45594000000E+02  0.51100000000E-03 0.  1.
    9900012    2    1    2    0    0  0.12049465911E+02 -0.29226709222E+02 -0.41627810270E+01  0.59301970041E+02  0.50000047441E+02 0.  0.
         12    1    1    2    0    0 -0.12049465911E+02  0.29226709222E+02  0.41627810270E+01  0.31886029959E+02  0.00000000000E+00 0. -1.
         11    1    3    3    0    0 -0.67248551055E+01 -0.60129110930E+00 -0.30433376116E+01  0.74058849078E+01  0.51100000000E-03 0. -1.
        -11    1    3    3    0    0  0.25297302743E+00 -0.20994900521E+02  0.15312633479E+02  0.25987046534E+02  0.51100000000E-03 0.  1.
        -12    1    3    3    0    0  0.18521347989E+02 -0.76305175920E+01 -0.16432076894E+02  0.25909038599E+02  0.00000000000E+00 0.  1.
</event>
<event>
 7    1  0.7755875E-012  0.5930200E+02  0.7816164E-02  0.1266605E+00
        -11   -1    0    0    0    0  0.00000000000E+00  0.00000000000E+00  0.45593999997E+02  0.45594000000E+02  0.51100000000E-03 0.  1.
         11   -1    0    0    0    0 -0.00000000000E+00 -0.00000000000E+00 -0.45593999997E+02  0.45594000000E+02  0.51100000000E-03 0. -1.
    9900012    2    1    2    0    0  0.16230011004E+01  0.31597557994E+02  0.39594649555E+01  0.59301997326E+02  0.50000097204E+02 0.  0.
         12    1    1    2    0    0 -0.16230011004E+01 -0.31597557994E+02 -0.39594649555E+01  0.31886002674E+02  0.00000000000E+00 0. -1.
         11    1    3    3    0    0  0.28963823565E+01 -0.37132206204E+01 -0.50218605056E+01  0.68844841005E+01  0.51100000000E-03 0. -1.
        -11    1    3    3    0    0  0.33307161735E+01  0.36986032669E+02 -0.51221326237E+01  0.37487284854E+02  0.51100000000E-03 0.  1.
        -12    1    3    3    0    0 -0.46040974296E+01 -0.16752540545E+01  0.14103458085E+02  0.14930228372E+02  0.00000000000E+00 0.  1.
</event>
<event>
 7    1  0.7755875E-012  0.5930193E+02  0.7816164E-02  0.1266605E+00
        -11   -1    0    0    0    0  0.00000000000E+00  0.00000000000E+00  0.45593999997E+02  0.45594000000E+02  0.51100000000E-03 0.  1.
         11   -1    0    0    0    0 -0.00000000000E+00 -0.00000000000E+00 -0.45593999997E+02  0.45594000000E+02  0.51100000000E-03 0. -1.
    9900012    2    1    2    0    0 -0.25984369770E+02 -0.16324548445E+02  0.86627303369E+01  0.59301933275E+02  0.49999980390E+02 0.  0.
         12    1    1    2    0    0  0.25984369770E+02  0.16324548445E+02 -0.86627303369E+01  0.31886066725E+02  0.00000000000E+00 0. -1.
         11    1    3    3    0    0 -0.20287290910E+02 -0.12822149789E+02  0.17172994695E+00  0.24000233105E+02  0.51100000000E-03 0. -1.
        -11    1    3    3    0    0  0.10958119160E+02 -0.82354411536E+01  0.11294641728E+02  0.17761525794E+02  0.51100000000E-03 0.  1.
         12    1    3    3    0    0 -0.16655198020E+02  0.47330424974E+01 -0.28036413385E+01  0.17540174376E+02  0.00000000000E+00 0. -1.
</event>
<event>
 7    1  0.7755875E-012  0.5930196E+02  0.7816164E-02  0.1266605E+00
        -11   -1    0    0    0    0  0.00000000000E+00  0.00000000000E+00  0.45593999997E+02  0.45594000000E+02  0.51100000000E-03 0. -1.
         11   -1    0    0    0    0 -0.00000000000E+00 -0.00000000000E+00 -0.45593999997E+02  0.45594000000E+02  0.51100000000E-03 0.  1.
    9900012    2    1    2    0    0  0.65604810532E+01  0.18459420887E+01 -0.31149190098E+02  0.59301961400E+02  0.50000031682E+02 0.  0.
         12    1    1    2    0    0 -0.65604810532E+01 -0.18459420887E+01  0.31149190098E+02  0.31886038600E+02  0.00000000000E+00 0. -1.
         11    1    3    3    0    0  0.14725038910E+01 -0.22833615690E+02 -0.14391710348E+02  0.27030789855E+02  0.51100000000E-03 0. -1.
        -11    1    3    3    0    0 -0.23074081153E+01  0.13537748459E+02 -0.11463094062E+02  0.17888468109E+02  0.51100000000E-03 0.  1.
         12    1    3    3    0    0  0.73953852775E+01  0.11141809320E+02 -0.52943856883E+01  0.14382703436E+02  0.00000000000E+00 0. -1.
</event>
<event>
 7    1  0.7755875E-012  0.5930196E+02  0.7816164E-02  0.1266605E+00
        -11   -1    0    0    0    0  0.00000000000E+00  0.00000000000E+00  0.45593999997E+02  0.45594000000E+02  0.51100000000E-03 0. -1.
         11   -1    0    0    0    0 -0.00000000000E+00 -0.00000000000E+00 -0.45593999997E+02  0.45594000000E+02  0.51100000000E-03 0.  1.
    9900012    2    1    2    0    0  0.16617598888E+02 -0.25505516237E+02 -0.94891416099E+01  0.59301956661E+02  0.50000023040E+02 0.  0.
         12    1    1    2    0    0 -0.16617598888E+02  0.25505516237E+02  0.94891416099E+01  0.31886043339E+02  0.00000000000E+00 0. -1.
         11    1    3    3    0    0  0.65999256299E+01 -0.37197064265E+02 -0.10715355476E+02  0.39268300848E+02  0.51100000000E-03 0.  1.
        -11    1    3    3    0    0  0.18812436423E+01  0.10086840489E+02 -0.30479019977E+01  0.10703884134E+02  0.51100000000E-03 0. -1.
         12    1    3    3    0    0  0.81364296154E+01  0.16047075386E+01  0.42741158633E+01  0.93297716791E+01  0.00000000000E+00 0. -1.
</event>
<event>
 7    1  0.7755875E-012  0.5930194E+02  0.7816164E-02  0.1266605E+00
        -11   -1    0    0    0    0  0.00000000000E+00  0.00000000000E+00  0.45593999997E+02  0.45594000000E+02  0.51100000000E-03 0.  1.
         11   -1    0    0    0    0 -0.00000000000E+00 -0.00000000000E+00 -0.45593999997E+02  0.45594000000E+02  0.51100000000E-03 0. -1.
    9900012    2    1    2    0    0 -0.12909745524E+02 -0.99010948653E+01  0.27423119335E+02  0.59301942183E+02  0.49999996636E+02 0.  0.
         12    1    1    2    0    0  0.12909745524E+02  0.99010948653E+01 -0.27423119335E+02  0.31886057817E+02  0.00000000000E+00 0. -1.
         11    1    3    3    0    0 -0.45958514507E+01  0.48789541230E+01  0.24939035129E+02  0.25824049204E+02  0.51100000000E-03 0.  1.
        -11    1    3    3    0    0 -0.45316937511E+01 -0.12147059666E+02 -0.12373629703E+02  0.17921886594E+02  0.51100000000E-03 0. -1.
        -12    1    3    3    0    0 -0.37822003224E+01 -0.26329893228E+01  0.14857713909E+02  0.15556006385E+02  0.00000000000E+00 0.  1.
</event>
<event>
 7    1  0.7755875E-012  0.5930199E+02  0.7816164E-02  0.1266605E+00
        -11   -1    0    0    0    0  0.00000000000E+00  0.00000000000E+00  0.45593999997E+02  0.45594000000E+02  0.51100000000E-03 0. -1.
         11   -1    0    0    0    0 -0.00000000000E+00 -0.00000000000E+00 -0.45593999997E+02  0.45594000000E+02  0.51100000000E-03 0.  1.
    9900012    2    1    2    0    0 -0.15143452816E+02  0.25724663189E+02 -0.11208720859E+02  0.59301986097E+02  0.50000076723E+02 0.  0.
         12    1    1    2    0    0  0.15143452816E+02 -0.25724663189E+02  0.11208720859E+02  0.31886013903E+02  0.00000000000E+00 0. -1.
         11    1    3    3    0    0 -0.22947931838E+01  0.36495704719E+01  0.10969207394E+02  0.11785964173E+02  0.51100000000E-03 0. -1.
        -11    1    3    3    0    0 -0.11387953801E+02  0.28465303744E+02 -0.25761709169E+02  0.40045282726E+02  0.51100000000E-03 0.  1.
        -12    1    3    3    0    0 -0.14607058316E+01 -0.63902110270E+01  0.35837809169E+01  0.74707391975E+01  0.00000000000E+00 0.  1.
</event>
<event>
 7    1  0.7755875E-012  0.5930192E+02  0.7816164E-02  0.1266605E+00
        -11   -1    0    0    0    0  0.00000000000E+00  0.00000000000E+00  0.45593999997E+02  0.45594000000E+02  0.51100000000E-03 0.  1.
         11   -1    0    0    0    0 -0.00000000000E+00 -0.00000000000E+00 -0.45593999997E+02  0.45594000000E+02  0.51100000000E-03 0. -1.
    9900012    2    1    2    0    0 -0.13123541926E+02  0.28683548490E+02 -0.46635268317E+01  0.59301924839E+02  0.49999965005E+02 0.  0.
         12    1    1    2    0    0  0.13123541926E+02 -0.28683548490E+02  0.46635268317E+01  0.31886075161E+02  0.00000000000E+00 0. -1.
         11    1    3    3    0    0 -0.21041073416E+02  0.16980413082E+02  0.15769203259E+02  0.31300622527E+02  0.51100000000E-03 0.  1.
        -11    1    3    3    0    0  0.77703345465E+01  0.10721213360E+02 -0.78778859208E+01  0.15407258085E+02  0.51100000000E-03 0. -1.
         12    1    3    3    0    0  0.14719694320E+00  0.98192204784E+00 -0.12554844170E+02  0.12594044227E+02  0.00000000000E+00 0. -1.
</event>
<event>
 7    1  0.7755875E-012  0.5930194E+02  0.7816164E-02  0.1266605E+00
        -11   -1    0    0    0    0  0.00000000000E+00  0.00000000000E+00  0.45593999997E+02  0.45594000000E+02  0.51100000000E-03 0.  1.
         11   -1    0    0    0    0 -0.00000000000E+00 -0.00000000000E+00 -0.45593999997E+02  0.45594000000E+02  0.51100000000E-03 0. -1.
    9900012    2    1    2    0    0 -0.13133029437E+02  0.26757666551E+02  0.11325700186E+02  0.59301942449E+02  0.49999997121E+02 0.  0.
         12    1    1    2    0    0  0.13133029437E+02 -0.26757666551E+02 -0.11325700186E+02  0.31886057551E+02  0.00000000000E+00 0. -1.
         11    1    3    3    0    0 -0.36437629557E+01  0.26533411516E+02  0.14761048900E+01  0.26823083736E+02  0.51100000000E-03 0.  1.
        -11    1    3    3    0    0  0.62742680638E+01 -0.10114147490E+02  0.20486172349E+01  0.12077220377E+02  0.51100000000E-03 0. -1.
        -12    1    3    3    0    0 -0.15763534545E+02  0.10338402525E+02  0.78009780608E+01  0.20401638337E+02  0.00000000000E+00 0.  1.
</event>
<event>
 7    1  0.7755875E-012  0.5930165E+02  0.7816164E-02  0.1266606E+00
        -11   -1    0    0    0    0  0.00000000000E+00  0.00000000000E+00  0.45593999997E+02  0.45594000000E+02  0.51100000000E-03 0.  1.
         11   -1    0    0    0    0 -0.00000000000E+00 -0.00000000000E+00 -0.45593999997E+02  0.45594000000E+02  0.51100000000E-03 0. -1.
    9900012    2    1    2    0    0  0.28942142417E+01 -0.54752343344E+01  0.31279138699E+02  0.59301652062E+02  0.49999467521E+02 0.  0.
         12    1    1    2    0    0 -0.28942142417E+01  0.54752343344E+01 -0.31279138699E+02  0.31886347938E+02  0.00000000000E+00 0. -1.
         11    1    3    3    0    0  0.14523383938E+02 -0.11313729230E+02  0.38389405962E+02  0.42575528658E+02  0.51100000000E-03 0.  1.
        -11    1    3    3    0    0 -0.10376617944E+02  0.36261250423E+01 -0.84386842595E+01  0.13857646808E+02  0.51100000000E-03 0. -1.
         12    1    3    3    0    0 -0.12525517529E+01  0.22123698537E+01  0.13284169962E+01  0.28684765956E+01  0.00000000000E+00 0. -1.
</event>
<event>
 7    1  0.7755875E-012  0.5930198E+02  0.7816164E-02  0.1266605E+00
        -11   -1    0    0    0    0  0.00000000000E+00  0.00000000000E+00  0.45593999997E+02  0.45594000000E+02  0.51100000000E-03 0.  1.
         11   -1    0    0    0    0 -0.00000000000E+00 -0.00000000000E+00 -0.45593999997E+02  0.45594000000E+02  0.51100000000E-03 0. -1.
    9900012    2    1    2    0    0  0.30384984695E+02 -0.62268931466E+00 -0.96479606684E+01  0.59301981404E+02  0.50000068165E+02 0.  0.
         12    1    1    2    0    0 -0.30384984695E+02  0.62268931466E+00  0.96479606684E+01  0.31886018596E+02  0.00000000000E+00 0. -1.
         11    1    3    3    0    0 -0.60901102927E+01 -0.12727440828E+01  0.14041948446E+02  0.15358568855E+02  0.51100000000E-03 0. -1.
        -11    1    3    3    0    0  0.22626886230E+02  0.18709244362E+01 -0.17779473165E+02  0.28837232964E+02  0.51100000000E-03 0.  1.
        -12    1    3    3    0    0  0.13848208757E+02 -0.12208696681E+01 -0.59104359490E+01  0.15106179585E+02  0.00000000000E+00 0.  1.
</event>
<event>
 7    1  0.7755875E-012  0.5930195E+02  0.7816164E-02  0.1266605E+00
        -11   -1    0    0    0    0  0.00000000000E+00  0.00000000000E+00  0.45593999997E+02  0.45594000000E+02  0.51100000000E-03 0. -1.
         11   -1    0    0    0    0 -0.00000000000E+00 -0.00000000000E+00 -0.45593999997E+02  0.45594000000E+02  0.51100000000E-03 0.  1.
    9900012    2    1    2    0    0  0.30368003922E+02 -0.90411352878E+01  0.35724553829E+01  0.59301949336E+02  0.50000009681E+02 0.  0.
         12    1    1    2    0    0 -0.30368003922E+02  0.90411352878E+01 -0.35724553829E+01  0.31886050664E+02  0.00000000000E+00 0. -1.
         11    1    3    3    0    0  0.15215625641E+01  0.36117866777E+01  0.83331724308E+00  0.40068158843E+01  0.51100000000E-03 0. -1.
        -11    1    3    3    0    0  0.34804158991E+02 -0.22204456715E+02  0.92264052138E+01  0.42302410505E+02  0.51100000000E-03 0.  1.
        -12    1    3    3    0    0 -0.59577176337E+01  0.95515347496E+01 -0.64872670740E+01  0.12992722947E+02  0.00000000000E+00 0.  1.
</event>
<event>
 7    1  0.7755875E-012  0.5930197E+02  0.7816164E-02  0.1266605E+00
        -11   -1    0    0    0    0  0.00000000000E+00  0.00000000000E+00  0.45593999997E+02  0.45594000000E+02  0.51100000000E-03 0. -1.
         11   -1    0    0    0    0 -0.00000000000E+00 -0.00000000000E+00 -0.45593999997E+02  0.45594000000E+02  0.51100000000E-03 0.  1.
    9900012    2    1    2    0    0  0.18065227460E+02 -0.15830816300E+02 -0.20970263317E+02  0.59301966514E+02  0.50000041010E+02 0.  0.
         12    1    1    2    0    0 -0.18065227460E+02  0.15830816300E+02  0.20970263317E+02  0.31886033486E+02  0.00000000000E+00 0. -1.
         11    1    3    3    0    0  0.27047605809E+02 -0.27856125890E+01 -0.21272263999E+02  0.34523062341E+02  0.51100000000E-03 0. -1.
        -11    1    3    3    0    0 -0.11417553093E+02 -0.76212940619E+01  0.73392763527E+01  0.15566297551E+02  0.51100000000E-03 0.  1.
         12    1    3    3    0    0  0.24351747438E+01 -0.54239096491E+01 -0.70372756703E+01  0.92126066221E+01  0.00000000000E+00 0. -1.
</event>
<event>
 7    1  0.7755875E-012  0.5930195E+02  0.7816164E-02  0.1266605E+00
        -11   -1    0    0    0    0  0.00000000000E+00  0.00000000000E+00  0.45593999997E+02  0.45594000000E+02  0.51100000000E-03 0. -1.
         11   -1    0    0    0    0 -0.00000000000E+00 -0.00000000000E+00 -0.45593999997E+02  0.45594000000E+02  0.51100000000E-03 0.  1.
    9900012    2    1    2    0    0 -0.17288002069E+01 -0.30573786724E+02 -0.88867790105E+01  0.59301952488E+02  0.50000015429E+02 0.  0.
         12    1    1    2    0    0  0.17288002069E+01  0.30573786724E+02  0.88867790105E+01  0.31886047512E+02  0.00000000000E+00 0. -1.
         11    1    3    3    0    0  0.97274205756E+01 -0.24223119991E+02 -0.21053645755E+02  0.33535626623E+02  0.51100000000E-03 0. -1.
        -11    1    3    3    0    0 -0.59542513808E+01 -0.12539744714E+02  0.10278427864E+02  0.17272648512E+02  0.51100000000E-03 0.  1.
         12    1    3    3    0    0 -0.55019694017E+01  0.61890779818E+01  0.18884388812E+01  0.84936773526E+01  0.00000000000E+00 0. -1.
</event>
<event>
 7    1  0.7755875E-012  0.5930194E+02  0.7816164E-02  0.1266605E+00
        -11   -1    0    0    0    0  0.00000000000E+00  0.00000000000E+00  0.45593999997E+02  0.45594000000E+02  0.51100000000E-03 0.  1.
         11   -1    0    0    0    0 -0.00000000000E+00 -0.00000000000E+00 -0.45593999997E+02  0.45594000000E+02  0.51100000000E-03 0. -1.
    9900012    2    1    2    0    0 -0.19685840910E+02 -0.89662703512E+01 -0.23426361068E+02  0.59301941460E+02  0.49999995317E+02 0.  0.
         12    1    1    2    0    0  0.19685840910E+02  0.89662703512E+01  0.23426361068E+02  0.31886058540E+02  0.00000000000E+00 0. -1.
         11    1    3    3    0    0 -0.93477798799E+01 -0.61581931636E+01 -0.34875618273E+02  0.36628036829E+02  0.51100000000E-03 0. -1.
        -11    1    3    3    0    0 -0.44251408961E+01  0.58142374614E+01  0.19006439790E+00  0.73091281248E+01  0.51100000000E-03 0.  1.
         12    1    3    3    0    0 -0.59129201337E+01 -0.86223146491E+01  0.11259192807E+02  0.15364776506E+02  0.00000000000E+00 0. -1.
</event>
<event>
 7    1  0.7755875E-012  0.5930192E+02  0.7816164E-02  0.1266605E+00
        -11   -1    0    0    0    0  0.00000000000E+00  0.00000000000E+00  0.45593999997E+02  0.45594000000E+02  0.51100000000E-03 0.  1.
         11   -1    0    0    0    0 -0.00000000000E+00 -0.00000000000E+00 -0.45593999997E+02  0.45594000000E+02  0.51100000000E-03 0. -1.
    9900012    2    1    2    0    0  0.59811907029E+01  0.27063124709E+02  0.15764994225E+02  0.59301915196E+02  0.49999947417E+02 0.  0.
         12    1    1    2    0    0 -0.59811907029E+01 -0.27063124709E+02 -0.15764994225E+02  0.31886084804E+02  0.00000000000E+00 0. -1.
         11    1    3    3    0    0  0.12453664277E+02 -0.56536617082E-02 -0.11386234569E+02  0.16874244392E+02  0.51100000000E-03 0. -1.
        -11    1    3    3    0    0  0.56462862581E+01  0.11976526679E+02  0.10629001298E+02  0.16979205183E+02  0.51100000000E-03 0.  1.
         12    1    3    3    0    0 -0.12118759832E+02  0.15092251692E+02  0.16522227496E+02  0.25448465621E+02  0.00000000000E+00 0. -1.
</event>
<event>
 7    1  0.7755875E-012  0.5930195E+02  0.7816164E-02  0.1266605E+00
        -11   -1    0    0    0    0  0.00000000000E+00  0.00000000000E+00  0.45593999997E+02  0.45594000000E+02  0.51100000000E-03 0. -1.
         11   -1    0    0    0    0 -0.00000000000E+00 -0.00000000000E+00 -0.45593999997E+02  0.45594000000E+02  0.51100000000E-03 0.  1.
    9900012    2    1    2    0    0 -0.22818107715E+02 -0.10830730451E+02 -0.19461491076E+02  0.59301946674E+02  0.50000004826E+02 0.  0.
         12    1    1    2    0    0  0.22818107715E+02  0.10830730451E+02  0.19461491076E+02  0.31886053326E+02  0.00000000000E+00 0. -1.
         11    1    3    3    0    0 -0.82561723832E+01  0.61383938877E+00  0.29693115839E+01  0.87953392635E+01  0.51100000000E-03 0. -1.
        -11    1    3    3    0    0  0.35071719510E+01 -0.20672809404E+02 -0.99555766901E+00  0.20991818384E+02  0.51100000000E-03 0.  1.
        -12    1    3    3    0    0 -0.18069107283E+02  0.92282395638E+01 -0.21435244991E+02  0.29514789026E+02  0.00000000000E+00 0.  1.
</event>
<event>
 7    1  0.7755875E-012  0.5930189E+02  0.7816164E-02  0.1266605E+00
        -11   -1    0    0    0    0  0.00000000000E+00  0.00000000000E+00  0.45593999997E+02  0.45594000000E+02  0.51100000000E-03 0.  1.
         11   -1    0    0    0    0 -0.00000000000E+00 -0.00000000000E+00 -0.45593999997E+02  0.45594000000E+02  0.51100000000E-03 0. -1.
    9900012    2    1    2    0    0 -0.17390391254E+02  0.25562507471E+02 -0.78010513923E+01  0.59301891756E+02  0.49999904668E+02 0.  0.
         12    1    1    2    0    0  0.17390391254E+02 -0.25562507471E+02  0.78010513923E+01  0.31886108244E+02  0.00000000000E+00 0. -1.
         11    1    3    3    0    0  0.86897124680E+01  0.10023529757E+02 -0.82146147953E+01  0.15603273633E+02  0.51100000000E-03 0. -1.
        -11    1    3    3    0    0 -0.18496836539E+02 -0.22687286214E+01  0.10997691040E+02  0.21638606702E+02  0.51100000000E-03 0.  1.
         12    1    3    3    0    0 -0.75832671820E+01  0.17807706335E+02 -0.10584127637E+02  0.22060011421E+02  0.00000000000E+00 0. -1.
</event>
<event>
 7    1  0.7755875E-012  0.5930214E+02  0.7816164E-02  0.1266604E+00
        -11   -1    0    0    0    0  0.00000000000E+00  0.00000000000E+00  0.45593999997E+02  0.45594000000E+02  0.51100000000E-03 0. -1.
         11   -1    0    0    0    0 -0.00000000000E+00 -0.00000000000E+00 -0.45593999997E+02  0.45594000000E+02  0.51100000000E-03 0.  1.
    9900012    2    1    2    0    0  0.14260782902E+02  0.26172313281E+02 -0.11329079567E+02  0.59302141766E+02  0.50000360626E+02 0.  0.
         12    1    1    2    0    0 -0.14260782902E+02 -0.26172313281E+02  0.11329079567E+02  0.31885858234E+02  0.00000000000E+00 0. -1.
         11    1    3    3    0    0 -0.88844937527E+00 -0.12616371866E+02 -0.18674975223E+01  0.12784745934E+02  0.51100000000E-03 0. -1.
        -11    1    3    3    0    0  0.15646022127E+02  0.38326628595E+02 -0.46492338604E+01  0.41657458440E+02  0.51100000000E-03 0.  1.
        -12    1    3    3    0    0 -0.49678984973E+00  0.46205655122E+00 -0.48123481844E+01  0.48599373925E+01  0.00000000000E+00 0.  1.
</event>
<event>
 7    1  0.7755875E-012  0.5930221E+02  0.7816164E-02  0.1266604E+00
        -11   -1    0    0    0    0  0.00000000000E+00  0.00000000000E+00  0.45593999997E+02  0.45594000000E+02  0.51100000000E-03 0.  1.
         11   -1    0    0    0    0 -0.00000000000E+00 -0.00000000000E+00 -0.45593999997E+02  0.45594000000E+02  0.51100000000E-03 0. -1.
    9900012    2    1    2    0    0  0.20241900491E+02 -0.24249422850E+02  0.43513907970E+01  0.59302209341E+02  0.50000483866E+02 0.  0.
         12    1    1    2    0    0 -0.20241900491E+02  0.24249422850E+02 -0.43513907970E+01  0.31885790659E+02  0.00000000000E+00 0. -1.
         11    1    3    3    0    0  0.29036185751E+01  0.12828588189E+02 -0.74964666543E+01  0.15139375427E+02  0.51100000000E-03 0. -1.
        -11    1    3    3    0    0  0.90971686365E+01 -0.21284813609E+02  0.71961197498E+00  0.23158575285E+02  0.51100000000E-03 0.  1.
         12    1    3    3    0    0  0.82411132798E+01 -0.15793197431E+02  0.11128245476E+02  0.21004258629E+02  0.00000000000E+00 0. -1.
</event>
<event>
 7    1  0.7755875E-012  0.5930195E+02  0.7816164E-02  0.1266605E+00
        -11   -1    0    0    0    0  0.00000000000E+00  0.00000000000E+00  0.45593999997E+02  0.45594000000E+02  0.51100000000E-03 0. -1.
         11   -1    0    0    0    0 -0.00000000000E+00 -0.00000000000E+00 -0.45593999997E+02  0.45594000000E+02  0.51100000000E-03 0.  1.
    9900012    2    1    2    0    0  0.95775426518E+01  0.22981753633E+02 -0.19920590702E+02  0.59301948862E+02  0.50000008816E+02 0.  0.
         12    1    1    2    0    0 -0.95775426518E+01 -0.22981753633E+02  0.19920590702E+02  0.31886051138E+02  0.00000000000E+00 0. -1.
         11    1    3    3    0    0  0.12921708745E+02  0.15186514422E+02  0.97985249751E+01  0.22217377638E+02  0.51100000000E-03 0. -1.
        -11    1    3    3    0    0 -0.87413363437E+01 -0.18584491735E+01 -0.55888429901E+01  0.10540396607E+02  0.51100000000E-03 0.  1.
         12    1    3    3    0    0  0.53971702507E+01  0.96536883841E+01 -0.24130272687E+02  0.26544174617E+02  0.00000000000E+00 0. -1.
</event>
<event>
 7    1  0.7755875E-012  0.5930199E+02  0.7816164E-02  0.1266605E+00
        -11   -1    0    0    0    0  0.00000000000E+00  0.00000000000E+00  0.45593999997E+02  0.45594000000E+02  0.51100000000E-03 0.  1.
         11   -1    0    0    0    0 -0.00000000000E+00 -0.00000000000E+00 -0.45593999997E+02  0.45594000000E+02  0.51100000000E-03 0. -1.
    9900012    2    1    2    0    0 -0.30570320773E+02 -0.41269026353E+01  0.80710335725E+01  0.59301993344E+02  0.50000089941E+02 0.  0.
         12    1    1    2    0    0  0.30570320773E+02  0.41269026353E+01 -0.80710335725E+01  0.31886006656E+02  0.00000000000E+00 0. -1.
         11    1    3    3    0    0 -0.19373104248E+01  0.11725810373E+02 -0.93470177576E-01  0.11885139356E+02  0.51100000000E-03 0. -1.
        -11    1    3    3    0    0 -0.34930686704E+02 -0.12852406713E+02  0.73739465715E+00  0.37227422461E+02  0.51100000000E-03 0.  1.
         12    1    3    3    0    0  0.62976763563E+01 -0.30003062954E+01  0.74271090929E+01  0.10189431526E+02  0.00000000000E+00 0. -1.
</event>
<event>
 7    1  0.7755875E-012  0.5930188E+02  0.7816164E-02  0.1266605E+00
        -11   -1    0    0    0    0  0.00000000000E+00  0.00000000000E+00  0.45593999997E+02  0.45594000000E+02  0.51100000000E-03 0.  1.
         11   -1    0    0    0    0 -0.00000000000E+00 -0.00000000000E+00 -0.45593999997E+02  0.45594000000E+02  0.51100000000E-03 0. -1.
    9900012    2    1    2    0    0 -0.22610311157E+02  0.20908024734E+02 -0.82675802484E+01  0.59301881515E+02  0.49999885991E+02 0.  0.
         12    1    1    2    0    0  0.22610311157E+02 -0.20908024734E+02  0.82675802484E+01  0.31886118485E+02  0.00000000000E+00 0. -1.
         11    1    3    3    0    0  0.10513570912E+02  0.11143231161E+02 -0.16502717784E+02  0.22517692345E+02  0.51100000000E-03 0. -1.
        -11    1    3    3    0    0 -0.16415859638E+02  0.90436061023E-02  0.25056247804E+01  0.16605983417E+02  0.51100000000E-03 0.  1.
         12    1    3    3    0    0 -0.16708022431E+02  0.97557499675E+01  0.57295127552E+01  0.20178205753E+02  0.00000000000E+00 0. -1.
</event>
<event>
 7    1  0.7755875E-012  0.5930187E+02  0.7816164E-02  0.1266605E+00
        -11   -1    0    0    0    0  0.00000000000E+00  0.00000000000E+00  0.45593999997E+02  0.45594000000E+02  0.51100000000E-03 0.  1.
         11   -1    0    0    0    0 -0.00000000000E+00 -0.00000000000E+00 -0.45593999997E+02  0.45594000000E+02  0.51100000000E-03 0. -1.
    9900012    2    1    2    0    0  0.29573798734E+02  0.38045816446E+01  0.11297818004E+02  0.59301872849E+02  0.49999870187E+02 0.  0.
         12    1    1    2    0    0 -0.29573798734E+02 -0.38045816446E+01 -0.11297818004E+02  0.31886127151E+02  0.00000000000E+00 0. -1.
         11    1    3    3    0    0  0.31855086292E+01  0.14334028687E+02 -0.83625556331E+01  0.16898052569E+02  0.51100000000E-03 0. -1.
        -11    1    3    3    0    0  0.15714593662E+02 -0.10225505885E+01  0.22857318477E+02  0.27757000413E+02  0.51100000000E-03 0.  1.
        -12    1    3    3    0    0  0.10673696442E+02 -0.95068964543E+01 -0.31969448398E+01  0.14646819868E+02  0.00000000000E+00 0.  1.
</event>
<event>
 7    1  0.7755875E-012  0.5930191E+02  0.7816164E-02  0.1266605E+00
        -11   -1    0    0    0    0  0.00000000000E+00  0.00000000000E+00  0.45593999997E+02  0.45594000000E+02  0.51100000000E-03 0.  1.
         11   -1    0    0    0    0 -0.00000000000E+00 -0.00000000000E+00 -0.45593999997E+02  0.45594000000E+02  0.51100000000E-03 0. -1.
    9900012    2    1    2    0    0  0.18945910894E+01 -0.34778231521E+01  0.31639185324E+02  0.59301909345E+02  0.49999936748E+02 0.  0.
         12    1    1    2    0    0 -0.18945910894E+01  0.34778231521E+01 -0.31639185324E+02  0.31886090655E+02  0.00000000000E+00 0. -1.
         11    1    3    3    0    0  0.65701064326E+01  0.60786232158E+01  0.34150751498E+02  0.35304246018E+02  0.51100000000E-03 0. -1.
        -11    1    3    3    0    0 -0.10094704677E+02 -0.26985622212E+01  0.57873796564E+01  0.11944834203E+02  0.51100000000E-03 0.  1.
         12    1    3    3    0    0  0.54191893339E+01 -0.68578841466E+01 -0.82989458310E+01  0.12052829125E+02  0.00000000000E+00 0. -1.
</event>
<event>
 7    1  0.7755875E-012  0.5930198E+02  0.7816164E-02  0.1266605E+00
        -11   -1    0    0    0    0  0.00000000000E+00  0.00000000000E+00  0.45593999997E+02  0.45594000000E+02  0.51100000000E-03 0.  1.
         11   -1    0    0    0    0 -0.00000000000E+00 -0.00000000000E+00 -0.45593999997E+02  0.45594000000E+02  0.51100000000E-03 0. -1.
    9900012    2    1    2    0    0  0.13930133844E+02  0.16327298921E+02  0.23581544990E+02  0.59301975113E+02  0.50000056692E+02 0.  0.
         12    1    1    2    0    0 -0.13930133844E+02 -0.16327298921E+02 -0.23581544990E+02  0.31886024887E+02  0.00000000000E+00 0. -1.
         11    1    3    3    0    0 -0.11726731070E+02 -0.17127283207E+01  0.20956157864E+02  0.24075095277E+02  0.51100000000E-03 0.  1.
        -11    1    3    3    0    0  0.25005336068E+02  0.17098326466E+02  0.66745987308E+01  0.31018863105E+02  0.51100000000E-03 0. -1.
         12    1    3    3    0    0  0.65152884620E+00  0.94170077585E+00 -0.40492116050E+01  0.42080167312E+01  0.00000000000E+00 0. -1.
</event>
<event>
 7    1  0.7755875E-012  0.5930195E+02  0.7816164E-02  0.1266605E+00
        -11   -1    0    0    0    0  0.00000000000E+00  0.00000000000E+00  0.45593999997E+02  0.45594000000E+02  0.51100000000E-03 0. -1.
         11   -1    0    0    0    0 -0.00000000000E+00 -0.00000000000E+00 -0.45593999997E+02  0.45594000000E+02  0.51100000000E-03 0.  1.
    9900012    2    1    2    0    0 -0.19689552864E+02  0.31499686048E+01 -0.24882107358E+02  0.59301951942E+02  0.50000014433E+02 0.  0.
         12    1    1    2    0    0  0.19689552864E+02 -0.31499686048E+01  0.24882107358E+02  0.31886048058E+02  0.00000000000E+00 0. -1.
         11    1    3    3    0    0 -0.18979818396E+02  0.15235819460E+02 -0.23135702572E+02  0.33580119635E+02  0.51100000000E-03 0. -1.
        -11    1    3    3    0    0  0.10587598378E+02 -0.29686815222E+01  0.61780122827E+00  0.11013264185E+02  0.51100000000E-03 0.  1.
        -12    1    3    3    0    0 -0.11297332847E+02 -0.91171693328E+01 -0.23642060139E+01  0.14708568121E+02  0.00000000000E+00 0.  1.
</event>
<event>
 7    1  0.7755875E-012  0.5930192E+02  0.7816164E-02  0.1266605E+00
        -11   -1    0    0    0    0  0.00000000000E+00  0.00000000000E+00  0.45593999997E+02  0.45594000000E+02  0.51100000000E-03 0.  1.
         11   -1    0    0    0    0 -0.00000000000E+00 -0.00000000000E+00 -0.45593999997E+02  0.45594000000E+02  0.51100000000E-03 0. -1.
    9900012    2    1    2    0    0 -0.15647990667E+02 -0.16076327691E+02  0.22658650208E+02  0.59301915994E+02  0.49999948873E+02 0.  0.
         12    1    1    2    0    0  0.15647990667E+02  0.16076327691E+02 -0.22658650208E+02  0.31886084006E+02  0.00000000000E+00 0. -1.
         11    1    3    3    0    0 -0.14792220603E+02  0.11560915354E+01  0.31719204010E+02  0.35017913149E+02  0.51100000000E-03 0. -1.
        -11    1    3    3    0    0 -0.13554986297E+01 -0.16158744616E+02 -0.11183808084E+01  0.16254020426E+02  0.51100000000E-03 0.  1.
        -12    1    3    3    0    0  0.49972856495E+00 -0.10736746108E+01 -0.79421729931E+01  0.80299824197E+01  0.00000000000E+00 0.  1.
</event>
<event>
 7    1  0.7755875E-012  0.5930194E+02  0.7816164E-02  0.1266605E+00
        -11   -1    0    0    0    0  0.00000000000E+00  0.00000000000E+00  0.45593999997E+02  0.45594000000E+02  0.51100000000E-03 0.  1.
         11   -1    0    0    0    0 -0.00000000000E+00 -0.00000000000E+00 -0.45593999997E+02  0.45594000000E+02  0.51100000000E-03 0. -1.
    9900012    2    1    2    0    0  0.95650598395E+00 -0.70196189607E+01  0.31089077498E+02  0.59301942016E+02  0.49999996331E+02 0.  0.
         12    1    1    2    0    0 -0.95650598395E+00  0.70196189607E+01 -0.31089077498E+02  0.31886057984E+02  0.00000000000E+00 0. -1.
         11    1    3    3    0    0 -0.22943838684E+01  0.15884547874E+01  0.32843589151E+02  0.32961928562E+02  0.51100000000E-03 0. -1.
        -11    1    3    3    0    0 -0.55744997831E+00  0.67201648536E+01 -0.69785881752E+01  0.97042289399E+01  0.51100000000E-03 0.  1.
         12    1    3    3    0    0  0.38083398306E+01 -0.15328238602E+02  0.52240765227E+01  0.16635784514E+02  0.00000000000E+00 0. -1.
</event>
<event>
 7    1  0.7755875E-012  0.5930193E+02  0.7816164E-02  0.1266605E+00
        -11   -1    0    0    0    0  0.00000000000E+00  0.00000000000E+00  0.45593999997E+02  0.45594000000E+02  0.51100000000E-03 0. -1.
         11   -1    0    0    0    0 -0.00000000000E+00 -0.00000000000E+00 -0.45593999997E+02  0.45594000000E+02  0.51100000000E-03 0.  1.
    9900012    2    1    2    0    0 -0.30432441683E+02 -0.94456787851E+01 -0.11691033399E+01  0.59301934751E+02  0.49999983081E+02 0.  0.
         12    1    1    2    0    0  0.30432441683E+02  0.94456787851E+01  0.11691033399E+01  0.31886065249E+02  0.00000000000E+00 0. -1.
         11    1    3    3    0    0 -0.21839892887E+02 -0.34864811617E+00  0.19295200582E+02  0.29144591996E+02  0.51100000000E-03 0. -1.
        -11    1    3    3    0    0 -0.10787898601E+02  0.18482798319E+01 -0.11068973902E+02  0.15566537125E+02  0.51100000000E-03 0.  1.
         12    1    3    3    0    0  0.21953498056E+01 -0.10945310501E+02 -0.93953300205E+01  0.14590805630E+02  0.00000000000E+00 0. -1.
</event>
<event>
 7    1  0.7755875E-012  0.5930194E+02  0.7816164E-02  0.1266605E+00
        -11   -1    0    0    0    0  0.00000000000E+00  0.00000000000E+00  0.45593999997E+02  0.45594000000E+02  0.51100000000E-03 0. -1.
         11   -1    0    0    0    0 -0.00000000000E+00 -0.00000000000E+00 -0.45593999997E+02  0.45594000000E+02  0.51100000000E-03 0.  1.
    9900012    2    1    2    0    0  0.29946764646E+02 -0.87421647527E+01 -0.65944396750E+01  0.59301940476E+02  0.49999993522E+02 0.  0.
         12    1    1    2    0    0 -0.29946764646E+02  0.87421647527E+01  0.65944396750E+01  0.31886059524E+02  0.00000000000E+00 0. -1.
         11    1    3    3    0    0 -0.37672769201E+01 -0.15204922318E+02 -0.18818904129E+01  0.15777311238E+02  0.51100000000E-03 0. -1.
        -11    1    3    3    0    0  0.24412691553E+02  0.14905036230E+02 -0.94136757962E+01  0.30112404523E+02  0.51100000000E-03 0.  1.
         12    1    3    3    0    0  0.93013500133E+01 -0.84422786647E+01  0.47011265342E+01  0.13412224715E+02  0.00000000000E+00 0. -1.
</event>
<event>
 7    1  0.7755875E-012  0.5930194E+02  0.7816164E-02  0.1266605E+00
        -11   -1    0    0    0    0  0.00000000000E+00  0.00000000000E+00  0.45593999997E+02  0.45594000000E+02  0.51100000000E-03 0.  1.
         11   -1    0    0    0    0 -0.00000000000E+00 -0.00000000000E+00 -0.45593999997E+02  0.45594000000E+02  0.51100000000E-03 0. -1.
    9900012    2    1    2    0    0  0.20131203019E+02 -0.11301811122E+02  0.21993731830E+02  0.59301944906E+02  0.50000001602E+02 0.  0.
         12    1    1    2    0    0 -0.20131203019E+02  0.11301811122E+02 -0.21993731830E+02  0.31886055094E+02  0.00000000000E+00 0. -1.
         11    1    3    3    0    0  0.22260057066E+02 -0.70420238997E+00 -0.75801138893E+01  0.23525819187E+02  0.51100000000E-03 0. -1.
        -11    1    3    3    0    0 -0.33885090792E+01 -0.12932556393E+02  0.30220325321E+02  0.33045439495E+02  0.51100000000E-03 0.  1.
        -12    1    3    3    0    0  0.12596550327E+01  0.23349476612E+01 -0.64647960167E+00  0.27306862246E+01  0.00000000000E+00 0.  1.
</event>
<event>
 7    1  0.7755875E-012  0.5930192E+02  0.7816164E-02  0.1266605E+00
        -11   -1    0    0    0    0  0.00000000000E+00  0.00000000000E+00  0.45593999997E+02  0.45594000000E+02  0.51100000000E-03 0. -1.
         11   -1    0    0    0    0 -0.00000000000E+00 -0.00000000000E+00 -0.45593999997E+02  0.45594000000E+02  0.51100000000E-03 0.  1.
    9900012    2    1    2    0    0 -0.28461655731E+02  0.10726733499E+02 -0.95704620638E+01  0.59301915219E+02  0.49999947460E+02 0.  0.
         12    1    1    2    0    0  0.28461655731E+02 -0.10726733499E+02  0.95704620638E+01  0.31886084781E+02  0.00000000000E+00 0. -1.
         11    1    3    3    0    0  0.67894250962E+01 -0.73621252107E+01 -0.10742459190E+02  0.14686647353E+02  0.51100000000E-03 0. -1.
        -11    1    3    3    0    0 -0.16374385621E+02 -0.19176417456E+01  0.39984924969E+01  0.16964250553E+02  0.51100000000E-03 0.  1.
         12    1    3    3    0    0 -0.18876695207E+02  0.20006500455E+02 -0.28264953707E+01  0.27651017314E+02  0.00000000000E+00 0. -1.
</event>
<event>
 7    1  0.7755875E-012  0.5930203E+02  0.7816164E-02  0.1266604E+00
        -11   -1    0    0    0    0  0.00000000000E+00  0.00000000000E+00  0.45593999997E+02  0.45594000000E+02  0.51100000000E-03 0.  1.
         11   -1    0    0    0    0 -0.00000000000E+00 -0.00000000000E+00 -0.45593999997E+02  0.45594000000E+02  0.51100000000E-03 0. -1.
    9900012    2    1    2    0    0 -0.21056186659E+02 -0.10449416540E+02  0.21544417657E+02  0.59302027617E+02  0.50000152446E+02 0.  0.
         12    1    1    2    0    0  0.21056186659E+02  0.10449416540E+02 -0.21544417657E+02  0.31885972383E+02  0.00000000000E+00 0. -1.
         11    1    3    3    0    0 -0.11124085418E+02  0.11817029819E+02  0.31842882150E+01  0.16538656591E+02  0.51100000000E-03 0. -1.
        -11    1    3    3    0    0 -0.20358430947E+00 -0.20208600366E+02  0.23964930769E+02  0.31348793954E+02  0.51100000000E-03 0.  1.
        -12    1    3    3    0    0 -0.97285169315E+01 -0.20578459928E+01 -0.56048013268E+01  0.11414577072E+02  0.00000000000E+00 0.  1.
</event>
<event>
 7    1  0.7755875E-012  0.5930190E+02  0.7816164E-02  0.1266605E+00
        -11   -1    0    0    0    0  0.00000000000E+00  0.00000000000E+00  0.45593999997E+02  0.45594000000E+02  0.51100000000E-03 0.  1.
         11   -1    0    0    0    0 -0.00000000000E+00 -0.00000000000E+00 -0.45593999997E+02  0.45594000000E+02  0.51100000000E-03 0. -1.
    9900012    2    1    2    0    0  0.25250027653E+02 -0.65450838722E+01  0.18339060723E+02  0.59301903224E+02  0.49999925584E+02 0.  0.
         12    1    1    2    0    0 -0.25250027653E+02  0.65450838722E+01 -0.18339060723E+02  0.31886096776E+02  0.00000000000E+00 0. -1.
         11    1    3    3    0    0  0.19457445070E+02 -0.13686078833E+02  0.25475897022E+02  0.34855734849E+02  0.51100000000E-03 0. -1.
        -11    1    3    3    0    0 -0.19197596115E+01 -0.66908497461E+01  0.26338374050E+00  0.69657963326E+01  0.51100000000E-03 0.  1.
         12    1    3    3    0    0  0.77123421946E+01  0.13831844707E+02 -0.74002200393E+01  0.17480372043E+02  0.00000000000E+00 0. -1.
</event>
<event>
 7    1  0.7755875E-012  0.5930195E+02  0.7816164E-02  0.1266605E+00
        -11   -1    0    0    0    0  0.00000000000E+00  0.00000000000E+00  0.45593999997E+02  0.45594000000E+02  0.51100000000E-03 0. -1.
         11   -1    0    0    0    0 -0.00000000000E+00 -0.00000000000E+00 -0.45593999997E+02  0.45594000000E+02  0.51100000000E-03 0.  1.
    9900012    2    1    2    0    0 -0.17377101363E+02  0.43145070507E+01 -0.26384496287E+02  0.59301948705E+02  0.50000008530E+02 0.  0.
         12    1    1    2    0    0  0.17377101363E+02 -0.43145070507E+01  0.26384496287E+02  0.31886051295E+02  0.00000000000E+00 0. -1.
         11    1    3    3    0    0 -0.96183020990E+01  0.68549429505E+01 -0.38407957968E+02  0.40182996574E+02  0.51100000000E-03 0. -1.
        -11    1    3    3    0    0 -0.71459058379E+01  0.34453849619E+01  0.34646750180E+01  0.86567095955E+01  0.51100000000E-03 0.  1.
         12    1    3    3    0    0 -0.61289342646E+00 -0.59858208616E+01  0.85587866626E+01  0.10462242536E+02  0.00000000000E+00 0. -1.
</event>
<event>
 7    1  0.7755875E-012  0.5930193E+02  0.7816164E-02  0.1266605E+00
        -11   -1    0    0    0    0  0.00000000000E+00  0.00000000000E+00  0.45593999997E+02  0.45594000000E+02  0.51100000000E-03 0.  1.
         11   -1    0    0    0    0 -0.00000000000E+00 -0.00000000000E+00 -0.45593999997E+02  0.45594000000E+02  0.51100000000E-03 0. -1.
    9900012    2    1    2    0    0 -0.23465273003E+02  0.24225291868E+01  0.21453065629E+02  0.59301926086E+02  0.49999967279E+02 0.  0.
         12    1    1    2    0    0  0.23465273003E+02 -0.24225291868E+01 -0.21453065629E+02  0.31886073914E+02  0.00000000000E+00 0. -1.
         11    1    3    3    0    0 -0.12644420591E+02  0.18984002613E+02  0.75952598869E+00  0.22822151679E+02  0.51100000000E-03 0. -1.
        -11    1    3    3    0    0 -0.13837585751E+02 -0.31467662132E+01  0.37862186561E+01  0.14687285964E+02  0.51100000000E-03 0.  1.
         12    1    3    3    0    0  0.30167333395E+01 -0.13414707213E+02  0.16907320984E+02  0.21792488443E+02  0.00000000000E+00 0. -1.
</event>
<event>
 7    1  0.7755875E-012  0.5930196E+02  0.7816164E-02  0.1266605E+00
        -11   -1    0    0    0    0  0.00000000000E+00  0.00000000000E+00  0.45593999997E+02  0.45594000000E+02  0.51100000000E-03 0.  1.
         11   -1    0    0    0    0 -0.00000000000E+00 -0.00000000000E+00 -0.45593999997E+02  0.45594000000E+02  0.51100000000E-03 0. -1.
    9900012    2    1    2    0    0 -0.15651125384E+02  0.12454213989E+02  0.24832527116E+02  0.59301959562E+02  0.50000028330E+02 0.  0.
         12    1    1    2    0    0  0.15651125384E+02 -0.12454213989E+02 -0.24832527116E+02  0.31886040438E+02  0.00000000000E+00 0. -1.
         11    1    3    3    0    0 -0.12913194306E+02  0.64100430499E+01 -0.11031189151E+02  0.18152861302E+02  0.51100000000E-03 0. -1.
        -11    1    3    3    0    0 -0.10646645830E+02  0.22225261674E+01  0.15147974300E+02  0.18648104881E+02  0.51100000000E-03 0.  1.
         12    1    3    3    0    0  0.79087147525E+01  0.38216447717E+01  0.20715741967E+02  0.22500993379E+02  0.00000000000E+00 0. -1.
</event>
<event>
 7    1  0.7755875E-012  0.5930194E+02  0.7816164E-02  0.1266605E+00
        -11   -1    0    0    0    0  0.00000000000E+00  0.00000000000E+00  0.45593999997E+02  0.45594000000E+02  0.51100000000E-03 0.  1.
         11   -1    0    0    0    0 -0.00000000000E+00 -0.00000000000E+00 -0.45593999997E+02  0.45594000000E+02  0.51100000000E-03 0. -1.
    9900012    2    1    2    0    0 -0.21690656498E+02  0.19686357836E+02 -0.12596958762E+02  0.59301942950E+02  0.49999998035E+02 0.  0.
         12    1    1    2    0    0  0.21690656498E+02 -0.19686357836E+02  0.12596958762E+02  0.31886057050E+02  0.00000000000E+00 0. -1.
         11    1    3    3    0    0 -0.16463422071E+02 -0.91235129620E+00  0.10527713148E+02  0.19562959785E+02  0.51100000000E-03 0. -1.
        -11    1    3    3    0    0 -0.31759703567E+01  0.25244071337E+02 -0.13370936703E+02  0.28742509876E+02  0.51100000000E-03 0.  1.
         12    1    3    3    0    0 -0.20512640709E+01 -0.46453622055E+01 -0.97537352071E+01  0.10996473289E+02  0.00000000000E+00 0. -1.
</event>
<event>
 7    1  0.7755875E-012  0.5930195E+02  0.7816164E-02  0.1266605E+00
        -11   -1    0    0    0    0  0.00000000000E+00  0.00000000000E+00  0.45593999997E+02  0.45594000000E+02  0.51100000000E-03 0.  1.
         11   -1    0    0    0    0 -0.00000000000E+00 -0.00000000000E+00 -0.45593999997E+02  0.45594000000E+02  0.51100000000E-03 0. -1.
    9900012    2    1    2    0    0  0.27138974825E+02 -0.14952165692E+02  0.75252151410E+01  0.59301951698E+02  0.50000013988E+02 0.  0.
         12    1    1    2    0    0 -0.27138974825E+02  0.14952165692E+02 -0.75252151410E+01  0.31886048302E+02  0.00000000000E+00 0. -1.
         11    1    3    3    0    0  0.19397718310E+02 -0.31224563652E+00  0.59382123506E+01  0.20288699789E+02  0.51100000000E-03 0. -1.
        -11    1    3    3    0    0  0.68805076103E+01 -0.23993283219E+02 -0.73788158559E+01  0.26028176046E+02  0.51100000000E-03 0.  1.
        -12    1    3    3    0    0  0.86074890470E+00  0.93533631632E+01  0.89658186463E+01  0.12985075862E+02  0.00000000000E+00 0.  1.
</event>
<event>
 7    1  0.7755875E-012  0.5930195E+02  0.7816164E-02  0.1266605E+00
        -11   -1    0    0    0    0  0.00000000000E+00  0.00000000000E+00  0.45593999997E+02  0.45594000000E+02  0.51100000000E-03 0.  1.
         11   -1    0    0    0    0 -0.00000000000E+00 -0.00000000000E+00 -0.45593999997E+02  0.45594000000E+02  0.51100000000E-03 0. -1.
    9900012    2    1    2    0    0 -0.11548848565E+01 -0.10612938571E+02  0.30045835279E+02  0.59301945968E+02  0.50000003538E+02 0.  0.
         12    1    1    2    0    0  0.11548848565E+01  0.10612938571E+02 -0.30045835279E+02  0.31886054032E+02  0.00000000000E+00 0. -1.
         11    1    3    3    0    0  0.86051754951E+01 -0.48747483056E+00 -0.10357774082E+02  0.13474797261E+02  0.51100000000E-03 0. -1.
        -11    1    3    3    0    0 -0.67353159723E+00 -0.11760559947E+02  0.27895339430E+02  0.30280594070E+02  0.51100000000E-03 0.  1.
         12    1    3    3    0    0 -0.90865287544E+01  0.16350962061E+01  0.12508269931E+02  0.15546554637E+02  0.00000000000E+00 0. -1.
</event>
<event>
 7    1  0.7755875E-012  0.5930195E+02  0.7816164E-02  0.1266605E+00
        -11   -1    0    0    0    0  0.00000000000E+00  0.00000000000E+00  0.45593999997E+02  0.45594000000E+02  0.51100000000E-03 0. -1.
         11   -1    0    0    0    0 -0.00000000000E+00 -0.00000000000E+00 -0.45593999997E+02  0.45594000000E+02  0.51100000000E-03 0.  1.
    9900012    2    1    2    0    0  0.37335747975E+01  0.13614137083E+02 -0.28590833482E+02  0.59301951821E+02  0.50000014212E+02 0.  0.
         12    1    1    2    0    0 -0.37335747975E+01 -0.13614137083E+02  0.28590833482E+02  0.31886048179E+02  0.00000000000E+00 0. -1.
         11    1    3    3    0    0  0.10929844011E+02 -0.16650313051E+01 -0.25974528469E+01  0.11356961782E+02  0.51100000000E-03 0. -1.
        -11    1    3    3    0    0 -0.18484088836E+02 -0.30369170202E+01 -0.13170778049E+02  0.22898772888E+02  0.51100000000E-03 0.  1.
        -12    1    3    3    0    0  0.11287819622E+02  0.18316085408E+02 -0.12822602586E+02  0.25046217151E+02  0.00000000000E+00 0.  1.
</event>
<event>
 7    1  0.1523595E-011  0.5930196E+02  0.7816164E-02  0.1266605E+00
        -11   -1    0    0    0    0  0.00000000000E+00  0.00000000000E+00  0.45593999997E+02  0.45594000000E+02  0.51100000000E-03 0. -1.
         11   -1    0    0    0    0 -0.00000000000E+00 -0.00000000000E+00 -0.45593999997E+02  0.45594000000E+02  0.51100000000E-03 0.  1.
    9900012    2    1    2    0    0  0.25971185341E+02  0.83133877239E+00 -0.18480417783E+02  0.59301961776E+02  0.50000032369E+02 0.  0.
         12    1    1    2    0    0 -0.25971185341E+02 -0.83133877239E+00  0.18480417783E+02  0.31886038224E+02  0.00000000000E+00 0. -1.
         11    1    3    3    0    0 -0.94202962130E+01 -0.75090188939E+01  0.43764996571E+01  0.12817218692E+02  0.51100000000E-03 0. -1.
        -11    1    3    3    0    0  0.10083560473E+02  0.88057362668E+01 -0.14719214844E+02  0.19896594404E+02  0.51100000000E-03 0.  1.
         12    1    3    3    0    0  0.25307921081E+02 -0.46537860054E+00 -0.81377025969E+01  0.26588148680E+02  0.00000000000E+00 0. -1.
</event>
<event>
 7    1  0.7755875E-012  0.5930195E+02  0.7816164E-02  0.1266605E+00
        -11   -1    0    0    0    0  0.00000000000E+00  0.00000000000E+00  0.45593999997E+02  0.45594000000E+02  0.51100000000E-03 0. -1.
         11   -1    0    0    0    0 -0.00000000000E+00 -0.00000000000E+00 -0.45593999997E+02  0.45594000000E+02  0.51100000000E-03 0.  1.
    9900012    2    1    2    0    0 -0.20132634675E+02  0.64680402148E+01 -0.23865493598E+02  0.59301948067E+02  0.50000007367E+02 0.  0.
         12    1    1    2    0    0  0.20132634675E+02 -0.64680402148E+01  0.23865493598E+02  0.31886051933E+02  0.00000000000E+00 0. -1.
         11    1    3    3    0    0  0.20447994291E+01 -0.10904272143E+02 -0.12227219532E+01  0.11161514454E+02  0.51100000000E-03 0. -1.
        -11    1    3    3    0    0 -0.66114369005E+01  0.12908233799E+02  0.56310083175E+01  0.15557694322E+02  0.51100000000E-03 0.  1.
        -12    1    3    3    0    0 -0.15565997204E+02  0.44640785587E+01 -0.28273779963E+02  0.32582739291E+02  0.00000000000E+00 0.  1.
</event>
<event>
 7    1  0.7755875E-012  0.5930196E+02  0.7816164E-02  0.1266605E+00
        -11   -1    0    0    0    0  0.00000000000E+00  0.00000000000E+00  0.45593999997E+02  0.45594000000E+02  0.51100000000E-03 0. -1.
         11   -1    0    0    0    0 -0.00000000000E+00 -0.00000000000E+00 -0.45593999997E+02  0.45594000000E+02  0.51100000000E-03 0.  1.
    9900012    2    1    2    0    0  0.14980227986E+01 -0.58003723434E+00 -0.31845551859E+02  0.59301957776E+02  0.50000025074E+02 0.  0.
         12    1    1    2    0    0 -0.14980227986E+01  0.58003723434E+00  0.31845551859E+02  0.31886042224E+02  0.00000000000E+00 0. -1.
         11    1    3    3    0    0 -0.14963593775E+02 -0.74519458809E+01 -0.26912193686E+02  0.31681332127E+02  0.51100000000E-03 0. -1.
        -11    1    3    3    0    0  0.16192220804E+02  0.50898517003E+01 -0.11701902557E+02  0.20616234589E+02  0.51100000000E-03 0.  1.
         12    1    3    3    0    0  0.26939576931E+00  0.17820569462E+01  0.67685443845E+01  0.70043910603E+01  0.00000000000E+00 0. -1.
</event>
<event>
 7    1  0.7755875E-012  0.5930209E+02  0.7816164E-02  0.1266604E+00
        -11   -1    0    0    0    0  0.00000000000E+00  0.00000000000E+00  0.45593999997E+02  0.45594000000E+02  0.51100000000E-03 0.  1.
         11   -1    0    0    0    0 -0.00000000000E+00 -0.00000000000E+00 -0.45593999997E+02  0.45594000000E+02  0.51100000000E-03 0. -1.
    9900012    2    1    2    0    0 -0.39354095395E+00 -0.17679443589E+02  0.26532875467E+02  0.59302092758E+02  0.50000271248E+02 0.  0.
         12    1    1    2    0    0  0.39354095395E+00  0.17679443589E+02 -0.26532875467E+02  0.31885907242E+02  0.00000000000E+00 0. -1.
         11    1    3    3    0    0 -0.41719051525E+01  0.28840182693E+00 -0.55068651904E+01  0.69147330174E+01  0.51100000000E-03 0. -1.
        -11    1    3    3    0    0  0.34742593184E+01 -0.29272700609E+02  0.27116316682E+02  0.40053166035E+02  0.51100000000E-03 0.  1.
        -12    1    3    3    0    0  0.30410488019E+00  0.11304855193E+02  0.49234239750E+01  0.12334193705E+02  0.00000000000E+00 0.  1.
</event>
<event>
 7    1  0.7755875E-012  0.5930197E+02  0.7816164E-02  0.1266605E+00
        -11   -1    0    0    0    0  0.00000000000E+00  0.00000000000E+00  0.45593999997E+02  0.45594000000E+02  0.51100000000E-03 0.  1.
         11   -1    0    0    0    0 -0.00000000000E+00 -0.00000000000E+00 -0.45593999997E+02  0.45594000000E+02  0.51100000000E-03 0. -1.
    9900012    2    1    2    0    0  0.28464503269E+02 -0.70296989668E+01  0.12532939738E+02  0.59301965558E+02  0.50000039267E+02 0.  0.
         12    1    1    2    0    0 -0.28464503269E+02  0.70296989668E+01 -0.12532939738E+02  0.31886034442E+02  0.00000000000E+00 0. -1.
         11    1    3    3    0    0  0.16111628998E+01  0.31292326462E+01 -0.65950709529E+01  0.74754868723E+01  0.51100000000E-03 0. -1.
        -11    1    3    3    0    0  0.22036400445E+02 -0.16811768623E+02  0.28232856822E+02  0.39564285832E+02  0.51100000000E-03 0.  1.
        -12    1    3    3    0    0  0.48169399245E+01  0.66528370099E+01 -0.91048461312E+01  0.12262192854E+02  0.00000000000E+00 0.  1.
</event>
<event>
 7    1  0.7755875E-012  0.5930196E+02  0.7816164E-02  0.1266605E+00
        -11   -1    0    0    0    0  0.00000000000E+00  0.00000000000E+00  0.45593999997E+02  0.45594000000E+02  0.51100000000E-03 0. -1.
         11   -1    0    0    0    0 -0.00000000000E+00 -0.00000000000E+00 -0.45593999997E+02  0.45594000000E+02  0.51100000000E-03 0.  1.
    9900012    2    1    2    0    0  0.27113915021E+01 -0.68904446165E+01 -0.31014350280E+02  0.59301956123E+02  0.50000022058E+02 0.  0.
         12    1    1    2    0    0 -0.27113915021E+01  0.68904446165E+01  0.31014350280E+02  0.31886043877E+02  0.00000000000E+00 0. -1.
         11    1    3    3    0    0 -0.11941544841E+02  0.61460919514E+01  0.46818141202E+01  0.14223020888E+02  0.51100000000E-03 0. -1.
        -11    1    3    3    0    0 -0.93683727662E+00 -0.68924934199E+01 -0.23075383438E+02  0.24100984434E+02  0.51100000000E-03 0.  1.
         12    1    3    3    0    0  0.15589773619E+02 -0.61440431481E+01 -0.12620780962E+02  0.20977950801E+02  0.00000000000E+00 0. -1.
</event>
<event>
 7    1  0.7755875E-012  0.5930194E+02  0.7816164E-02  0.1266605E+00
        -11   -1    0    0    0    0  0.00000000000E+00  0.00000000000E+00  0.45593999997E+02  0.45594000000E+02  0.51100000000E-03 0. -1.
         11   -1    0    0    0    0 -0.00000000000E+00 -0.00000000000E+00 -0.45593999997E+02  0.45594000000E+02  0.51100000000E-03 0.  1.
    9900012    2    1    2    0    0  0.14359629650E+02 -0.15679645650E+02 -0.23762798180E+02  0.59301939899E+02  0.49999992470E+02 0.  0.
         12    1    1    2    0    0 -0.14359629650E+02  0.15679645650E+02  0.23762798180E+02  0.31886060101E+02  0.00000000000E+00 0. -1.
         11    1    3    3    0    0  0.10589179092E+02  0.49431955333E+01 -0.19030009923E+02  0.22331752593E+02  0.51100000000E-03 0. -1.
        -11    1    3    3    0    0  0.13543393975E+02 -0.22137026633E+02 -0.68851069109E+01  0.26849137154E+02  0.51100000000E-03 0.  1.
         12    1    3    3    0    0 -0.97729434164E+01  0.15141854492E+01  0.21523186536E+01  0.10121050152E+02  0.00000000000E+00 0. -1.
</event>
<event>
 7    1  0.7755875E-012  0.5930192E+02  0.7816164E-02  0.1266605E+00
        -11   -1    0    0    0    0  0.00000000000E+00  0.00000000000E+00  0.45593999997E+02  0.45594000000E+02  0.51100000000E-03 0. -1.
         11   -1    0    0    0    0 -0.00000000000E+00 -0.00000000000E+00 -0.45593999997E+02  0.45594000000E+02  0.51100000000E-03 0.  1.
    9900012    2    1    2    0    0 -0.48413006290E+01  0.21240196545E+02  0.23283860020E+02  0.59301917166E+02  0.49999951011E+02 0.  0.
         12    1    1    2    0    0  0.48413006290E+01 -0.21240196545E+02 -0.23283860020E+02  0.31886082834E+02  0.00000000000E+00 0. -1.
         11    1    3    3    0    0 -0.16435381389E+02  0.10250401902E+02  0.32105862261E+01  0.19634163204E+02  0.51100000000E-03 0. -1.
        -11    1    3    3    0    0  0.54017717626E+01 -0.50107407130E+01  0.21229637977E+02  0.22471853273E+02  0.51100000000E-03 0.  1.
        -12    1    3    3    0    0  0.61923089971E+01  0.16000535355E+02 -0.11563641821E+01  0.17195900689E+02  0.00000000000E+00 0.  1.
</event>
<event>
 7    1  0.7755875E-012  0.5930196E+02  0.7816164E-02  0.1266605E+00
        -11   -1    0    0    0    0  0.00000000000E+00  0.00000000000E+00  0.45593999997E+02  0.45594000000E+02  0.51100000000E-03 0.  1.
         11   -1    0    0    0    0 -0.00000000000E+00 -0.00000000000E+00 -0.45593999997E+02  0.45594000000E+02  0.51100000000E-03 0. -1.
    9900012    2    1    2    0    0  0.21139017688E+02 -0.20244803581E+02  0.12649478781E+02  0.59301961452E+02  0.50000031778E+02 0.  0.
         12    1    1    2    0    0 -0.21139017688E+02  0.20244803581E+02 -0.12649478781E+02  0.31886038548E+02  0.00000000000E+00 0. -1.
         11    1    3    3    0    0 -0.61750572900E+01  0.73022855154E+01 -0.43702584869E+01  0.10514459843E+02  0.51100000000E-03 0. -1.
        -11    1    3    3    0    0  0.25138764280E+02 -0.91305153003E+01  0.67292367340E+01  0.27579093648E+02  0.51100000000E-03 0.  1.
         12    1    3    3    0    0  0.21753106975E+01 -0.18416573796E+02  0.10290500534E+02  0.21208407961E+02  0.00000000000E+00 0. -1.
</event>
<event>
 7    1  0.7755875E-012  0.5930196E+02  0.7816164E-02  0.1266605E+00
        -11   -1    0    0    0    0  0.00000000000E+00  0.00000000000E+00  0.45593999997E+02  0.45594000000E+02  0.51100000000E-03 0.  1.
         11   -1    0    0    0    0 -0.00000000000E+00 -0.00000000000E+00 -0.45593999997E+02  0.45594000000E+02  0.51100000000E-03 0. -1.
    9900012    2    1    2    0    0 -0.31501306370E+02  0.30732898290E+01 -0.38654719881E+01  0.59301964074E+02  0.50000036559E+02 0.  0.
         12    1    1    2    0    0  0.31501306370E+02 -0.30732898290E+01  0.38654719881E+01  0.31886035926E+02  0.00000000000E+00 0. -1.
         11    1    3    3    0    0 -0.25956866962E+02  0.13545630477E+02  0.60217747526E+01  0.29891550962E+02  0.51100000000E-03 0. -1.
        -11    1    3    3    0    0  0.75098728408E+01 -0.14342310191E+01  0.37173289375E+01  0.85013965553E+01  0.51100000000E-03 0.  1.
         12    1    3    3    0    0 -0.13054312249E+02 -0.90381096286E+01 -0.13604575678E+02  0.20909016556E+02  0.00000000000E+00 0. -1.
</event>
<event>
 7    1  0.7755875E-012  0.5930196E+02  0.7816164E-02  0.1266605E+00
        -11   -1    0    0    0    0  0.00000000000E+00  0.00000000000E+00  0.45593999997E+02  0.45594000000E+02  0.51100000000E-03 0.  1.
         11   -1    0    0    0    0 -0.00000000000E+00 -0.00000000000E+00 -0.45593999997E+02  0.45594000000E+02  0.51100000000E-03 0. -1.
    9900012    2    1    2    0    0 -0.21814735567E+02 -0.62812028708E+01  0.22391596100E+02  0.59301956450E+02  0.50000022656E+02 0.  0.
         12    1    1    2    0    0  0.21814735567E+02  0.62812028708E+01 -0.22391596100E+02  0.31886043550E+02  0.00000000000E+00 0. -1.
         11    1    3    3    0    0 -0.23614684980E+02  0.71430520008E+01 -0.33627148166E+01  0.24899485734E+02  0.51100000000E-03 0. -1.
        -11    1    3    3    0    0  0.87671376823E+01 -0.68892305722E+01  0.20897986034E+02  0.23686494497E+02  0.51100000000E-03 0.  1.
         12    1    3    3    0    0 -0.69671882691E+01 -0.65350242994E+01  0.48563248823E+01  0.10715976219E+02  0.00000000000E+00 0. -1.
</event>
<event>
 7    1  0.7755875E-012  0.5930195E+02  0.7816164E-02  0.1266605E+00
        -11   -1    0    0    0    0  0.00000000000E+00  0.00000000000E+00  0.45593999997E+02  0.45594000000E+02  0.51100000000E-03 0.  1.
         11   -1    0    0    0    0 -0.00000000000E+00 -0.00000000000E+00 -0.45593999997E+02  0.45594000000E+02  0.51100000000E-03 0. -1.
    9900012    2    1    2    0    0  0.29812453202E+02 -0.14435224970E+01  0.11218464214E+02  0.59301951915E+02  0.50000014385E+02 0.  0.
         12    1    1    2    0    0 -0.29812453202E+02  0.14435224970E+01 -0.11218464214E+02  0.31886048085E+02  0.00000000000E+00 0. -1.
         11    1    3    3    0    0  0.18781899540E+02  0.44064213645E+01 -0.10471260915E+02  0.21950480746E+02  0.51100000000E-03 0. -1.
        -11    1    3    3    0    0  0.88214398092E+01  0.19041522046E+01  0.26478320639E+02  0.27974006865E+02  0.51100000000E-03 0.  1.
        -12    1    3    3    0    0  0.22091138527E+01 -0.77540960661E+01 -0.47885955106E+01  0.93774643044E+01  0.00000000000E+00 0.  1.
</event>
<event>
 7    1  0.7755875E-012  0.5930193E+02  0.7816164E-02  0.1266605E+00
        -11   -1    0    0    0    0  0.00000000000E+00  0.00000000000E+00  0.45593999997E+02  0.45594000000E+02  0.51100000000E-03 0. -1.
         11   -1    0    0    0    0 -0.00000000000E+00 -0.00000000000E+00 -0.45593999997E+02  0.45594000000E+02  0.51100000000E-03 0.  1.
    9900012    2    1    2    0    0  0.25436819367E+02 -0.13499382902E+01 -0.19179870177E+02  0.59301928857E+02  0.49999972333E+02 0.  0.
         12    1    1    2    0    0 -0.25436819367E+02  0.13499382902E+01  0.19179870177E+02  0.31886071143E+02  0.00000000000E+00 0. -1.
         11    1    3    3    0    0  0.24818562822E+01 -0.51504583686E+01 -0.47733871378E+01  0.74479565682E+01  0.51100000000E-03 0. -1.
        -11    1    3    3    0    0  0.12333995700E+02  0.14174951532E+02 -0.26651276560E+02  0.32609005557E+02  0.51100000000E-03 0.  1.
        -12    1    3    3    0    0  0.10620967384E+02 -0.10374431454E+02  0.12244793520E+02  0.19244966732E+02  0.00000000000E+00 0.  1.
</event>
<event>
 7    1  0.7755875E-012  0.5930192E+02  0.7816164E-02  0.1266605E+00
        -11   -1    0    0    0    0  0.00000000000E+00  0.00000000000E+00  0.45593999997E+02  0.45594000000E+02  0.51100000000E-03 0.  1.
         11   -1    0    0    0    0 -0.00000000000E+00 -0.00000000000E+00 -0.45593999997E+02  0.45594000000E+02  0.51100000000E-03 0. -1.
    9900012    2    1    2    0    0  0.74876711690E+01  0.19736737838E+02  0.23898071474E+02  0.59301923725E+02  0.49999962973E+02 0.  0.
         12    1    1    2    0    0 -0.74876711690E+01 -0.19736737838E+02 -0.23898071474E+02  0.31886076275E+02  0.00000000000E+00 0. -1.
         11    1    3    3    0    0  0.76735622422E+01 -0.60442464366E+01  0.24046254249E+01  0.10059756268E+02  0.51100000000E-03 0. -1.
        -11    1    3    3    0    0 -0.21413549377E+01  0.29770046707E+02  0.27431425476E+01  0.29972752847E+02  0.51100000000E-03 0.  1.
        -12    1    3    3    0    0  0.19554638644E+01 -0.39890624332E+01  0.18750303502E+02  0.19269414611E+02  0.00000000000E+00 0.  1.
</event>
<event>
 7    1  0.7755875E-012  0.5930195E+02  0.7816164E-02  0.1266605E+00
        -11   -1    0    0    0    0  0.00000000000E+00  0.00000000000E+00  0.45593999997E+02  0.45594000000E+02  0.51100000000E-03 0.  1.
         11   -1    0    0    0    0 -0.00000000000E+00 -0.00000000000E+00 -0.45593999997E+02  0.45594000000E+02  0.51100000000E-03 0. -1.
    9900012    2    1    2    0    0  0.41170494396E+01 -0.33599368682E+01  0.31440112871E+02  0.59301953378E+02  0.50000017053E+02 0.  0.
         12    1    1    2    0    0 -0.41170494396E+01  0.33599368682E+01 -0.31440112871E+02  0.31886046622E+02  0.00000000000E+00 0. -1.
         11    1    3    3    0    0 -0.13102220848E+02  0.16884939687E+01  0.28388324455E+01  0.13512149087E+02  0.51100000000E-03 0. -1.
        -11    1    3    3    0    0  0.15170847016E+02 -0.13897653786E+02  0.30224644117E+02  0.36562665277E+02  0.51100000000E-03 0.  1.
        -12    1    3    3    0    0  0.20484232723E+01  0.88492229489E+01 -0.16233636919E+01  0.92271390137E+01  0.00000000000E+00 0.  1.
</event>
<event>
 7    1  0.7755875E-012  0.5930194E+02  0.7816164E-02  0.1266605E+00
        -11   -1    0    0    0    0  0.00000000000E+00  0.00000000000E+00  0.45593999997E+02  0.45594000000E+02  0.51100000000E-03 0. -1.
         11   -1    0    0    0    0 -0.00000000000E+00 -0.00000000000E+00 -0.45593999997E+02  0.45594000000E+02  0.51100000000E-03 0.  1.
    9900012    2    1    2    0    0  0.17387391382E+02  0.26661355134E+02  0.18898269727E+01  0.59301942190E+02  0.49999996649E+02 0.  0.
         12    1    1    2    0    0 -0.17387391382E+02 -0.26661355134E+02 -0.18898269727E+01  0.31886057810E+02  0.00000000000E+00 0. -1.
         11    1    3    3    0    0  0.96620846964E+01  0.33755469655E+01  0.85696968581E+01  0.13348779064E+02  0.51100000000E-03 0. -1.
        -11    1    3    3    0    0 -0.10696739373E+02 -0.21705899173E+01 -0.94110325214E+01  0.14411773908E+02  0.51100000000E-03 0.  1.
        -12    1    3    3    0    0  0.18422046058E+02  0.25456398086E+02  0.27311626359E+01  0.31541389218E+02  0.00000000000E+00 0.  1.
</event>
<event>
 7    1  0.7755875E-012  0.5930194E+02  0.7816164E-02  0.1266605E+00
        -11   -1    0    0    0    0  0.00000000000E+00  0.00000000000E+00  0.45593999997E+02  0.45594000000E+02  0.51100000000E-03 0. -1.
         11   -1    0    0    0    0 -0.00000000000E+00 -0.00000000000E+00 -0.45593999997E+02  0.45594000000E+02  0.51100000000E-03 0.  1.
    9900012    2    1    2    0    0  0.14239629394E+02  0.60029961094E+01 -0.27891181372E+02  0.59301937122E+02  0.49999987405E+02 0.  0.
         12    1    1    2    0    0 -0.14239629394E+02 -0.60029961094E+01  0.27891181372E+02  0.31886062878E+02  0.00000000000E+00 0. -1.
         11    1    3    3    0    0  0.20681284079E+01  0.11599984457E+02  0.20665934409E+01  0.11962759014E+02  0.51100000000E-03 0. -1.
        -11    1    3    3    0    0  0.22895644857E+02 -0.87417953714E+01 -0.25323354914E+02  0.35240627749E+02  0.51100000000E-03 0.  1.
        -12    1    3    3    0    0 -0.10724143871E+02  0.31448070240E+01 -0.46344198986E+01  0.12098550359E+02  0.00000000000E+00 0.  1.
</event>
<event>
 7    1  0.7755875E-012  0.5930194E+02  0.7816164E-02  0.1266605E+00
        -11   -1    0    0    0    0  0.00000000000E+00  0.00000000000E+00  0.45593999997E+02  0.45594000000E+02  0.51100000000E-03 0.  1.
         11   -1    0    0    0    0 -0.00000000000E+00 -0.00000000000E+00 -0.45593999997E+02  0.45594000000E+02  0.51100000000E-03 0. -1.
    9900012    2    1    2    0    0  0.17766114047E+02 -0.25999670816E+02  0.50102829690E+01  0.59301943073E+02  0.49999998259E+02 0.  0.
         12    1    1    2    0    0 -0.17766114047E+02  0.25999670816E+02 -0.50102829690E+01  0.31886056927E+02  0.00000000000E+00 0. -1.
         11    1    3    3    0    0 -0.92859115167E+01  0.82228063189E+01  0.21463676815E+01  0.12587676153E+02  0.51100000000E-03 0. -1.
        -11    1    3    3    0    0  0.11355923900E+02 -0.14354812919E+02  0.93834642449E+01  0.20568594095E+02  0.51100000000E-03 0.  1.
         12    1    3    3    0    0  0.15696101664E+02 -0.19867664216E+02 -0.65195489573E+01  0.26145672825E+02  0.00000000000E+00 0. -1.
</event>
<event>
 7    1  0.7755875E-012  0.5930194E+02  0.7816164E-02  0.1266605E+00
        -11   -1    0    0    0    0  0.00000000000E+00  0.00000000000E+00  0.45593999997E+02  0.45594000000E+02  0.51100000000E-03 0. -1.
         11   -1    0    0    0    0 -0.00000000000E+00 -0.00000000000E+00 -0.45593999997E+02  0.45594000000E+02  0.51100000000E-03 0.  1.
    9900012    2    1    2    0    0  0.11072487719E+02  0.15700851938E+01 -0.29860602614E+02  0.59301941287E+02  0.49999995002E+02 0.  0.
         12    1    1    2    0    0 -0.11072487719E+02 -0.15700851938E+01  0.29860602614E+02  0.31886058713E+02  0.00000000000E+00 0. -1.
         11    1    3    3    0    0 -0.46315935637E+01  0.34799629560E+01  0.10936838836E+02  0.12376439112E+02  0.51100000000E-03 0. -1.
        -11    1    3    3    0    0  0.11998116700E+02  0.27574846823E+01 -0.38694384367E+02  0.40605589615E+02  0.51100000000E-03 0.  1.
         12    1    3    3    0    0  0.37059645825E+01 -0.46673624445E+01 -0.21030570825E+01  0.63199125601E+01  0.00000000000E+00 0. -1.
</event>
<event>
 7    1  0.7755875E-012  0.5930193E+02  0.7816164E-02  0.1266605E+00
        -11   -1    0    0    0    0  0.00000000000E+00  0.00000000000E+00  0.45593999997E+02  0.45594000000E+02  0.51100000000E-03 0.  1.
         11   -1    0    0    0    0 -0.00000000000E+00 -0.00000000000E+00 -0.45593999997E+02  0.45594000000E+02  0.51100000000E-03 0. -1.
    9900012    2    1    2    0    0 -0.79665982866E+01 -0.13377217399E+02  0.27826332019E+02  0.59301931142E+02  0.49999976499E+02 0.  0.
         12    1    1    2    0    0  0.79665982866E+01  0.13377217399E+02 -0.27826332019E+02  0.31886068858E+02  0.00000000000E+00 0. -1.
         11    1    3    3    0    0 -0.13655761663E+02 -0.15380329595E+02  0.13865051551E+02  0.24804717693E+02  0.51100000000E-03 0. -1.
        -11    1    3    3    0    0  0.10034769742E+02  0.14883626147E+02  0.81149988934E+01  0.19699546654E+02  0.51100000000E-03 0.  1.
        -12    1    3    3    0    0 -0.43456063651E+01 -0.12880513951E+02  0.58462815745E+01  0.14797666795E+02  0.00000000000E+00 0.  1.
</event>
<event>
 7    1  0.7755875E-012  0.5930160E+02  0.7816164E-02  0.1266606E+00
        -11   -1    0    0    0    0  0.00000000000E+00  0.00000000000E+00  0.45593999997E+02  0.45594000000E+02  0.51100000000E-03 0.  1.
         11   -1    0    0    0    0 -0.00000000000E+00 -0.00000000000E+00 -0.45593999997E+02  0.45594000000E+02  0.51100000000E-03 0. -1.
    9900012    2    1    2    0    0 -0.27093222975E+02  0.11656337584E+02  0.12117323223E+02  0.59301600719E+02  0.49999373883E+02 0.  0.
         12    1    1    2    0    0  0.27093222975E+02 -0.11656337584E+02 -0.12117323223E+02  0.31886399281E+02  0.00000000000E+00 0. -1.
         11    1    3    3    0    0 -0.12377352639E+02  0.94404301793E+01 -0.65783955360E+01  0.16899581901E+02  0.51100000000E-03 0. -1.
        -11    1    3    3    0    0  0.98406267227E+01 -0.60688265427E+01  0.92905660688E+01  0.14831830907E+02  0.51100000000E-03 0.  1.
        -12    1    3    3    0    0 -0.24556497058E+02  0.82847339477E+01  0.94051526900E+01  0.27570187911E+02  0.00000000000E+00 0.  1.
</event>
<event>
 7    1  0.7755875E-012  0.5930197E+02  0.7816164E-02  0.1266605E+00
        -11   -1    0    0    0    0  0.00000000000E+00  0.00000000000E+00  0.45593999997E+02  0.45594000000E+02  0.51100000000E-03 0.  1.
         11   -1    0    0    0    0 -0.00000000000E+00 -0.00000000000E+00 -0.45593999997E+02  0.45594000000E+02  0.51100000000E-03 0. -1.
    9900012    2    1    2    0    0  0.62191119635E+00  0.24545046688E+02  0.20343871214E+02  0.59301965652E+02  0.50000039437E+02 0.  0.
         12    1    1    2    0    0 -0.62191119635E+00 -0.24545046688E+02 -0.20343871214E+02  0.31886034348E+02  0.00000000000E+00 0. -1.
         11    1    3    3    0    0  0.62693282147E+01 -0.14888585917E+01  0.47749321016E+01  0.80200469453E+01  0.51100000000E-03 0. -1.
        -11    1    3    3    0    0  0.45047480905E+01  0.34986489432E+02  0.12287759075E+02  0.37354199516E+02  0.51100000000E-03 0.  1.
        -12    1    3    3    0    0 -0.10152165109E+02 -0.89525841525E+01  0.32811800378E+01  0.13927719190E+02  0.00000000000E+00 0.  1.
</event>
<event>
 7    1  0.7755875E-012  0.5930192E+02  0.7816164E-02  0.1266605E+00
        -11   -1    0    0    0    0  0.00000000000E+00  0.00000000000E+00  0.45593999997E+02  0.45594000000E+02  0.51100000000E-03 0. -1.
         11   -1    0    0    0    0 -0.00000000000E+00 -0.00000000000E+00 -0.45593999997E+02  0.45594000000E+02  0.51100000000E-03 0.  1.
    9900012    2    1    2    0    0 -0.23853314182E+02  0.74287267663E+01 -0.19813014123E+02  0.59301919848E+02  0.49999955902E+02 0.  0.
         12    1    1    2    0    0  0.23853314182E+02 -0.74287267663E+01  0.19813014123E+02  0.31886080152E+02  0.00000000000E+00 0. -1.
         11    1    3    3    0    0 -0.19769341138E+02  0.17401313154E+01  0.97671841396E+01  0.22119059481E+02  0.51100000000E-03 0. -1.
        -11    1    3    3    0    0  0.36642860481E+01  0.10402753299E+02 -0.24305615357E+02  0.26690957394E+02  0.51100000000E-03 0.  1.
         12    1    3    3    0    0 -0.77482590916E+01 -0.47141578485E+01 -0.52745829056E+01  0.10491902973E+02  0.00000000000E+00 0. -1.
</event>
<event>
 7    1  0.7755875E-012  0.5930199E+02  0.7816164E-02  0.1266605E+00
        -11   -1    0    0    0    0  0.00000000000E+00  0.00000000000E+00  0.45593999997E+02  0.45594000000E+02  0.51100000000E-03 0.  1.
         11   -1    0    0    0    0 -0.00000000000E+00 -0.00000000000E+00 -0.45593999997E+02  0.45594000000E+02  0.51100000000E-03 0. -1.
    9900012    2    1    2    0    0 -0.23330521279E+02 -0.79872245004E+01  0.20214069305E+02  0.59301990901E+02  0.50000085486E+02 0.  0.
         12    1    1    2    0    0  0.23330521279E+02  0.79872245004E+01 -0.20214069305E+02  0.31886009099E+02  0.00000000000E+00 0. -1.
         11    1    3    3    0    0 -0.24313123286E+02  0.62167662713E+01  0.25994139468E+02  0.36131308220E+02  0.51100000000E-03 0. -1.
        -11    1    3    3    0    0 -0.81101541747E+01 -0.55027109622E+01 -0.17492583179E+01  0.99556181925E+01  0.51100000000E-03 0.  1.
         12    1    3    3    0    0  0.90927561820E+01 -0.87012798095E+01 -0.40308118444E+01  0.13215064488E+02  0.00000000000E+00 0. -1.
</event>
<event>
 7    1  0.7755875E-012  0.5930195E+02  0.7816164E-02  0.1266605E+00
        -11   -1    0    0    0    0  0.00000000000E+00  0.00000000000E+00  0.45593999997E+02  0.45594000000E+02  0.51100000000E-03 0. -1.
         11   -1    0    0    0    0 -0.00000000000E+00 -0.00000000000E+00 -0.45593999997E+02  0.45594000000E+02  0.51100000000E-03 0.  1.
    9900012    2    1    2    0    0 -0.78551044306E+00 -0.14736420202E+02 -0.28265546286E+02  0.59301949541E+02  0.50000010055E+02 0.  0.
         12    1    1    2    0    0  0.78551044306E+00  0.14736420202E+02  0.28265546286E+02  0.31886050459E+02  0.00000000000E+00 0. -1.
         11    1    3    3    0    0  0.13098289597E+02  0.34150199066E+01  0.70701663035E+01  0.15271372012E+02  0.51100000000E-03 0. -1.
        -11    1    3    3    0    0 -0.84075364746E+01 -0.98547669575E+01 -0.87106814212E+01  0.15610223331E+02  0.51100000000E-03 0.  1.
         12    1    3    3    0    0 -0.54762635652E+01 -0.82966731506E+01 -0.26625031168E+02  0.28420354198E+02  0.00000000000E+00 0. -1.
</event>
<event>
 7    1  0.7755875E-012  0.5930194E+02  0.7816164E-02  0.1266605E+00
        -11   -1    0    0    0    0  0.00000000000E+00  0.00000000000E+00  0.45593999997E+02  0.45594000000E+02  0.51100000000E-03 0. -1.
         11   -1    0    0    0    0 -0.00000000000E+00 -0.00000000000E+00 -0.45593999997E+02  0.45594000000E+02  0.51100000000E-03 0.  1.
    9900012    2    1    2    0    0  0.16042533145E+02 -0.47683505597E+01 -0.27140763563E+02  0.59301935904E+02  0.49999985184E+02 0.  0.
         12    1    1    2    0    0 -0.16042533145E+02  0.47683505597E+01  0.27140763563E+02  0.31886064096E+02  0.00000000000E+00 0. -1.
         11    1    3    3    0    0  0.16465679203E+01  0.19658962164E+01 -0.10019011074E+01  0.27531327502E+01  0.51100000000E-03 0. -1.
        -11    1    3    3    0    0 -0.11374512318E+02 -0.10360376677E+02  0.48029435249E+01  0.16117853521E+02  0.51100000000E-03 0.  1.
        -12    1    3    3    0    0  0.25770477543E+02  0.36261299004E+01 -0.30941805980E+02  0.40430949633E+02  0.00000000000E+00 0.  1.
</event>
<event>
 7    1  0.7755875E-012  0.5930194E+02  0.7816164E-02  0.1266605E+00
        -11   -1    0    0    0    0  0.00000000000E+00  0.00000000000E+00  0.45593999997E+02  0.45594000000E+02  0.51100000000E-03 0.  1.
         11   -1    0    0    0    0 -0.00000000000E+00 -0.00000000000E+00 -0.45593999997E+02  0.45594000000E+02  0.51100000000E-03 0. -1.
    9900012    2    1    2    0    0  0.26903411700E+02  0.13043397139E+02 -0.11081379878E+02  0.59301941133E+02  0.49999994722E+02 0.  0.
         12    1    1    2    0    0 -0.26903411700E+02 -0.13043397139E+02  0.11081379878E+02  0.31886058867E+02  0.00000000000E+00 0. -1.
         11    1    3    3    0    0 -0.97168512105E+01  0.12508727653E+02  0.26042278121E+01  0.16052023789E+02  0.51100000000E-03 0. -1.
        -11    1    3    3    0    0  0.14666984067E+02  0.27114926094E+01  0.34577470213E+01  0.15311062292E+02  0.51100000000E-03 0.  1.
         12    1    3    3    0    0  0.21953278844E+02 -0.21768231235E+01 -0.17143354711E+02  0.27938855053E+02  0.00000000000E+00 0. -1.
</event>
<event>
 7    1  0.7755875E-012  0.5930193E+02  0.7816164E-02  0.1266605E+00
        -11   -1    0    0    0    0  0.00000000000E+00  0.00000000000E+00  0.45593999997E+02  0.45594000000E+02  0.51100000000E-03 0. -1.
         11   -1    0    0    0    0 -0.00000000000E+00 -0.00000000000E+00 -0.45593999997E+02  0.45594000000E+02  0.51100000000E-03 0.  1.
    9900012    2    1    2    0    0 -0.14750257106E+02 -0.57218610905E+01 -0.27684146884E+02  0.59301925175E+02  0.49999965618E+02 0.  0.
         12    1    1    2    0    0  0.14750257106E+02  0.57218610905E+01  0.27684146884E+02  0.31886074825E+02  0.00000000000E+00 0. -1.
         11    1    3    3    0    0  0.61303623793E+01  0.18718086370E+02 -0.92340491884E+01  0.21753523046E+02  0.51100000000E-03 0. -1.
        -11    1    3    3    0    0 -0.22667704402E+01 -0.60200272184E+01 -0.47320726179E+01  0.79857051950E+01  0.51100000000E-03 0.  1.
         12    1    3    3    0    0 -0.18613849046E+02 -0.18419920242E+02 -0.13718025077E+02  0.29562696934E+02  0.00000000000E+00 0. -1.
</event>
<event>
 7    1  0.7755875E-012  0.5930196E+02  0.7816164E-02  0.1266605E+00
        -11   -1    0    0    0    0  0.00000000000E+00  0.00000000000E+00  0.45593999997E+02  0.45594000000E+02  0.51100000000E-03 0.  1.
         11   -1    0    0    0    0 -0.00000000000E+00 -0.00000000000E+00 -0.45593999997E+02  0.45594000000E+02  0.51100000000E-03 0. -1.
    9900012    2    1    2    0    0  0.24911825233E+02  0.19842545226E+02  0.15472397604E+01  0.59301959349E+02  0.50000027943E+02 0.  0.
         12    1    1    2    0    0 -0.24911825233E+02 -0.19842545226E+02 -0.15472397604E+01  0.31886040651E+02  0.00000000000E+00 0. -1.
         11    1    3    3    0    0  0.17949097926E+02  0.17483630792E+02 -0.18669636044E+02  0.31247444253E+02  0.51100000000E-03 0. -1.
        -11    1    3    3    0    0 -0.15967175889E+01  0.86498533288E+01  0.99638848486E+01  0.13290916868E+02  0.51100000000E-03 0.  1.
         12    1    3    3    0    0  0.85594448959E+01 -0.62909388949E+01  0.10252990956E+02  0.14763598228E+02  0.00000000000E+00 0. -1.
</event>
<event>
 7    1  0.7755875E-012  0.5930194E+02  0.7816164E-02  0.1266605E+00
        -11   -1    0    0    0    0  0.00000000000E+00  0.00000000000E+00  0.45593999997E+02  0.45594000000E+02  0.51100000000E-03 0.  1.
         11   -1    0    0    0    0 -0.00000000000E+00 -0.00000000000E+00 -0.45593999997E+02  0.45594000000E+02  0.51100000000E-03 0. -1.
    9900012    2    1    2    0    0 -0.30220660670E+02  0.65062617875E+01  0.78166997009E+01  0.59301943988E+02  0.49999999928E+02 0.  0.
         12    1    1    2    0    0  0.30220660670E+02 -0.65062617875E+01 -0.78166997009E+01  0.31886056012E+02  0.00000000000E+00 0. -1.
         11    1    3    3    0    0 -0.28948755570E+02 -0.32193308493E+01 -0.50245402054E+01  0.29557410995E+02  0.51100000000E-03 0. -1.
        -11    1    3    3    0    0  0.17750391870E+01 -0.68445001156E+01  0.10608900859E+02  0.12749381304E+02  0.51100000000E-03 0.  1.
         12    1    3    3    0    0 -0.30469442866E+01  0.16570092752E+02  0.22323390477E+01  0.16995151689E+02  0.00000000000E+00 0. -1.
</event>
<event>
 7    1  0.7755875E-012  0.5930192E+02  0.7816164E-02  0.1266605E+00
        -11   -1    0    0    0    0  0.00000000000E+00  0.00000000000E+00  0.45593999997E+02  0.45594000000E+02  0.51100000000E-03 0. -1.
         11   -1    0    0    0    0 -0.00000000000E+00 -0.00000000000E+00 -0.45593999997E+02  0.45594000000E+02  0.51100000000E-03 0.  1.
    9900012    2    1    2    0    0  0.18680077845E+02 -0.24120889162E+02  0.92714307837E+01  0.59301921047E+02  0.49999958088E+02 0.  0.
         12    1    1    2    0    0 -0.18680077845E+02  0.24120889162E+02 -0.92714307837E+01  0.31886078953E+02  0.00000000000E+00 0. -1.
         11    1    3    3    0    0  0.20090115565E+02  0.88225031601E+01  0.83720039662E+01  0.23484883566E+02  0.51100000000E-03 0. -1.
        -11    1    3    3    0    0  0.24422778153E+01 -0.16940460980E+02 -0.57629054437E+01  0.18059762417E+02  0.51100000000E-03 0.  1.
         12    1    3    3    0    0 -0.38523155358E+01 -0.16002931341E+02  0.66623322612E+01  0.17757275063E+02  0.00000000000E+00 0. -1.
</event>
<event>
 7    1  0.7755875E-012  0.5930194E+02  0.7816164E-02  0.1266605E+00
        -11   -1    0    0    0    0  0.00000000000E+00  0.00000000000E+00  0.45593999997E+02  0.45594000000E+02  0.51100000000E-03 0.  1.
         11   -1    0    0    0    0 -0.00000000000E+00 -0.00000000000E+00 -0.45593999997E+02  0.45594000000E+02  0.51100000000E-03 0. -1.
    9900012    2    1    2    0    0 -0.15243919654E+02 -0.10715648501E+02  0.25875061004E+02  0.59301937353E+02  0.49999987826E+02 0.  0.
         12    1    1    2    0    0  0.15243919654E+02  0.10715648501E+02 -0.25875061004E+02  0.31886062647E+02  0.00000000000E+00 0. -1.
         11    1    3    3    0    0  0.39256886283E+01  0.47818576317E+01 -0.33001687089E+01  0.70120116504E+01  0.51100000000E-03 0. -1.
        -11    1    3    3    0    0  0.11946831019E+01 -0.12956868998E+02  0.28979713813E+02  0.31766830734E+02  0.51100000000E-03 0.  1.
        -12    1    3    3    0    0 -0.20364291384E+02 -0.25406371346E+01  0.19551589972E+00  0.20523094968E+02  0.00000000000E+00 0.  1.
</event>
<event>
 7    1  0.7755875E-012  0.5930197E+02  0.7816164E-02  0.1266605E+00
        -11   -1    0    0    0    0  0.00000000000E+00  0.00000000000E+00  0.45593999997E+02  0.45594000000E+02  0.51100000000E-03 0. -1.
         11   -1    0    0    0    0 -0.00000000000E+00 -0.00000000000E+00 -0.45593999997E+02  0.45594000000E+02  0.51100000000E-03 0.  1.
    9900012    2    1    2    0    0 -0.13911385203E+02  0.24785354987E+02 -0.14452621332E+02  0.59301972912E+02  0.50000052678E+02 0.  0.
         12    1    1    2    0    0  0.13911385203E+02 -0.24785354987E+02  0.14452621332E+02  0.31886027088E+02  0.00000000000E+00 0. -1.
         11    1    3    3    0    0  0.32232272581E+01  0.29265387466E+02 -0.13157159235E+02  0.32248456349E+02  0.51100000000E-03 0. -1.
        -11    1    3    3    0    0 -0.20024440603E+02  0.13644464772E+01  0.11162011381E+01  0.20101886501E+02  0.51100000000E-03 0.  1.
         12    1    3    3    0    0  0.28898281423E+01 -0.58444789561E+01 -0.24116632351E+01  0.69516300621E+01  0.00000000000E+00 0. -1.
</event>
<event>
 7    1  0.7755875E-012  0.5930197E+02  0.7816164E-02  0.1266605E+00
        -11   -1    0    0    0    0  0.00000000000E+00  0.00000000000E+00  0.45593999997E+02  0.45594000000E+02  0.51100000000E-03 0. -1.
         11   -1    0    0    0    0 -0.00000000000E+00 -0.00000000000E+00 -0.45593999997E+02  0.45594000000E+02  0.51100000000E-03 0.  1.
    9900012    2    1    2    0    0  0.91445257426E+01 -0.18552037689E+02 -0.24267647461E+02  0.59301965961E+02  0.50000040001E+02 0.  0.
         12    1    1    2    0    0 -0.91445257426E+01  0.18552037689E+02  0.24267647461E+02  0.31886034039E+02  0.00000000000E+00 0. -1.
         11    1    3    3    0    0 -0.12801552571E+02 -0.25284686920E+01 -0.23018813471E+02  0.26460133712E+02  0.51100000000E-03 0. -1.
        -11    1    3    3    0    0  0.72371433011E+01 -0.16492869128E+02  0.52759672991E+00  0.18018583013E+02  0.51100000000E-03 0.  1.
         12    1    3    3    0    0  0.14708935012E+02  0.46930013108E+00 -0.17764307194E+01  0.14823249236E+02  0.00000000000E+00 0. -1.
</event>
<event>
 7    1  0.7755875E-012  0.5930197E+02  0.7816164E-02  0.1266605E+00
        -11   -1    0    0    0    0  0.00000000000E+00  0.00000000000E+00  0.45593999997E+02  0.45594000000E+02  0.51100000000E-03 0.  1.
         11   -1    0    0    0    0 -0.00000000000E+00 -0.00000000000E+00 -0.45593999997E+02  0.45594000000E+02  0.51100000000E-03 0. -1.
    9900012    2    1    2    0    0 -0.24042014302E+02 -0.15174691539E+02  0.14437075926E+02  0.59301970515E+02  0.50000048307E+02 0.  0.
         12    1    1    2    0    0  0.24042014302E+02  0.15174691539E+02 -0.14437075926E+02  0.31886029485E+02  0.00000000000E+00 0. -1.
         11    1    3    3    0    0 -0.41194165574E+01  0.11004815324E+02 -0.73251108598E+01  0.13846761443E+02  0.51100000000E-03 0. -1.
        -11    1    3    3    0    0 -0.23589363261E+02 -0.25226145457E+02  0.22970597565E+02  0.41478486309E+02  0.51100000000E-03 0.  1.
        -12    1    3    3    0    0  0.36667655168E+01 -0.95336140646E+00 -0.12084107795E+01  0.39767227635E+01  0.00000000000E+00 0.  1.
</event>
<event>
 7    1  0.7755875E-012  0.5930195E+02  0.7816164E-02  0.1266605E+00
        -11   -1    0    0    0    0  0.00000000000E+00  0.00000000000E+00  0.45593999997E+02  0.45594000000E+02  0.51100000000E-03 0. -1.
         11   -1    0    0    0    0 -0.00000000000E+00 -0.00000000000E+00 -0.45593999997E+02  0.45594000000E+02  0.51100000000E-03 0.  1.
    9900012    2    1    2    0    0 -0.16778888454E+02  0.20947970538E+02 -0.17215448124E+02  0.59301949421E+02  0.50000009836E+02 0.  0.
         12    1    1    2    0    0  0.16778888454E+02 -0.20947970538E+02  0.17215448124E+02  0.31886050579E+02  0.00000000000E+00 0. -1.
         11    1    3    3    0    0 -0.30732982296E+02  0.23646670240E+01 -0.11841594213E+02  0.33020163608E+02  0.51100000000E-03 0. -1.
        -11    1    3    3    0    0  0.13549941330E+02  0.15553718468E+02 -0.62896413086E+00  0.20637700075E+02  0.51100000000E-03 0.  1.
         12    1    3    3    0    0  0.40415251160E+00  0.30295850455E+01 -0.47448897803E+01  0.56440857388E+01  0.00000000000E+00 0. -1.
</event>
<event>
 7    1  0.7755875E-012  0.5930194E+02  0.7816164E-02  0.1266605E+00
        -11   -1    0    0    0    0  0.00000000000E+00  0.00000000000E+00  0.45593999997E+02  0.45594000000E+02  0.51100000000E-03 0.  1.
         11   -1    0    0    0    0 -0.00000000000E+00 -0.00000000000E+00 -0.45593999997E+02  0.45594000000E+02  0.51100000000E-03 0. -1.
    9900012    2    1    2    0    0 -0.16501150098E+02  0.22534352679E+02  0.15382961511E+02  0.59301944897E+02  0.50000001585E+02 0.  0.
         12    1    1    2    0    0  0.16501150098E+02 -0.22534352679E+02 -0.15382961511E+02  0.31886055103E+02  0.00000000000E+00 0. -1.
         11    1    3    3    0    0 -0.17698317548E+02 -0.23572269305E+01  0.13702822951E+02  0.22506761649E+02  0.51100000000E-03 0. -1.
        -11    1    3    3    0    0  0.93945803465E+01  0.24919238566E+02 -0.38480158971E+01  0.26907876490E+02  0.51100000000E-03 0.  1.
        -12    1    3    3    0    0 -0.81974128969E+01 -0.27658956944E-01  0.55281544571E+01  0.98873067578E+01  0.00000000000E+00 0.  1.
</event>
<event>
 7    1  0.7755875E-012  0.5930193E+02  0.7816164E-02  0.1266605E+00
        -11   -1    0    0    0    0  0.00000000000E+00  0.00000000000E+00  0.45593999997E+02  0.45594000000E+02  0.51100000000E-03 0. -1.
         11   -1    0    0    0    0 -0.00000000000E+00 -0.00000000000E+00 -0.45593999997E+02  0.45594000000E+02  0.51100000000E-03 0.  1.
    9900012    2    1    2    0    0 -0.23280682679E+02 -0.21728076967E+02 -0.16192106695E+01  0.59301931602E+02  0.49999977338E+02 0.  0.
         12    1    1    2    0    0  0.23280682679E+02  0.21728076967E+02  0.16192106695E+01  0.31886068398E+02  0.00000000000E+00 0. -1.
         11    1    3    3    0    0  0.28443023003E+01 -0.10659298255E+02  0.15882863111E+02  0.19338460014E+02  0.51100000000E-03 0. -1.
        -11    1    3    3    0    0 -0.89057526941E+01 -0.15380054755E+02 -0.11744198655E+02  0.21302223302E+02  0.51100000000E-03 0.  1.
         12    1    3    3    0    0 -0.17219232286E+02  0.43112760425E+01 -0.57578751256E+01  0.18661248286E+02  0.00000000000E+00 0. -1.
</event>
<event>
 7    1  0.7755875E-012  0.5930199E+02  0.7816164E-02  0.1266605E+00
        -11   -1    0    0    0    0  0.00000000000E+00  0.00000000000E+00  0.45593999997E+02  0.45594000000E+02  0.51100000000E-03 0. -1.
         11   -1    0    0    0    0 -0.00000000000E+00 -0.00000000000E+00 -0.45593999997E+02  0.45594000000E+02  0.51100000000E-03 0.  1.
    9900012    2    1    2    0    0  0.79193355819E+01 -0.25964052078E+02 -0.16729302591E+02  0.59301993013E+02  0.50000089338E+02 0.  0.
         12    1    1    2    0    0 -0.79193355819E+01  0.25964052078E+02  0.16729302591E+02  0.31886006987E+02  0.00000000000E+00 0. -1.
         11    1    3    3    0    0  0.41743916591E+01 -0.11398656729E+02  0.15407786674E+02  0.19615167891E+02  0.51100000000E-03 0. -1.
        -11    1    3    3    0    0  0.27274248066E+01 -0.70309650802E+01 -0.31114670089E+02  0.32015558890E+02  0.51100000000E-03 0.  1.
        -12    1    3    3    0    0  0.10175191162E+01 -0.75344302695E+01 -0.10224191763E+01  0.76712662325E+01  0.00000000000E+00 0.  1.
</event>
<event>
 7    1  0.7755875E-012  0.5930195E+02  0.7816164E-02  0.1266605E+00
        -11   -1    0    0    0    0  0.00000000000E+00  0.00000000000E+00  0.45593999997E+02  0.45594000000E+02  0.51100000000E-03 0.  1.
         11   -1    0    0    0    0 -0.00000000000E+00 -0.00000000000E+00 -0.45593999997E+02  0.45594000000E+02  0.51100000000E-03 0. -1.
    9900012    2    1    2    0    0  0.16672746191E+02 -0.16346007382E+02  0.21715156395E+02  0.59301945992E+02  0.50000003583E+02 0.  0.
         12    1    1    2    0    0 -0.16672746191E+02  0.16346007382E+02 -0.21715156395E+02  0.31886054008E+02  0.00000000000E+00 0. -1.
         11    1    3    3    0    0  0.41689226463E+01  0.14096852321E+02 -0.38306110103E+01  0.15191271914E+02  0.51100000000E-03 0. -1.
        -11    1    3    3    0    0  0.49649147455E+00 -0.19552385572E+02  0.11692715741E+02  0.22787318557E+02  0.51100000000E-03 0.  1.
         12    1    3    3    0    0  0.12007332071E+02 -0.10890474131E+02  0.13853051665E+02  0.21323355521E+02  0.00000000000E+00 0. -1.
</event>
<event>
 7    1  0.7755875E-012  0.5930190E+02  0.7816164E-02  0.1266605E+00
        -11   -1    0    0    0    0  0.00000000000E+00  0.00000000000E+00  0.45593999997E+02  0.45594000000E+02  0.51100000000E-03 0.  1.
         11   -1    0    0    0    0 -0.00000000000E+00 -0.00000000000E+00 -0.45593999997E+02  0.45594000000E+02  0.51100000000E-03 0. -1.
    9900012    2    1    2    0    0 -0.13082047697E+02 -0.19159664782E+02  0.21874424392E+02  0.59301903202E+02  0.49999925544E+02 0.  0.
         12    1    1    2    0    0  0.13082047697E+02  0.19159664782E+02 -0.21874424392E+02  0.31886096798E+02  0.00000000000E+00 0. -1.
         11    1    3    3    0    0 -0.43140884949E+01 -0.73863459417E+01 -0.17835416124E+01  0.87378765645E+01  0.51100000000E-03 0. -1.
        -11    1    3    3    0    0 -0.45189181567E+01  0.10349459275E+00  0.33971200637E+02  0.34270596805E+02  0.51100000000E-03 0.  1.
        -12    1    3    3    0    0 -0.42490410458E+01 -0.11876813433E+02 -0.10313234632E+02  0.16293429832E+02  0.00000000000E+00 0.  1.
</event>
<event>
 7    1  0.7755875E-012  0.5930200E+02  0.7816164E-02  0.1266605E+00
        -11   -1    0    0    0    0  0.00000000000E+00  0.00000000000E+00  0.45593999997E+02  0.45594000000E+02  0.51100000000E-03 0.  1.
         11   -1    0    0    0    0 -0.00000000000E+00 -0.00000000000E+00 -0.45593999997E+02  0.45594000000E+02  0.51100000000E-03 0. -1.
    9900012    2    1    2    0    0  0.13226265843E+02 -0.28401383656E+02  0.59282829256E+01  0.59301996171E+02  0.50000095097E+02 0.  0.
         12    1    1    2    0    0 -0.13226265843E+02  0.28401383656E+02 -0.59282829256E+01  0.31886003829E+02  0.00000000000E+00 0. -1.
         11    1    3    3    0    0 -0.11211398519E+02 -0.37227234548E+01  0.10860637795E+02  0.16047042726E+02  0.51100000000E-03 0.  1.
        -11    1    3    3    0    0  0.95885775764E+01 -0.17999920307E+02 -0.13886483410E+02  0.24673312967E+02  0.51100000000E-03 0. -1.
        -12    1    3    3    0    0  0.14849086786E+02 -0.66787398934E+01  0.89541285409E+01  0.18581640478E+02  0.00000000000E+00 0.  1.
</event>
<event>
 7    1  0.7755875E-012  0.5930185E+02  0.7816164E-02  0.1266605E+00
        -11   -1    0    0    0    0  0.00000000000E+00  0.00000000000E+00  0.45593999997E+02  0.45594000000E+02  0.51100000000E-03 0. -1.
         11   -1    0    0    0    0 -0.00000000000E+00 -0.00000000000E+00 -0.45593999997E+02  0.45594000000E+02  0.51100000000E-03 0.  1.
    9900012    2    1    2    0    0 -0.19250488880E+02  0.10585826090E+02 -0.23110293776E+02  0.59301847605E+02  0.49999824149E+02 0.  0.
         12    1    1    2    0    0  0.19250488880E+02 -0.10585826090E+02  0.23110293776E+02  0.31886152395E+02  0.00000000000E+00 0. -1.
         11    1    3    3    0    0 -0.68116428694E+01 -0.11764922322E+02  0.49077695841E+01  0.14453306832E+02  0.51100000000E-03 0. -1.
        -11    1    3    3    0    0 -0.10761324727E+02  0.17568264359E+02 -0.48938604430E+01  0.21175454960E+02  0.51100000000E-03 0.  1.
        -12    1    3    3    0    0 -0.16775212831E+01  0.47824840541E+01 -0.23124202917E+02  0.23673085813E+02  0.00000000000E+00 0.  1.
</event>
<event>
 7    1  0.7755875E-012  0.5930193E+02  0.7816164E-02  0.1266605E+00
        -11   -1    0    0    0    0  0.00000000000E+00  0.00000000000E+00  0.45593999997E+02  0.45594000000E+02  0.51100000000E-03 0.  1.
         11   -1    0    0    0    0 -0.00000000000E+00 -0.00000000000E+00 -0.45593999997E+02  0.45594000000E+02  0.51100000000E-03 0. -1.
    9900012    2    1    2    0    0  0.23421290687E+02  0.65730019790E+01  0.20614569602E+02  0.59301926358E+02  0.49999967774E+02 0.  0.
         12    1    1    2    0    0 -0.23421290687E+02 -0.65730019790E+01 -0.20614569602E+02  0.31886073642E+02  0.00000000000E+00 0. -1.
         11    1    3    3    0    0 -0.53991478403E+01  0.13363287520E+02  0.88898533339E+01  0.16933922856E+02  0.51100000000E-03 0. -1.
        -11    1    3    3    0    0  0.16079035321E+02 -0.12345057383E+02 -0.47423890755E+01  0.20818887411E+02  0.51100000000E-03 0.  1.
        -12    1    3    3    0    0  0.12741403206E+02  0.55547718423E+01  0.16467105343E+02  0.21549116090E+02  0.00000000000E+00 0.  1.
</event>
<event>
 7    1  0.7755875E-012  0.5930193E+02  0.7816164E-02  0.1266605E+00
        -11   -1    0    0    0    0  0.00000000000E+00  0.00000000000E+00  0.45593999997E+02  0.45594000000E+02  0.51100000000E-03 0.  1.
         11   -1    0    0    0    0 -0.00000000000E+00 -0.00000000000E+00 -0.45593999997E+02  0.45594000000E+02  0.51100000000E-03 0. -1.
    9900012    2    1    2    0    0 -0.14211966814E+01  0.29907323346E+02  0.10966019327E+02  0.59301931418E+02  0.49999977002E+02 0.  0.
         12    1    1    2    0    0  0.14211966814E+01 -0.29907323346E+02 -0.10966019327E+02  0.31886068582E+02  0.00000000000E+00 0. -1.
         11    1    3    3    0    0 -0.21123663330E+02  0.14727489487E+02 -0.16856588441E+00  0.25751437120E+02  0.51100000000E-03 0. -1.
        -11    1    3    3    0    0  0.15092478592E+02  0.20733000510E+01  0.12339489883E+02  0.19604705914E+02  0.51100000000E-03 0.  1.
         12    1    3    3    0    0  0.46099880562E+01  0.13106533809E+02 -0.12049046713E+01  0.13945788383E+02  0.00000000000E+00 0. -1.
</event>
<event>
 7    1  0.7755875E-012  0.5930194E+02  0.7816164E-02  0.1266605E+00
        -11   -1    0    0    0    0  0.00000000000E+00  0.00000000000E+00  0.45593999997E+02  0.45594000000E+02  0.51100000000E-03 0. -1.
         11   -1    0    0    0    0 -0.00000000000E+00 -0.00000000000E+00 -0.45593999997E+02  0.45594000000E+02  0.51100000000E-03 0.  1.
    9900012    2    1    2    0    0  0.15342397566E+02 -0.27951939758E+02 -0.14328149624E+00  0.59301943033E+02  0.49999998186E+02 0.  0.
         12    1    1    2    0    0 -0.15342397566E+02  0.27951939758E+02  0.14328149624E+00  0.31886056967E+02  0.00000000000E+00 0. -1.
         11    1    3    3    0    0  0.50750277284E+01  0.12861479933E+00 -0.12695529494E+02  0.13672926446E+02  0.51100000000E-03 0. -1.
        -11    1    3    3    0    0 -0.11497659106E+02 -0.70948723124E+01  0.54730565846E+01  0.14576958760E+02  0.51100000000E-03 0.  1.
         12    1    3    3    0    0  0.21765028944E+02 -0.20985682245E+02  0.70791914134E+01  0.31052057827E+02  0.00000000000E+00 0. -1.
</event>
<event>
 7    1  0.7755875E-012  0.5930195E+02  0.7816164E-02  0.1266605E+00
        -11   -1    0    0    0    0  0.00000000000E+00  0.00000000000E+00  0.45593999997E+02  0.45594000000E+02  0.51100000000E-03 0.  1.
         11   -1    0    0    0    0 -0.00000000000E+00 -0.00000000000E+00 -0.45593999997E+02  0.45594000000E+02  0.51100000000E-03 0. -1.
    9900012    2    1    2    0    0  0.15864895393E+02 -0.26853507726E+02  0.66267866311E+01  0.59301951576E+02  0.50000013767E+02 0.  0.
         12    1    1    2    0    0 -0.15864895393E+02  0.26853507726E+02 -0.66267866311E+01  0.31886048424E+02  0.00000000000E+00 0. -1.
         11    1    3    3    0    0 -0.73344704672E+01  0.46917665444E+01  0.65123990816E+01  0.10872831848E+02  0.51100000000E-03 0. -1.
        -11    1    3    3    0    0  0.26424053094E+02 -0.27744023949E+02 -0.77768930978E+01  0.39095287610E+02  0.51100000000E-03 0.  1.
        -12    1    3    3    0    0 -0.32246872333E+01 -0.38012503211E+01  0.78912806473E+01  0.93338321182E+01  0.00000000000E+00 0.  1.
</event>
<event>
 7    1  0.7755875E-012  0.5930173E+02  0.7816164E-02  0.1266606E+00
        -11   -1    0    0    0    0  0.00000000000E+00  0.00000000000E+00  0.45593999997E+02  0.45594000000E+02  0.51100000000E-03 0. -1.
         11   -1    0    0    0    0 -0.00000000000E+00 -0.00000000000E+00 -0.45593999997E+02  0.45594000000E+02  0.51100000000E-03 0.  1.
    9900012    2    1    2    0    0  0.13437478440E+02  0.22554156991E+02  0.18096369950E+02  0.59301726625E+02  0.49999603507E+02 0.  0.
         12    1    1    2    0    0 -0.13437478440E+02 -0.22554156991E+02 -0.18096369950E+02  0.31886273375E+02  0.00000000000E+00 0. -1.
         11    1    3    3    0    0  0.19065593993E+02  0.92916070798E+01  0.21667809865E+02  0.30320369738E+02  0.51100000000E-03 0. -1.
        -11    1    3    3    0    0 -0.49925981683E+01  0.86952171299E+01 -0.14207172700E+02  0.17388979090E+02  0.51100000000E-03 0.  1.
         12    1    3    3    0    0 -0.63551738542E+00  0.45673327814E+01  0.10635732785E+02  0.11592377796E+02  0.00000000000E+00 0. -1.
</event>
<event>
 7    1  0.7755875E-012  0.5930194E+02  0.7816164E-02  0.1266605E+00
        -11   -1    0    0    0    0  0.00000000000E+00  0.00000000000E+00  0.45593999997E+02  0.45594000000E+02  0.51100000000E-03 0. -1.
         11   -1    0    0    0    0 -0.00000000000E+00 -0.00000000000E+00 -0.45593999997E+02  0.45594000000E+02  0.51100000000E-03 0.  1.
    9900012    2    1    2    0    0 -0.21074080474E+02  0.93659070777E+01 -0.22020082438E+02  0.59301935430E+02  0.49999984319E+02 0.  0.
         12    1    1    2    0    0  0.21074080474E+02 -0.93659070777E+01  0.22020082438E+02  0.31886064570E+02  0.00000000000E+00 0. -1.
         11    1    3    3    0    0 -0.89310831657E+01 -0.80438911763E+01 -0.30430754666E+02  0.32718485013E+02  0.51100000000E-03 0.  1.
        -11    1    3    3    0    0 -0.27569498652E+01  0.56089394033E+01  0.96033218584E+01  0.11457956396E+02  0.51100000000E-03 0. -1.
        -12    1    3    3    0    0 -0.93860474435E+01  0.11800858851E+02 -0.11926496303E+01  0.15125494021E+02  0.00000000000E+00 0.  1.
</event>
<event>
 7    1  0.7755875E-012  0.5930191E+02  0.7816164E-02  0.1266605E+00
        -11   -1    0    0    0    0  0.00000000000E+00  0.00000000000E+00  0.45593999997E+02  0.45594000000E+02  0.51100000000E-03 0. -1.
         11   -1    0    0    0    0 -0.00000000000E+00 -0.00000000000E+00 -0.45593999997E+02  0.45594000000E+02  0.51100000000E-03 0.  1.
    9900012    2    1    2    0    0 -0.21528007897E+01 -0.31231598531E+02 -0.60560230343E+01  0.59301910352E+02  0.49999938583E+02 0.  0.
         12    1    1    2    0    0  0.21528007897E+01  0.31231598531E+02  0.60560230343E+01  0.31886089648E+02  0.00000000000E+00 0. -1.
         11    1    3    3    0    0 -0.20136752910E+02 -0.30688341311E+02  0.17680803000E+00  0.36705508735E+02  0.51100000000E-03 0. -1.
        -11    1    3    3    0    0  0.61130959535E+01 -0.12575663385E+01  0.35652366186E+01  0.71876510516E+01  0.51100000000E-03 0.  1.
         12    1    3    3    0    0  0.11870856167E+02  0.71430911819E+00 -0.97980676829E+01  0.15408750565E+02  0.00000000000E+00 0. -1.
</event>
<event>
 7    1  0.7755875E-012  0.5930196E+02  0.7816164E-02  0.1266605E+00
        -11   -1    0    0    0    0  0.00000000000E+00  0.00000000000E+00  0.45593999997E+02  0.45594000000E+02  0.51100000000E-03 0. -1.
         11   -1    0    0    0    0 -0.00000000000E+00 -0.00000000000E+00 -0.45593999997E+02  0.45594000000E+02  0.51100000000E-03 0.  1.
    9900012    2    1    2    0    0  0.94908914847E+01  0.12585868180E+02 -0.27717118207E+02  0.59301956961E+02  0.50000023587E+02 0.  0.
         12    1    1    2    0    0 -0.94908914847E+01 -0.12585868180E+02  0.27717118207E+02  0.31886043039E+02  0.00000000000E+00 0. -1.
         11    1    3    3    0    0 -0.13581150367E+02  0.13511910706E+02 -0.18569513644E+02  0.26680446276E+02  0.51100000000E-03 0. -1.
        -11    1    3    3    0    0  0.71860777921E+01  0.61717158097E+00 -0.14160955259E+02  0.15891924644E+02  0.51100000000E-03 0.  1.
         12    1    3    3    0    0  0.15885964060E+02 -0.15432141068E+01  0.50133506966E+01  0.16729586041E+02  0.00000000000E+00 0. -1.
</event>
<event>
 7    1  0.7755875E-012  0.5930193E+02  0.7816164E-02  0.1266605E+00
        -11   -1    0    0    0    0  0.00000000000E+00  0.00000000000E+00  0.45593999997E+02  0.45594000000E+02  0.51100000000E-03 0.  1.
         11   -1    0    0    0    0 -0.00000000000E+00 -0.00000000000E+00 -0.45593999997E+02  0.45594000000E+02  0.51100000000E-03 0. -1.
    9900012    2    1    2    0    0  0.25371910557E+02 -0.19286820545E+02  0.10030230750E+01  0.59301931767E+02  0.49999977639E+02 0.  0.
         12    1    1    2    0    0 -0.25371910557E+02  0.19286820545E+02 -0.10030230750E+01  0.31886068233E+02  0.00000000000E+00 0. -1.
         11    1    3    3    0    0 -0.77730502313E+00 -0.62061098953E+01 -0.89255747340E+01  0.10898893876E+02  0.51100000000E-03 0. -1.
        -11    1    3    3    0    0  0.30667228966E+02  0.27658315919E+01  0.79893307101E+01  0.31811289856E+02  0.51100000000E-03 0.  1.
        -12    1    3    3    0    0 -0.45180133855E+01 -0.15846542242E+02  0.19392670989E+01  0.16591748035E+02  0.00000000000E+00 0.  1.
</event>
<event>
 7    1  0.7755875E-012  0.5930194E+02  0.7816164E-02  0.1266605E+00
        -11   -1    0    0    0    0  0.00000000000E+00  0.00000000000E+00  0.45593999997E+02  0.45594000000E+02  0.51100000000E-03 0. -1.
         11   -1    0    0    0    0 -0.00000000000E+00 -0.00000000000E+00 -0.45593999997E+02  0.45594000000E+02  0.51100000000E-03 0.  1.
    9900012    2    1    2    0    0 -0.18977678571E+02  0.24461481348E+02  0.76291838687E+01  0.59301940347E+02  0.49999993287E+02 0.  0.
         12    1    1    2    0    0  0.18977678571E+02 -0.24461481348E+02 -0.76291838687E+01  0.31886059653E+02  0.00000000000E+00 0. -1.
         11    1    3    3    0    0 -0.27703417840E+02  0.15893142629E+02  0.37624359956E+01  0.32159404029E+02  0.51100000000E-03 0. -1.
        -11    1    3    3    0    0  0.50187825737E+01  0.16915128784E+02  0.35895135176E+01  0.18005398297E+02  0.51100000000E-03 0.  1.
        -12    1    3    3    0    0  0.37069566947E+01 -0.83467900647E+01  0.27723435550E+00  0.91371380207E+01  0.00000000000E+00 0.  1.
</event>
<event>
 7    1  0.7755875E-012  0.5930188E+02  0.7816164E-02  0.1266605E+00
        -11   -1    0    0    0    0  0.00000000000E+00  0.00000000000E+00  0.45593999997E+02  0.45594000000E+02  0.51100000000E-03 0. -1.
         11   -1    0    0    0    0 -0.00000000000E+00 -0.00000000000E+00 -0.45593999997E+02  0.45594000000E+02  0.51100000000E-03 0.  1.
    9900012    2    1    2    0    0 -0.31751061242E+02  0.23943470558E+01 -0.16917413052E+01  0.59301877996E+02  0.49999879573E+02 0.  0.
         12    1    1    2    0    0  0.31751061242E+02 -0.23943470558E+01  0.16917413052E+01  0.31886122004E+02  0.00000000000E+00 0. -1.
         11    1    3    3    0    0 -0.36786927702E+01  0.17612108007E+02  0.11517611375E-01  0.17992200029E+02  0.51100000000E-03 0. -1.
        -11    1    3    3    0    0 -0.25254074573E+02 -0.17832778956E+01 -0.75066559734E+01  0.26406405411E+02  0.51100000000E-03 0.  1.
         12    1    3    3    0    0 -0.28182938996E+01 -0.13434483056E+02  0.58033970569E+01  0.14903272556E+02  0.00000000000E+00 0. -1.
</event>
<event>
 7    1  0.7755875E-012  0.5930198E+02  0.7816164E-02  0.1266605E+00
        -11   -1    0    0    0    0  0.00000000000E+00  0.00000000000E+00  0.45593999997E+02  0.45594000000E+02  0.51100000000E-03 0. -1.
         11   -1    0    0    0    0 -0.00000000000E+00 -0.00000000000E+00 -0.45593999997E+02  0.45594000000E+02  0.51100000000E-03 0.  1.
    9900012    2    1    2    0    0 -0.21217170413E+02 -0.11587118881E+01 -0.23774088847E+02  0.59301980586E+02  0.50000066673E+02 0.  0.
         12    1    1    2    0    0  0.21217170413E+02  0.11587118881E+01  0.23774088847E+02  0.31886019414E+02  0.00000000000E+00 0. -1.
         11    1    3    3    0    0 -0.94068816910E+01  0.42083677354E+01  0.28779637543E+01  0.10699647554E+02  0.51100000000E-03 0. -1.
        -11    1    3    3    0    0  0.55193314944E+01 -0.18238805917E+02 -0.12385619509E+02  0.22727090274E+02  0.51100000000E-03 0.  1.
        -12    1    3    3    0    0 -0.17329620216E+02  0.12871726294E+02 -0.14266433093E+02  0.25875242758E+02  0.00000000000E+00 0.  1.
</event>
<event>
 7    1  0.7755875E-012  0.5930193E+02  0.7816164E-02  0.1266605E+00
        -11   -1    0    0    0    0  0.00000000000E+00  0.00000000000E+00  0.45593999997E+02  0.45594000000E+02  0.51100000000E-03 0. -1.
         11   -1    0    0    0    0 -0.00000000000E+00 -0.00000000000E+00 -0.45593999997E+02  0.45594000000E+02  0.51100000000E-03 0.  1.
    9900012    2    1    2    0    0 -0.26601054673E+02 -0.46599297650E+01 -0.16952594727E+02  0.59301929011E+02  0.49999972614E+02 0.  0.
         12    1    1    2    0    0  0.26601054673E+02  0.46599297650E+01  0.16952594727E+02  0.31886070989E+02  0.00000000000E+00 0. -1.
         11    1    3    3    0    0  0.11886133892E+00 -0.36682583800E+01  0.30146579373E+01  0.47495694858E+01  0.51100000000E-03 0. -1.
        -11    1    3    3    0    0 -0.21547017284E+02 -0.10883866916E+02 -0.30708505401E+02  0.39060783621E+02  0.51100000000E-03 0.  1.
        -12    1    3    3    0    0 -0.51728987279E+01  0.98921955307E+01  0.10741252736E+02  0.15491575905E+02  0.00000000000E+00 0.  1.
</event>
<event>
 7    1  0.7755875E-012  0.5930206E+02  0.7816164E-02  0.1266604E+00
        -11   -1    0    0    0    0  0.00000000000E+00  0.00000000000E+00  0.45593999997E+02  0.45594000000E+02  0.51100000000E-03 0. -1.
         11   -1    0    0    0    0 -0.00000000000E+00 -0.00000000000E+00 -0.45593999997E+02  0.45594000000E+02  0.51100000000E-03 0.  1.
    9900012    2    1    2    0    0 -0.15193522085E+01 -0.29516767009E+02 -0.11965160696E+02  0.59302062091E+02  0.50000215320E+02 0.  0.
         12    1    1    2    0    0  0.15193522085E+01  0.29516767009E+02  0.11965160696E+02  0.31885937909E+02  0.00000000000E+00 0. -1.
         11    1    3    3    0    0  0.95863609039E+01 -0.50450728563E+01 -0.21749621937E+02  0.24298089023E+02  0.51100000000E-03 0.  1.
        -11    1    3    3    0    0 -0.58085453488E+01 -0.26959680852E+02  0.94104972760E+01  0.29139681706E+02  0.51100000000E-03 0. -1.
         12    1    3    3    0    0 -0.52971677636E+01  0.24879866990E+01  0.37396396488E+00  0.58642913619E+01  0.00000000000E+00 0. -1.
</event>
<event>
 7    1  0.7755875E-012  0.5930200E+02  0.7816164E-02  0.1266605E+00
        -11   -1    0    0    0    0  0.00000000000E+00  0.00000000000E+00  0.45593999997E+02  0.45594000000E+02  0.51100000000E-03 0. -1.
         11   -1    0    0    0    0 -0.00000000000E+00 -0.00000000000E+00 -0.45593999997E+02  0.45594000000E+02  0.51100000000E-03 0.  1.
    9900012    2    1    2    0    0  0.72722182042E+01 -0.22584698189E+01 -0.30963383314E+02  0.59302000724E+02  0.50000103401E+02 0.  0.
         12    1    1    2    0    0 -0.72722182042E+01  0.22584698189E+01  0.30963383314E+02  0.31885999276E+02  0.00000000000E+00 0. -1.
         11    1    3    3    0    0  0.94827274700E+01 -0.40378290093E+00  0.11028306107E+02  0.14550212945E+02  0.51100000000E-03 0. -1.
        -11    1    3    3    0    0 -0.46282957222E+00  0.64160769206E+01 -0.12305210304E+02  0.13885188337E+02  0.51100000000E-03 0.  1.
         12    1    3    3    0    0 -0.17476796936E+01 -0.82707638385E+01 -0.29686479117E+02  0.30866599443E+02  0.00000000000E+00 0. -1.
</event>
<event>
 7    1  0.7755875E-012  0.5930196E+02  0.7816164E-02  0.1266605E+00
        -11   -1    0    0    0    0  0.00000000000E+00  0.00000000000E+00  0.45593999997E+02  0.45594000000E+02  0.51100000000E-03 0.  1.
         11   -1    0    0    0    0 -0.00000000000E+00 -0.00000000000E+00 -0.45593999997E+02  0.45594000000E+02  0.51100000000E-03 0. -1.
    9900012    2    1    2    0    0  0.52659593904E+01  0.20037252477E+02  0.24238351537E+02  0.59301960729E+02  0.50000030459E+02 0.  0.
         12    1    1    2    0    0 -0.52659593904E+01 -0.20037252477E+02 -0.24238351537E+02  0.31886039271E+02  0.00000000000E+00 0. -1.
         11    1    3    3    0    0  0.14418900587E+02 -0.71688544146E+01  0.20412469924E+00  0.16104000587E+02  0.51100000000E-03 0. -1.
        -11    1    3    3    0    0 -0.11975460236E+02  0.41742906504E+01  0.80507769218E+01  0.15021696296E+02  0.51100000000E-03 0.  1.
        -12    1    3    3    0    0  0.28225190396E+01  0.23031816242E+02  0.15983449916E+02  0.28176263846E+02  0.00000000000E+00 0.  1.
</event>
<event>
 7    1  0.7755875E-012  0.5930196E+02  0.7816164E-02  0.1266605E+00
        -11   -1    0    0    0    0  0.00000000000E+00  0.00000000000E+00  0.45593999997E+02  0.45594000000E+02  0.51100000000E-03 0.  1.
         11   -1    0    0    0    0 -0.00000000000E+00 -0.00000000000E+00 -0.45593999997E+02  0.45594000000E+02  0.51100000000E-03 0. -1.
    9900012    2    1    2    0    0  0.23745662726E+02  0.20767406082E+02  0.46452333735E+01  0.59301955297E+02  0.50000020553E+02 0.  0.
         12    1    1    2    0    0 -0.23745662726E+02 -0.20767406082E+02 -0.46452333735E+01  0.31886044703E+02  0.00000000000E+00 0. -1.
         11    1    3    3    0    0  0.22712749549E+02  0.30967323669E+02 -0.94680897299E+01  0.39553619944E+02  0.51100000000E-03 0. -1.
        -11    1    3    3    0    0  0.34041214713E+01 -0.38212537919E+01  0.11261530273E+02  0.12369805491E+02  0.51100000000E-03 0.  1.
         12    1    3    3    0    0 -0.23712082939E+01 -0.63786637948E+01  0.28517928305E+01  0.73785298623E+01  0.00000000000E+00 0. -1.
</event>
<event>
 7    1  0.7755875E-012  0.5930194E+02  0.7816164E-02  0.1266605E+00
        -11   -1    0    0    0    0  0.00000000000E+00  0.00000000000E+00  0.45593999997E+02  0.45594000000E+02  0.51100000000E-03 0.  1.
         11   -1    0    0    0    0 -0.00000000000E+00 -0.00000000000E+00 -0.45593999997E+02  0.45594000000E+02  0.51100000000E-03 0. -1.
    9900012    2    1    2    0    0 -0.31575912422E+02  0.41836597777E+01 -0.14762987313E+01  0.59301941724E+02  0.49999995798E+02 0.  0.
         12    1    1    2    0    0  0.31575912422E+02 -0.41836597777E+01  0.14762987313E+01  0.31886058276E+02  0.00000000000E+00 0. -1.
         11    1    3    3    0    0 -0.49049535533E+01 -0.10194147202E+02  0.37078203968E+01  0.11904920785E+02  0.51100000000E-03 0. -1.
        -11    1    3    3    0    0 -0.55093897553E+01  0.23441097517E+02 -0.21141256418E+01  0.24172462757E+02  0.51100000000E-03 0.  1.
        -12    1    3    3    0    0 -0.21161569114E+02 -0.90632905373E+01 -0.30699934863E+01  0.23224558182E+02  0.00000000000E+00 0.  1.
</event>
<event>
 7    1  0.7755875E-012  0.5930193E+02  0.7816164E-02  0.1266605E+00
        -11   -1    0    0    0    0  0.00000000000E+00  0.00000000000E+00  0.45593999997E+02  0.45594000000E+02  0.51100000000E-03 0.  1.
         11   -1    0    0    0    0 -0.00000000000E+00 -0.00000000000E+00 -0.45593999997E+02  0.45594000000E+02  0.51100000000E-03 0. -1.
    9900012    2    1    2    0    0 -0.20378537586E+02 -0.14530558065E+02  0.19756000217E+02  0.59301930057E+02  0.49999974521E+02 0.  0.
         12    1    1    2    0    0  0.20378537586E+02  0.14530558065E+02 -0.19756000217E+02  0.31886069943E+02  0.00000000000E+00 0. -1.
         11    1    3    3    0    0 -0.34808171730E+02 -0.10834078999E+02  0.10612703991E+02  0.37968613001E+02  0.51100000000E-03 0. -1.
        -11    1    3    3    0    0  0.85408521514E+01 -0.68085832753E+01  0.97552380255E+01  0.14644713411E+02  0.51100000000E-03 0.  1.
         12    1    3    3    0    0  0.58887819923E+01  0.31121042097E+01 -0.61194179945E+00  0.66886036458E+01  0.00000000000E+00 0. -1.
</event>
<event>
 7    1  0.7755875E-012  0.5930196E+02  0.7816164E-02  0.1266605E+00
        -11   -1    0    0    0    0  0.00000000000E+00  0.00000000000E+00  0.45593999997E+02  0.45594000000E+02  0.51100000000E-03 0.  1.
         11   -1    0    0    0    0 -0.00000000000E+00 -0.00000000000E+00 -0.45593999997E+02  0.45594000000E+02  0.51100000000E-03 0. -1.
    9900012    2    1    2    0    0  0.16071129136E+02  0.23679055137E+02  0.14062028414E+02  0.59301960939E+02  0.50000030842E+02 0.  0.
         12    1    1    2    0    0 -0.16071129136E+02 -0.23679055137E+02 -0.14062028414E+02  0.31886039061E+02  0.00000000000E+00 0. -1.
         11    1    3    3    0    0  0.21352310518E+02  0.28830937781E+02  0.13585815539E+02  0.38362983747E+02  0.51100000000E-03 0. -1.
        -11    1    3    3    0    0 -0.29556518473E+01 -0.10878780509E+02 -0.53200008759E+01  0.12465398220E+02  0.51100000000E-03 0.  1.
        -12    1    3    3    0    0 -0.23255295349E+01  0.57268978644E+01  0.57962137501E+01  0.84735789726E+01  0.00000000000E+00 0.  1.
</event>
<event>
 7    1  0.7755875E-012  0.5930221E+02  0.7816164E-02  0.1266604E+00
        -11   -1    0    0    0    0  0.00000000000E+00  0.00000000000E+00  0.45593999997E+02  0.45594000000E+02  0.51100000000E-03 0.  1.
         11   -1    0    0    0    0 -0.00000000000E+00 -0.00000000000E+00 -0.45593999997E+02  0.45594000000E+02  0.51100000000E-03 0. -1.
    9900012    2    1    2    0    0 -0.92471699712E+01  0.29599584616E+02 -0.74200942758E+01  0.59302213809E+02  0.50000492014E+02 0.  0.
         12    1    1    2    0    0  0.92471699712E+01 -0.29599584616E+02  0.74200942758E+01  0.31885786191E+02  0.00000000000E+00 0. -1.
         11    1    3    3    0    0 -0.36728801161E+01  0.18977264950E+02 -0.49213758754E+01  0.19946091700E+02  0.51100000000E-03 0. -1.
        -11    1    3    3    0    0 -0.51310263097E+01 -0.88662440633E+01  0.11466862210E+02  0.15376171305E+02  0.51100000000E-03 0.  1.
        -12    1    3    3    0    0 -0.44326354536E+00  0.19488563729E+02 -0.13965580610E+02  0.23979950805E+02  0.00000000000E+00 0.  1.
</event>
<event>
 7    1  0.7755875E-012  0.5930193E+02  0.7816164E-02  0.1266605E+00
        -11   -1    0    0    0    0  0.00000000000E+00  0.00000000000E+00  0.45593999997E+02  0.45594000000E+02  0.51100000000E-03 0. -1.
         11   -1    0    0    0    0 -0.00000000000E+00 -0.00000000000E+00 -0.45593999997E+02  0.45594000000E+02  0.51100000000E-03 0.  1.
    9900012    2    1    2    0    0 -0.19664175893E+02  0.37929603825E+01 -0.24812396229E+02  0.59301931433E+02  0.49999977031E+02 0.  0.
         12    1    1    2    0    0  0.19664175893E+02 -0.37929603825E+01  0.24812396229E+02  0.31886068567E+02  0.00000000000E+00 0. -1.
         11    1    3    3    0    0 -0.12893016635E+02  0.38360382198E+01 -0.99302044008E+00  0.13488185832E+02  0.51100000000E-03 0. -1.
        -11    1    3    3    0    0  0.12698730790E+02 -0.65754604191E+01 -0.20523902246E+02  0.25014495939E+02  0.51100000000E-03 0.  1.
        -12    1    3    3    0    0 -0.19469890048E+02  0.65323825818E+01 -0.32954735426E+01  0.20799249663E+02  0.00000000000E+00 0.  1.
</event>
<event>
 7    1  0.7755875E-012  0.5930194E+02  0.7816164E-02  0.1266605E+00
        -11   -1    0    0    0    0  0.00000000000E+00  0.00000000000E+00  0.45593999997E+02  0.45594000000E+02  0.51100000000E-03 0.  1.
         11   -1    0    0    0    0 -0.00000000000E+00 -0.00000000000E+00 -0.45593999997E+02  0.45594000000E+02  0.51100000000E-03 0. -1.
    9900012    2    1    2    0    0 -0.88419359794E+01 -0.30620869287E+02  0.95030334153E+00  0.59301944361E+02  0.50000000608E+02 0.  0.
         12    1    1    2    0    0  0.88419359794E+01  0.30620869287E+02 -0.95030334153E+00  0.31886055639E+02  0.00000000000E+00 0. -1.
         11    1    3    3    0    0 -0.96244346787E+01  0.83511202480E+00  0.49364145929E+01  0.10848748512E+02  0.51100000000E-03 0. -1.
        -11    1    3    3    0    0 -0.96735075341E+01 -0.31685005940E+02 -0.12044392885E+02  0.35250301412E+02  0.51100000000E-03 0.  1.
        -12    1    3    3    0    0  0.10456006233E+02  0.22902462778E+00  0.80582816336E+01  0.13202894437E+02  0.00000000000E+00 0.  1.
</event>
<event>
 7    1  0.7755875E-012  0.5930195E+02  0.7816164E-02  0.1266605E+00
        -11   -1    0    0    0    0  0.00000000000E+00  0.00000000000E+00  0.45593999997E+02  0.45594000000E+02  0.51100000000E-03 0.  1.
         11   -1    0    0    0    0 -0.00000000000E+00 -0.00000000000E+00 -0.45593999997E+02  0.45594000000E+02  0.51100000000E-03 0. -1.
    9900012    2    1    2    0    0 -0.73715659367E+01  0.22405564432E+01  0.30941236502E+02  0.59301949856E+02  0.50000010629E+02 0.  0.
         12    1    1    2    0    0  0.73715659367E+01 -0.22405564432E+01 -0.30941236502E+02  0.31886050144E+02  0.00000000000E+00 0. -1.
         11    1    3    3    0    0  0.21367690966E+01  0.21129007530E+02 -0.16087294915E+00  0.21237387356E+02  0.51100000000E-03 0. -1.
        -11    1    3    3    0    0 -0.12217380587E+01 -0.57804386762E+01  0.12647155349E+02  0.13959106485E+02  0.51100000000E-03 0.  1.
         12    1    3    3    0    0 -0.82865969746E+01 -0.13108012410E+02  0.18454954102E+02  0.24105456014E+02  0.00000000000E+00 0. -1.
</event>
<event>
 7    1  0.7755875E-012  0.5930192E+02  0.7816164E-02  0.1266605E+00
        -11   -1    0    0    0    0  0.00000000000E+00  0.00000000000E+00  0.45593999997E+02  0.45594000000E+02  0.51100000000E-03 0. -1.
         11   -1    0    0    0    0 -0.00000000000E+00 -0.00000000000E+00 -0.45593999997E+02  0.45594000000E+02  0.51100000000E-03 0.  1.
    9900012    2    1    2    0    0 -0.23408172637E+02  0.21063698523E+02 -0.50099857801E+01  0.59301923114E+02  0.49999961858E+02 0.  0.
         12    1    1    2    0    0  0.23408172637E+02 -0.21063698523E+02  0.50099857801E+01  0.31886076886E+02  0.00000000000E+00 0. -1.
         11    1    3    3    0    0 -0.97968306647E+01 -0.74066230022E+01  0.12232021918E+02  0.17333733465E+02  0.51100000000E-03 0. -1.
        -11    1    3    3    0    0 -0.17972730582E+02  0.28730679281E+02 -0.15065428543E+02  0.37086899493E+02  0.51100000000E-03 0.  1.
        -12    1    3    3    0    0  0.43613886096E+01 -0.26035775591E+00 -0.21765791550E+01  0.48812901556E+01  0.00000000000E+00 0.  1.
</event>
<event>
 7    1  0.7755875E-012  0.5930186E+02  0.7816164E-02  0.1266605E+00
        -11   -1    0    0    0    0  0.00000000000E+00  0.00000000000E+00  0.45593999997E+02  0.45594000000E+02  0.51100000000E-03 0.  1.
         11   -1    0    0    0    0 -0.00000000000E+00 -0.00000000000E+00 -0.45593999997E+02  0.45594000000E+02  0.51100000000E-03 0. -1.
    9900012    2    1    2    0    0 -0.17210129878E+02  0.61922909564E+01  0.26118826302E+02  0.59301856848E+02  0.49999841005E+02 0.  0.
         12    1    1    2    0    0  0.17210129878E+02 -0.61922909564E+01 -0.26118826302E+02  0.31886143152E+02  0.00000000000E+00 0. -1.
         11    1    3    3    0    0  0.34319102049E+01  0.63287257679E+01  0.20869028535E+02  0.22075940065E+02  0.51100000000E-03 0. -1.
        -11    1    3    3    0    0 -0.21521167472E+02  0.40961222139E+01 -0.79739045425E+01  0.23313558726E+02  0.51100000000E-03 0.  1.
        -12    1    3    3    0    0  0.87912738958E+00 -0.42325570253E+01  0.13223702309E+02  0.13912358057E+02  0.00000000000E+00 0.  1.
</event>
<event>
 7    1  0.7755875E-012  0.5930192E+02  0.7816164E-02  0.1266605E+00
        -11   -1    0    0    0    0  0.00000000000E+00  0.00000000000E+00  0.45593999997E+02  0.45594000000E+02  0.51100000000E-03 0.  1.
         11   -1    0    0    0    0 -0.00000000000E+00 -0.00000000000E+00 -0.45593999997E+02  0.45594000000E+02  0.51100000000E-03 0. -1.
    9900012    2    1    2    0    0  0.26918173273E+02 -0.16516419470E+02  0.43979135510E+01  0.59301924543E+02  0.49999964465E+02 0.  0.
         12    1    1    2    0    0 -0.26918173273E+02  0.16516419470E+02 -0.43979135510E+01  0.31886075457E+02  0.00000000000E+00 0. -1.
         11    1    3    3    0    0  0.65230970698E+01  0.61838207647E+01 -0.87744555581E+01  0.12561110828E+02  0.51100000000E-03 0. -1.
        -11    1    3    3    0    0  0.28241972710E+02 -0.23594363567E+02  0.12266464797E+02  0.38791354366E+02  0.51100000000E-03 0.  1.
        -12    1    3    3    0    0 -0.78468965069E+01  0.89412333196E+00  0.90590431243E+00  0.79494593493E+01  0.00000000000E+00 0.  1.
</event>
<event>
 7    1  0.8679545E-012  0.5930198E+02  0.7816164E-02  0.1266605E+00
        -11   -1    0    0    0    0  0.00000000000E+00  0.00000000000E+00  0.45593999997E+02  0.45594000000E+02  0.51100000000E-03 0.  1.
         11   -1    0    0    0    0 -0.00000000000E+00 -0.00000000000E+00 -0.45593999997E+02  0.45594000000E+02  0.51100000000E-03 0. -1.
    9900012    2    1    2    0    0  0.83038676377E+01  0.20464475063E+02  0.22999332989E+02  0.59301979939E+02  0.50000065494E+02 0.  0.
         12    1    1    2    0    0 -0.83038676377E+01 -0.20464475063E+02 -0.22999332989E+02  0.31886020061E+02  0.00000000000E+00 0. -1.
         11    1    3    3    0    0  0.11189711803E+02 -0.96081185002E+01  0.45723568218E+01  0.15441244721E+02  0.51100000000E-03 0. -1.
        -11    1    3    3    0    0 -0.34938053349E+01  0.17458295646E+02  0.24143322649E+02  0.29998313142E+02  0.51100000000E-03 0.  1.
         12    1    3    3    0    0  0.60796116936E+00  0.12614297917E+02 -0.57163464812E+01  0.13862422076E+02  0.00000000000E+00 0. -1.
</event>
<event>
 7    1  0.7755875E-012  0.5930193E+02  0.7816164E-02  0.1266605E+00
        -11   -1    0    0    0    0  0.00000000000E+00  0.00000000000E+00  0.45593999997E+02  0.45594000000E+02  0.51100000000E-03 0.  1.
         11   -1    0    0    0    0 -0.00000000000E+00 -0.00000000000E+00 -0.45593999997E+02  0.45594000000E+02  0.51100000000E-03 0. -1.
    9900012    2    1    2    0    0 -0.21055079324E+00  0.27213996235E+02 -0.16615516210E+02  0.59301932484E+02  0.49999978946E+02 0.  0.
         12    1    1    2    0    0  0.21055079324E+00 -0.27213996235E+02  0.16615516210E+02  0.31886067516E+02  0.00000000000E+00 0. -1.
         11    1    3    3    0    0 -0.51680277779E+01  0.45759094354E+01 -0.10950415802E+02  0.12944460776E+02  0.51100000000E-03 0. -1.
        -11    1    3    3    0    0  0.67496321323E+01  0.33459716340E+02 -0.27305368075E+00  0.34134802037E+02  0.51100000000E-03 0.  1.
        -12    1    3    3    0    0 -0.17921551476E+01 -0.10821629541E+02 -0.53920467275E+01  0.12222669672E+02  0.00000000000E+00 0.  1.
</event>
<event>
 7    1  0.7755875E-012  0.5930197E+02  0.7816164E-02  0.1266605E+00
        -11   -1    0    0    0    0  0.00000000000E+00  0.00000000000E+00  0.45593999997E+02  0.45594000000E+02  0.51100000000E-03 0.  1.
         11   -1    0    0    0    0 -0.00000000000E+00 -0.00000000000E+00 -0.45593999997E+02  0.45594000000E+02  0.51100000000E-03 0. -1.
    9900012    2    1    2    0    0 -0.16078227377E+02 -0.11648221628E+02  0.24950522254E+02  0.59301968209E+02  0.50000044100E+02 0.  0.
         12    1    1    2    0    0  0.16078227377E+02  0.11648221628E+02 -0.24950522254E+02  0.31886031791E+02  0.00000000000E+00 0. -1.
         11    1    3    3    0    0  0.93779794348E+01 -0.91224160150E+01 -0.87817557798E+01  0.15757036748E+02  0.51100000000E-03 0. -1.
        -11    1    3    3    0    0 -0.12317986419E+02 -0.59530612371E+01  0.20015674451E+02  0.24244565402E+02  0.51100000000E-03 0.  1.
         12    1    3    3    0    0 -0.13138220392E+02  0.34272556241E+01  0.13716603582E+02  0.19300366059E+02  0.00000000000E+00 0. -1.
</event>
<event>
 7    1  0.7755875E-012  0.5930195E+02  0.7816164E-02  0.1266605E+00
        -11   -1    0    0    0    0  0.00000000000E+00  0.00000000000E+00  0.45593999997E+02  0.45594000000E+02  0.51100000000E-03 0. -1.
         11   -1    0    0    0    0 -0.00000000000E+00 -0.00000000000E+00 -0.45593999997E+02  0.45594000000E+02  0.51100000000E-03 0.  1.
    9900012    2    1    2    0    0  0.31013389511E+02 -0.73480612399E+01 -0.94652519859E+00  0.59301949085E+02  0.50000009224E+02 0.  0.
         12    1    1    2    0    0 -0.31013389511E+02  0.73480612399E+01  0.94652519859E+00  0.31886050915E+02  0.00000000000E+00 0. -1.
         11    1    3    3    0    0  0.34620551776E+01  0.25363371057E+00  0.24245663641E+01  0.42342270164E+01  0.51100000000E-03 0. -1.
        -11    1    3    3    0    0  0.23570693145E+01  0.16482262987E+02 -0.10235371536E+02  0.19544400724E+02  0.51100000000E-03 0.  1.
        -12    1    3    3    0    0  0.25194265019E+02 -0.24083957938E+02  0.68642799731E+01  0.35523321345E+02  0.00000000000E+00 0.  1.
</event>
<event>
 7    1  0.7755875E-012  0.5930200E+02  0.7816164E-02  0.1266605E+00
        -11   -1    0    0    0    0  0.00000000000E+00  0.00000000000E+00  0.45593999997E+02  0.45594000000E+02  0.51100000000E-03 0.  1.
         11   -1    0    0    0    0 -0.00000000000E+00 -0.00000000000E+00 -0.45593999997E+02  0.45594000000E+02  0.51100000000E-03 0. -1.
    9900012    2    1    2    0    0 -0.82884312696E-01 -0.31256153596E+02  0.63058122308E+01  0.59301995620E+02  0.50000094092E+02 0.  0.
         12    1    1    2    0    0  0.82884312696E-01  0.31256153596E+02 -0.63058122308E+01  0.31886004380E+02  0.00000000000E+00 0. -1.
         11    1    3    3    0    0 -0.18197514208E+02 -0.23563633928E+01 -0.79056985124E+01  0.19980041067E+02  0.51100000000E-03 0. -1.
        -11    1    3    3    0    0  0.15155664435E+02 -0.16990506282E+02  0.14595795506E+02  0.27044569046E+02  0.51100000000E-03 0.  1.
         12    1    3    3    0    0  0.29589654605E+01 -0.11909283922E+02 -0.38428476274E+00  0.12277385507E+02  0.00000000000E+00 0. -1.
</event>
<event>
 7    1  0.7755875E-012  0.5930195E+02  0.7816164E-02  0.1266605E+00
        -11   -1    0    0    0    0  0.00000000000E+00  0.00000000000E+00  0.45593999997E+02  0.45594000000E+02  0.51100000000E-03 0. -1.
         11   -1    0    0    0    0 -0.00000000000E+00 -0.00000000000E+00 -0.45593999997E+02  0.45594000000E+02  0.51100000000E-03 0.  1.
    9900012    2    1    2    0    0 -0.26750750269E+02 -0.26677540130E+01 -0.17146446020E+02  0.59301950346E+02  0.50000011523E+02 0.  0.
         12    1    1    2    0    0  0.26750750269E+02  0.26677540130E+01  0.17146446020E+02  0.31886049654E+02  0.00000000000E+00 0. -1.
         11    1    3    3    0    0 -0.17349192845E+02  0.10005187778E+01  0.19566044565E+01  0.17487819517E+02  0.51100000000E-03 0. -1.
        -11    1    3    3    0    0  0.50085077349E+01 -0.14827968407E+02 -0.17560596223E+02  0.23522932146E+02  0.51100000000E-03 0.  1.
        -12    1    3    3    0    0 -0.14410065159E+02  0.11159695616E+02 -0.15424542537E+01  0.18291198683E+02  0.00000000000E+00 0.  1.
</event>
<event>
 7    1  0.7755875E-012  0.5930195E+02  0.7816164E-02  0.1266605E+00
        -11   -1    0    0    0    0  0.00000000000E+00  0.00000000000E+00  0.45593999997E+02  0.45594000000E+02  0.51100000000E-03 0.  1.
         11   -1    0    0    0    0 -0.00000000000E+00 -0.00000000000E+00 -0.45593999997E+02  0.45594000000E+02  0.51100000000E-03 0. -1.
    9900012    2    1    2    0    0  0.25789256735E+02  0.96222656968E+01  0.16094922701E+02  0.59301948240E+02  0.50000007682E+02 0.  0.
         12    1    1    2    0    0 -0.25789256735E+02 -0.96222656968E+01 -0.16094922701E+02  0.31886051760E+02  0.00000000000E+00 0. -1.
         11    1    3    3    0    0  0.21538338871E+02  0.11057413831E+02  0.19323054209E+02  0.30976553491E+02  0.51100000000E-03 0.  1.
        -11    1    3    3    0    0  0.10465535441E+02 -0.10416156379E+02 -0.75450233548E+01  0.16581650203E+02  0.51100000000E-03 0. -1.
        -12    1    3    3    0    0 -0.62146175770E+01  0.89810082448E+01  0.43168918470E+01  0.11743744545E+02  0.00000000000E+00 0.  1.
</event>
<event>
 7    1  0.7755875E-012  0.5930197E+02  0.7816164E-02  0.1266605E+00
        -11   -1    0    0    0    0  0.00000000000E+00  0.00000000000E+00  0.45593999997E+02  0.45594000000E+02  0.51100000000E-03 0. -1.
         11   -1    0    0    0    0 -0.00000000000E+00 -0.00000000000E+00 -0.45593999997E+02  0.45594000000E+02  0.51100000000E-03 0.  1.
    9900012    2    1    2    0    0  0.29964039850E+02 -0.91513041065E-01 -0.10902615064E+02  0.59301967415E+02  0.50000042652E+02 0.  0.
         12    1    1    2    0    0 -0.29964039850E+02  0.91513041065E-01  0.10902615064E+02  0.31886032585E+02  0.00000000000E+00 0. -1.
         11    1    3    3    0    0  0.47429428472E+01 -0.21885278829E+01  0.30873488219E+01  0.60676918310E+01  0.51100000000E-03 0. -1.
        -11    1    3    3    0    0  0.28022633780E+02 -0.90714693802E+01 -0.23986636094E+02  0.37985764071E+02  0.51100000000E-03 0.  1.
        -12    1    3    3    0    0 -0.28015367772E+01  0.11168484222E+02  0.99966722077E+01  0.15248511513E+02  0.00000000000E+00 0.  1.
</event>
<event>
 7    1  0.7755875E-012  0.5930193E+02  0.7816164E-02  0.1266605E+00
        -11   -1    0    0    0    0  0.00000000000E+00  0.00000000000E+00  0.45593999997E+02  0.45594000000E+02  0.51100000000E-03 0.  1.
         11   -1    0    0    0    0 -0.00000000000E+00 -0.00000000000E+00 -0.45593999997E+02  0.45594000000E+02  0.51100000000E-03 0. -1.
    9900012    2    1    2    0    0  0.30885631996E+02 -0.16794075191E+01  0.77445848367E+01  0.59301933016E+02  0.49999979918E+02 0.  0.
         12    1    1    2    0    0 -0.30885631996E+02  0.16794075191E+01 -0.77445848367E+01  0.31886066984E+02  0.00000000000E+00 0. -1.
         11    1    3    3    0    0 -0.10098094556E+01 -0.95513666832E+01 -0.14939625022E+02  0.17760650796E+02  0.51100000000E-03 0. -1.
        -11    1    3    3    0    0  0.16036767491E+02  0.97964026572E+01  0.13170254567E+02  0.22947832625E+02  0.51100000000E-03 0.  1.
         12    1    3    3    0    0  0.15858673960E+02 -0.19244434930E+01  0.95139552914E+01  0.18593449595E+02  0.00000000000E+00 0. -1.
</event>
<event>
 7    1  0.7755875E-012  0.5930195E+02  0.7816164E-02  0.1266605E+00
        -11   -1    0    0    0    0  0.00000000000E+00  0.00000000000E+00  0.45593999997E+02  0.45594000000E+02  0.51100000000E-03 0. -1.
         11   -1    0    0    0    0 -0.00000000000E+00 -0.00000000000E+00 -0.45593999997E+02  0.45594000000E+02  0.51100000000E-03 0.  1.
    9900012    2    1    2    0    0  0.15556233801E+02 -0.26848096558E+02  0.73419059687E+01  0.59301948471E+02  0.50000008104E+02 0.  0.
         12    1    1    2    0    0 -0.15556233801E+02  0.26848096558E+02 -0.73419059687E+01  0.31886051529E+02  0.00000000000E+00 0. -1.
         11    1    3    3    0    0  0.51514087462E+01 -0.23219281481E+02 -0.12475658790E+02  0.26857291506E+02  0.51100000000E-03 0. -1.
        -11    1    3    3    0    0  0.17133038103E+02 -0.95293874219E+00  0.88627932396E+01  0.19313161086E+02  0.51100000000E-03 0.  1.
         12    1    3    3    0    0 -0.67282130479E+01 -0.26758763344E+01  0.10954771519E+02  0.13131495879E+02  0.00000000000E+00 0. -1.
</event>
<event>
 7    1  0.7755875E-012  0.5930194E+02  0.7816164E-02  0.1266605E+00
        -11   -1    0    0    0    0  0.00000000000E+00  0.00000000000E+00  0.45593999997E+02  0.45594000000E+02  0.51100000000E-03 0. -1.
         11   -1    0    0    0    0 -0.00000000000E+00 -0.00000000000E+00 -0.45593999997E+02  0.45594000000E+02  0.51100000000E-03 0.  1.
    9900012    2    1    2    0    0 -0.97221835541E+01 -0.30367744145E+02  0.15826302140E-01  0.59301937402E+02  0.49999987917E+02 0.  0.
         12    1    1    2    0    0  0.97221835541E+01  0.30367744145E+02 -0.15826302140E-01  0.31886062598E+02  0.00000000000E+00 0. -1.
         11    1    3    3    0    0 -0.88936167971E+01 -0.36371007220E+01 -0.19611993230E+02  0.21839304020E+02  0.51100000000E-03 0. -1.
        -11    1    3    3    0    0 -0.24798994254E+01 -0.21137123771E+02  0.52109536001E+01  0.21910772240E+02  0.51100000000E-03 0.  1.
         12    1    3    3    0    0  0.16513326683E+01 -0.55935196515E+01  0.14416865932E+02  0.15551861141E+02  0.00000000000E+00 0. -1.
</event>
<event>
 7    1  0.7755875E-012  0.5930192E+02  0.7816164E-02  0.1266605E+00
        -11   -1    0    0    0    0  0.00000000000E+00  0.00000000000E+00  0.45593999997E+02  0.45594000000E+02  0.51100000000E-03 0. -1.
         11   -1    0    0    0    0 -0.00000000000E+00 -0.00000000000E+00 -0.45593999997E+02  0.45594000000E+02  0.51100000000E-03 0.  1.
    9900012    2    1    2    0    0  0.93818085990E+01 -0.15431205675E+01 -0.30435544065E+02  0.59301923160E+02  0.49999961943E+02 0.  0.
         12    1    1    2    0    0 -0.93818085990E+01  0.15431205675E+01  0.30435544065E+02  0.31886076840E+02  0.00000000000E+00 0. -1.
         11    1    3    3    0    0 -0.12992642581E+02 -0.42728495575E+01  0.13006363416E+01  0.13738910428E+02  0.51100000000E-03 0. -1.
        -11    1    3    3    0    0  0.12880206107E+02  0.13763032796E+01 -0.33405072297E+02  0.35828658579E+02  0.51100000000E-03 0.  1.
         12    1    3    3    0    0  0.94942450728E+01  0.13534257105E+01  0.16688918904E+01  0.97343541542E+01  0.00000000000E+00 0. -1.
</event>
<event>
 7    1  0.7755875E-012  0.5930203E+02  0.7816164E-02  0.1266604E+00
        -11   -1    0    0    0    0  0.00000000000E+00  0.00000000000E+00  0.45593999997E+02  0.45594000000E+02  0.51100000000E-03 0. -1.
         11   -1    0    0    0    0 -0.00000000000E+00 -0.00000000000E+00 -0.45593999997E+02  0.45594000000E+02  0.51100000000E-03 0.  1.
    9900012    2    1    2    0    0  0.19670691273E+02 -0.23011759393E+02  0.10011890720E+02  0.59302029397E+02  0.50000155693E+02 0.  0.
         12    1    1    2    0    0 -0.19670691273E+02  0.23011759393E+02 -0.10011890720E+02  0.31885970603E+02  0.00000000000E+00 0. -1.
         11    1    3    3    0    0  0.60014411858E+01 -0.20428503361E+02  0.18963355533E+02  0.28512276289E+02  0.51100000000E-03 0. -1.
        -11    1    3    3    0    0  0.15232580447E+02  0.61886009209E+01  0.21204555065E+01  0.16577895532E+02  0.51100000000E-03 0.  1.
        -12    1    3    3    0    0 -0.15633303605E+01 -0.87718569528E+01 -0.11071920319E+02  0.14211857576E+02  0.00000000000E+00 0.  1.
</event>
<event>
 7    1  0.7755875E-012  0.5930202E+02  0.7816164E-02  0.1266605E+00
        -11   -1    0    0    0    0  0.00000000000E+00  0.00000000000E+00  0.45593999997E+02  0.45594000000E+02  0.51100000000E-03 0. -1.
         11   -1    0    0    0    0 -0.00000000000E+00 -0.00000000000E+00 -0.45593999997E+02  0.45594000000E+02  0.51100000000E-03 0.  1.
    9900012    2    1    2    0    0  0.94243319074E+00  0.28594543207E+02  0.14077633120E+02  0.59302018193E+02  0.50000135259E+02 0.  0.
         12    1    1    2    0    0 -0.94243319074E+00 -0.28594543207E+02 -0.14077633120E+02  0.31885981807E+02  0.00000000000E+00 0. -1.
         11    1    3    3    0    0  0.15347560567E+02  0.10005487487E+02  0.20116534005E+02  0.27209048786E+02  0.51100000000E-03 0. -1.
        -11    1    3    3    0    0  0.10497464158E+01  0.45504012599E+01 -0.98203826539E+01  0.10874191229E+02  0.51100000000E-03 0.  1.
         12    1    3    3    0    0 -0.15454873792E+02  0.14038654461E+02  0.37814817681E+01  0.21218778178E+02  0.00000000000E+00 0. -1.
</event>
<event>
 7    1  0.7755875E-012  0.5930189E+02  0.7816164E-02  0.1266605E+00
        -11   -1    0    0    0    0  0.00000000000E+00  0.00000000000E+00  0.45593999997E+02  0.45594000000E+02  0.51100000000E-03 0. -1.
         11   -1    0    0    0    0 -0.00000000000E+00 -0.00000000000E+00 -0.45593999997E+02  0.45594000000E+02  0.51100000000E-03 0.  1.
    9900012    2    1    2    0    0  0.16004695367E+02 -0.97707810765E+01 -0.25789635621E+02  0.59301894216E+02  0.49999909155E+02 0.  0.
         12    1    1    2    0    0 -0.16004695367E+02  0.97707810765E+01  0.25789635621E+02  0.31886105784E+02  0.00000000000E+00 0. -1.
         11    1    3    3    0    0 -0.18052271090E+01 -0.88917225890E+01  0.57770747667E+01  0.10756215349E+02  0.51100000000E-03 0. -1.
        -11    1    3    3    0    0  0.26791226518E+02 -0.27440441910E+01 -0.18879356336E+02  0.32889659360E+02  0.51100000000E-03 0.  1.
        -12    1    3    3    0    0 -0.89813040425E+01  0.18649857035E+01 -0.12687354052E+02  0.15656019507E+02  0.00000000000E+00 0.  1.
</event>
<event>
 7    1  0.7755875E-012  0.5930193E+02  0.7816164E-02  0.1266605E+00
        -11   -1    0    0    0    0  0.00000000000E+00  0.00000000000E+00  0.45593999997E+02  0.45594000000E+02  0.51100000000E-03 0. -1.
         11   -1    0    0    0    0 -0.00000000000E+00 -0.00000000000E+00 -0.45593999997E+02  0.45594000000E+02  0.51100000000E-03 0.  1.
    9900012    2    1    2    0    0 -0.20346810438E+02  0.22428312184E+02  0.99849787159E+01  0.59301926514E+02  0.49999968059E+02 0.  0.
         12    1    1    2    0    0  0.20346810438E+02 -0.22428312184E+02 -0.99849787159E+01  0.31886073486E+02  0.00000000000E+00 0. -1.
         11    1    3    3    0    0  0.76097683752E+01  0.94035149645E+01  0.75304386013E+01  0.14249286796E+02  0.51100000000E-03 0. -1.
        -11    1    3    3    0    0 -0.28602617067E+02 -0.15165468354E+01  0.75665546548E+01  0.29625366951E+02  0.51100000000E-03 0.  1.
        -12    1    3    3    0    0  0.64603825446E+00  0.14541344055E+02 -0.51120145402E+01  0.15427272766E+02  0.00000000000E+00 0.  1.
</event>
<event>
 7    1  0.7755875E-012  0.5930195E+02  0.7816164E-02  0.1266605E+00
        -11   -1    0    0    0    0  0.00000000000E+00  0.00000000000E+00  0.45593999997E+02  0.45594000000E+02  0.51100000000E-03 0. -1.
         11   -1    0    0    0    0 -0.00000000000E+00 -0.00000000000E+00 -0.45593999997E+02  0.45594000000E+02  0.51100000000E-03 0.  1.
    9900012    2    1    2    0    0 -0.17874904311E+02 -0.21384294521E+02 -0.15489350336E+02  0.59301949286E+02  0.50000009590E+02 0.  0.
         12    1    1    2    0    0  0.17874904311E+02  0.21384294521E+02  0.15489350336E+02  0.31886050714E+02  0.00000000000E+00 0. -1.
         11    1    3    3    0    0 -0.30835159191E+01  0.10550468540E+02 -0.70753544120E+01  0.13072149676E+02  0.51100000000E-03 0. -1.
        -11    1    3    3    0    0 -0.11470285045E+00 -0.11269268199E+02 -0.16181586041E+02  0.19719363315E+02  0.51100000000E-03 0.  1.
         12    1    3    3    0    0 -0.14676685541E+02 -0.20665494862E+02  0.77675901169E+01  0.26510436295E+02  0.00000000000E+00 0. -1.
</event>
<event>
 7    1  0.7755875E-012  0.5930191E+02  0.7816164E-02  0.1266605E+00
        -11   -1    0    0    0    0  0.00000000000E+00  0.00000000000E+00  0.45593999997E+02  0.45594000000E+02  0.51100000000E-03 0.  1.
         11   -1    0    0    0    0 -0.00000000000E+00 -0.00000000000E+00 -0.45593999997E+02  0.45594000000E+02  0.51100000000E-03 0. -1.
    9900012    2    1    2    0    0  0.18901456598E+02 -0.22688515500E+02  0.12028663120E+02  0.59301913166E+02  0.49999943715E+02 0.  0.
         12    1    1    2    0    0 -0.18901456598E+02  0.22688515500E+02 -0.12028663120E+02  0.31886086834E+02  0.00000000000E+00 0. -1.
         11    1    3    3    0    0  0.92995637594E+00  0.62025714462E+01 -0.14269979142E+02  0.15587463437E+02  0.51100000000E-03 0. -1.
        -11    1    3    3    0    0  0.13605876344E+02 -0.20441130910E+02  0.14343849111E+02  0.28437751520E+02  0.51100000000E-03 0.  1.
        -12    1    3    3    0    0  0.43656238783E+01 -0.84499560371E+01  0.11954793152E+02  0.15276698209E+02  0.00000000000E+00 0.  1.
</event>
<event>
 7    1  0.7755875E-012  0.5930192E+02  0.7816164E-02  0.1266605E+00
        -11   -1    0    0    0    0  0.00000000000E+00  0.00000000000E+00  0.45593999997E+02  0.45594000000E+02  0.51100000000E-03 0.  1.
         11   -1    0    0    0    0 -0.00000000000E+00 -0.00000000000E+00 -0.45593999997E+02  0.45594000000E+02  0.51100000000E-03 0. -1.
    9900012    2    1    2    0    0  0.20942052577E+02 -0.10893176350E+02  0.21435751843E+02  0.59301916606E+02  0.49999949990E+02 0.  0.
         12    1    1    2    0    0 -0.20942052577E+02  0.10893176350E+02 -0.21435751843E+02  0.31886083394E+02  0.00000000000E+00 0. -1.
         11    1    3    3    0    0  0.31300419606E+02  0.21118267194E+00  0.10185702067E+01  0.31317700286E+02  0.51100000000E-03 0. -1.
        -11    1    3    3    0    0 -0.47748499585E+01 -0.94523475416E+01  0.19358809738E+02  0.22066027755E+02  0.51100000000E-03 0.  1.
         12    1    3    3    0    0 -0.55835170713E+01 -0.16520114804E+01  0.10583718988E+01  0.59181885652E+01  0.00000000000E+00 0. -1.
</event>
<event>
 7    1  0.7755875E-012  0.5930193E+02  0.7816164E-02  0.1266605E+00
        -11   -1    0    0    0    0  0.00000000000E+00  0.00000000000E+00  0.45593999997E+02  0.45594000000E+02  0.51100000000E-03 0. -1.
         11   -1    0    0    0    0 -0.00000000000E+00 -0.00000000000E+00 -0.45593999997E+02  0.45594000000E+02  0.51100000000E-03 0.  1.
    9900012    2    1    2    0    0  0.52030061985E+00 -0.37032022790E+01 -0.31666021727E+02  0.59301931696E+02  0.49999977511E+02 0.  0.
         12    1    1    2    0    0 -0.52030061985E+00  0.37032022790E+01  0.31666021727E+02  0.31886068304E+02  0.00000000000E+00 0. -1.
         11    1    3    3    0    0 -0.22897216186E+01 -0.24304350262E+02 -0.10956752963E+02  0.26758077332E+02  0.51100000000E-03 0. -1.
        -11    1    3    3    0    0  0.68266660503E+01  0.51436316376E+01 -0.10703108543E+02  0.13697329978E+02  0.51100000000E-03 0.  1.
         12    1    3    3    0    0 -0.40166438118E+01  0.15457516345E+02 -0.10006160221E+02  0.18846524386E+02  0.00000000000E+00 0. -1.
</event>
<event>
 7    1  0.7755875E-012  0.5930200E+02  0.7816164E-02  0.1266605E+00
        -11   -1    0    0    0    0  0.00000000000E+00  0.00000000000E+00  0.45593999997E+02  0.45594000000E+02  0.51100000000E-03 0.  1.
         11   -1    0    0    0    0 -0.00000000000E+00 -0.00000000000E+00 -0.45593999997E+02  0.45594000000E+02  0.51100000000E-03 0. -1.
    9900012    2    1    2    0    0  0.26715426927E+02  0.14466894921E+02  0.96804916311E+01  0.59301999893E+02  0.50000101885E+02 0.  0.
         12    1    1    2    0    0 -0.26715426927E+02 -0.14466894921E+02 -0.96804916311E+01  0.31886000107E+02  0.00000000000E+00 0. -1.
         11    1    3    3    0    0  0.62462455544E+01  0.76077726770E+01 -0.18463784254E+02  0.20923793104E+02  0.51100000000E-03 0. -1.
        -11    1    3    3    0    0  0.15774318213E+02 -0.17379737970E+01  0.13933735543E+02  0.21118680225E+02  0.51100000000E-03 0.  1.
         12    1    3    3    0    0  0.46948631605E+01  0.85970960413E+01  0.14210540342E+02  0.17259526565E+02  0.00000000000E+00 0. -1.
</event>
<event>
 7    1  0.7755875E-012  0.5930193E+02  0.7816164E-02  0.1266605E+00
        -11   -1    0    0    0    0  0.00000000000E+00  0.00000000000E+00  0.45593999997E+02  0.45594000000E+02  0.51100000000E-03 0.  1.
         11   -1    0    0    0    0 -0.00000000000E+00 -0.00000000000E+00 -0.45593999997E+02  0.45594000000E+02  0.51100000000E-03 0. -1.
    9900012    2    1    2    0    0  0.19721000951E+02 -0.55278315793E+01 -0.24438632597E+02  0.59301928375E+02  0.49999971454E+02 0.  0.
         12    1    1    2    0    0 -0.19721000951E+02  0.55278315793E+01  0.24438632597E+02  0.31886071625E+02  0.00000000000E+00 0. -1.
         11    1    3    3    0    0 -0.43617472795E+01 -0.68134858123E+01  0.11976764872E+02  0.14453073213E+02  0.51100000000E-03 0. -1.
        -11    1    3    3    0    0  0.11795666994E+02  0.51222574695E+01 -0.14073048988E+02  0.19063734931E+02  0.51100000000E-03 0.  1.
         12    1    3    3    0    0  0.12287081236E+02 -0.38366032365E+01 -0.22342348481E+02  0.25785120231E+02  0.00000000000E+00 0. -1.
</event>
<event>
 7    1  0.7755875E-012  0.5930195E+02  0.7816164E-02  0.1266605E+00
        -11   -1    0    0    0    0  0.00000000000E+00  0.00000000000E+00  0.45593999997E+02  0.45594000000E+02  0.51100000000E-03 0.  1.
         11   -1    0    0    0    0 -0.00000000000E+00 -0.00000000000E+00 -0.45593999997E+02  0.45594000000E+02  0.51100000000E-03 0. -1.
    9900012    2    1    2    0    0 -0.38685974569E+01  0.11444761402E+02  0.29508843603E+02  0.59301945672E+02  0.50000002999E+02 0.  0.
         12    1    1    2    0    0  0.38685974569E+01 -0.11444761402E+02 -0.29508843603E+02  0.31886054328E+02  0.00000000000E+00 0. -1.
         11    1    3    3    0    0  0.17240432762E+02  0.19852247147E+02  0.15238344315E+02  0.30389988093E+02  0.51100000000E-03 0. -1.
        -11    1    3    3    0    0 -0.17747879706E+02 -0.50886961136E+01  0.60463093256E+01  0.19427813024E+02  0.51100000000E-03 0.  1.
        -12    1    3    3    0    0 -0.33611505126E+01 -0.33187896316E+01  0.82241899624E+01  0.94841445542E+01  0.00000000000E+00 0.  1.
</event>
<event>
 7    1  0.7755875E-012  0.5930190E+02  0.7816164E-02  0.1266605E+00
        -11   -1    0    0    0    0  0.00000000000E+00  0.00000000000E+00  0.45593999997E+02  0.45594000000E+02  0.51100000000E-03 0. -1.
         11   -1    0    0    0    0 -0.00000000000E+00 -0.00000000000E+00 -0.45593999997E+02  0.45594000000E+02  0.51100000000E-03 0.  1.
    9900012    2    1    2    0    0  0.26437601008E+02  0.14163939375E+02 -0.10824033400E+02  0.59301896056E+02  0.49999912511E+02 0.  0.
         12    1    1    2    0    0 -0.26437601008E+02 -0.14163939375E+02  0.10824033400E+02  0.31886103944E+02  0.00000000000E+00 0. -1.
         11    1    3    3    0    0 -0.71812673119E+01  0.71610705139E+01  0.52264825228E+01  0.11409103862E+02  0.51100000000E-03 0. -1.
        -11    1    3    3    0    0  0.16011701899E+02 -0.76930190739E+01 -0.17469481356E+02  0.24914652703E+02  0.51100000000E-03 0.  1.
        -12    1    3    3    0    0  0.17607166421E+02  0.14695887935E+02  0.14189654335E+01  0.22978139491E+02  0.00000000000E+00 0.  1.
</event>
<event>
 7    1  0.7755875E-012  0.5930195E+02  0.7816164E-02  0.1266605E+00
        -11   -1    0    0    0    0  0.00000000000E+00  0.00000000000E+00  0.45593999997E+02  0.45594000000E+02  0.51100000000E-03 0.  1.
         11   -1    0    0    0    0 -0.00000000000E+00 -0.00000000000E+00 -0.45593999997E+02  0.45594000000E+02  0.51100000000E-03 0. -1.
    9900012    2    1    2    0    0 -0.18435319587E+00  0.31500066148E+01  0.31729541508E+02  0.59301947688E+02  0.50000006675E+02 0.  0.
         12    1    1    2    0    0  0.18435319587E+00 -0.31500066148E+01 -0.31729541508E+02  0.31886052312E+02  0.00000000000E+00 0. -1.
         11    1    3    3    0    0 -0.82378130876E+01  0.93489078735E+01 -0.81804989842E+01  0.14905844719E+02  0.51100000000E-03 0. -1.
        -11    1    3    3    0    0  0.56440710203E+01 -0.11582025799E+02  0.32251968695E+02  0.34730222346E+02  0.51100000000E-03 0.  1.
         12    1    3    3    0    0  0.24093888714E+01  0.53831245403E+01  0.76580717974E+01  0.96658806223E+01  0.00000000000E+00 0. -1.
</event>
<event>
 7    1  0.7755875E-012  0.5930196E+02  0.7816164E-02  0.1266605E+00
        -11   -1    0    0    0    0  0.00000000000E+00  0.00000000000E+00  0.45593999997E+02  0.45594000000E+02  0.51100000000E-03 0. -1.
         11   -1    0    0    0    0 -0.00000000000E+00 -0.00000000000E+00 -0.45593999997E+02  0.45594000000E+02  0.51100000000E-03 0.  1.
    9900012    2    1    2    0    0 -0.20615627313E+02  0.10392542361E+02 -0.21993419097E+02  0.59301960581E+02  0.50000030189E+02 0.  0.
         12    1    1    2    0    0  0.20615627313E+02 -0.10392542361E+02  0.21993419097E+02  0.31886039419E+02  0.00000000000E+00 0. -1.
         11    1    3    3    0    0  0.25328066831E+01  0.57422277031E+01  0.33559906972E+01  0.71169489607E+01  0.51100000000E-03 0. -1.
        -11    1    3    3    0    0 -0.33418280721E+02 -0.18241012994E+01 -0.18221792806E+02  0.38106988404E+02  0.51100000000E-03 0.  1.
        -12    1    3    3    0    0  0.10269846725E+02  0.64744159575E+01 -0.71276169885E+01  0.14078023216E+02  0.00000000000E+00 0.  1.
</event>
<event>
 7    1  0.7755875E-012  0.5930193E+02  0.7816164E-02  0.1266605E+00
        -11   -1    0    0    0    0  0.00000000000E+00  0.00000000000E+00  0.45593999997E+02  0.45594000000E+02  0.51100000000E-03 0.  1.
         11   -1    0    0    0    0 -0.00000000000E+00 -0.00000000000E+00 -0.45593999997E+02  0.45594000000E+02  0.51100000000E-03 0. -1.
    9900012    2    1    2    0    0  0.72151965225E+01 -0.81709582072E+00  0.31048264948E+02  0.59301929958E+02  0.49999974340E+02 0.  0.
         12    1    1    2    0    0 -0.72151965225E+01  0.81709582072E+00 -0.31048264948E+02  0.31886070042E+02  0.00000000000E+00 0. -1.
         11    1    3    3    0    0  0.21015142677E+02  0.17016415367E+02  0.16903992185E+02  0.31889489895E+02  0.51100000000E-03 0. -1.
        -11    1    3    3    0    0 -0.50224688673E+01 -0.90681573911E+01  0.31427560200E+01  0.10832062946E+02  0.51100000000E-03 0.  1.
         12    1    3    3    0    0 -0.87774772876E+01 -0.87653537968E+01  0.11001516743E+02  0.16580377118E+02  0.00000000000E+00 0. -1.
</event>
<event>
 7    1  0.7755875E-012  0.5930195E+02  0.7816164E-02  0.1266605E+00
        -11   -1    0    0    0    0  0.00000000000E+00  0.00000000000E+00  0.45593999997E+02  0.45594000000E+02  0.51100000000E-03 0. -1.
         11   -1    0    0    0    0 -0.00000000000E+00 -0.00000000000E+00 -0.45593999997E+02  0.45594000000E+02  0.51100000000E-03 0.  1.
    9900012    2    1    2    0    0  0.25818079653E+02 -0.16176362165E+01 -0.18642166875E+02  0.59301947098E+02  0.50000005599E+02 0.  0.
         12    1    1    2    0    0 -0.25818079653E+02  0.16176362165E+01  0.18642166875E+02  0.31886052902E+02  0.00000000000E+00 0. -1.
         11    1    3    3    0    0  0.74780019779E+01  0.14236750373E+01 -0.25501580730E+01  0.80281175036E+01  0.51100000000E-03 0. -1.
        -11    1    3    3    0    0 -0.97480772397E+00 -0.21624036760E+02 -0.96971595227E+01  0.23718855769E+02  0.51100000000E-03 0.  1.
        -12    1    3    3    0    0  0.19314885399E+02  0.18582725506E+02 -0.63948492795E+01  0.27554973826E+02  0.00000000000E+00 0.  1.
</event>
<event>
 7    1  0.7755875E-012  0.5930196E+02  0.7816164E-02  0.1266605E+00
        -11   -1    0    0    0    0  0.00000000000E+00  0.00000000000E+00  0.45593999997E+02  0.45594000000E+02  0.51100000000E-03 0.  1.
         11   -1    0    0    0    0 -0.00000000000E+00 -0.00000000000E+00 -0.45593999997E+02  0.45594000000E+02  0.51100000000E-03 0. -1.
    9900012    2    1    2    0    0 -0.27721842305E+02  0.15754387401E+02  0.13557791800E+00  0.59301958469E+02  0.50000026337E+02 0.  0.
         12    1    1    2    0    0  0.27721842305E+02 -0.15754387401E+02 -0.13557791800E+00  0.31886041531E+02  0.00000000000E+00 0. -1.
         11    1    3    3    0    0 -0.31887944271E+02  0.33307924368E+01 -0.14123216084E+02  0.35034274659E+02  0.51100000000E-03 0.  1.
        -11    1    3    3    0    0  0.33032948865E+01  0.11985464494E+02  0.17170834618E+02  0.21199072574E+02  0.51100000000E-03 0. -1.
        -12    1    3    3    0    0  0.86280707948E+00  0.43813047038E+00 -0.29120406163E+01  0.30686112358E+01  0.00000000000E+00 0.  1.
</event>
<event>
 7    1  0.7755875E-012  0.5930192E+02  0.7816164E-02  0.1266605E+00
        -11   -1    0    0    0    0  0.00000000000E+00  0.00000000000E+00  0.45593999997E+02  0.45594000000E+02  0.51100000000E-03 0.  1.
         11   -1    0    0    0    0 -0.00000000000E+00 -0.00000000000E+00 -0.45593999997E+02  0.45594000000E+02  0.51100000000E-03 0. -1.
    9900012    2    1    2    0    0 -0.16528318461E+02 -0.14021550767E+02  0.23386593459E+02  0.59301922307E+02  0.49999960386E+02 0.  0.
         12    1    1    2    0    0  0.16528318461E+02  0.14021550767E+02 -0.23386593459E+02  0.31886077693E+02  0.00000000000E+00 0. -1.
         11    1    3    3    0    0 -0.18482451061E+02 -0.17925101051E+02 -0.48389637516E+01  0.26197820813E+02  0.51100000000E-03 0. -1.
        -11    1    3    3    0    0  0.53065186313E+01 -0.42195159997E+01  0.54715207421E+01  0.87121176959E+01  0.51100000000E-03 0.  1.
         12    1    3    3    0    0 -0.33523860318E+01  0.81230662843E+01  0.22754036469E+02  0.24391983798E+02  0.00000000000E+00 0. -1.
</event>
<event>
 7    1  0.7755875E-012  0.5930193E+02  0.7816164E-02  0.1266605E+00
        -11   -1    0    0    0    0  0.00000000000E+00  0.00000000000E+00  0.45593999997E+02  0.45594000000E+02  0.51100000000E-03 0. -1.
         11   -1    0    0    0    0 -0.00000000000E+00 -0.00000000000E+00 -0.45593999997E+02  0.45594000000E+02  0.51100000000E-03 0.  1.
    9900012    2    1    2    0    0  0.81028671182E+01 -0.57428619119E+01 -0.30299911443E+02  0.59301928560E+02  0.49999971790E+02 0.  0.
         12    1    1    2    0    0 -0.81028671182E+01  0.57428619119E+01  0.30299911443E+02  0.31886071440E+02  0.00000000000E+00 0. -1.
         11    1    3    3    0    0  0.52235891346E+01  0.91808606824E+01 -0.16365124596E+01  0.10688884863E+02  0.51100000000E-03 0. -1.
        -11    1    3    3    0    0  0.71094762093E+00 -0.26695401229E+02 -0.23517648191E+02  0.35584121038E+02  0.51100000000E-03 0.  1.
        -12    1    3    3    0    0  0.21683303627E+01  0.11771678635E+02 -0.51457507918E+01  0.13028922659E+02  0.00000000000E+00 0.  1.
</event>
<event>
 7    1  0.7755875E-012  0.5930192E+02  0.7816164E-02  0.1266605E+00
        -11   -1    0    0    0    0  0.00000000000E+00  0.00000000000E+00  0.45593999997E+02  0.45594000000E+02  0.51100000000E-03 0.  1.
         11   -1    0    0    0    0 -0.00000000000E+00 -0.00000000000E+00 -0.45593999997E+02  0.45594000000E+02  0.51100000000E-03 0. -1.
    9900012    2    1    2    0    0  0.31325233614E+02 -0.22501684472E+01 -0.55125549009E+01  0.59301924974E+02  0.49999965251E+02 0.  0.
         12    1    1    2    0    0 -0.31325233614E+02  0.22501684472E+01  0.55125549009E+01  0.31886075026E+02  0.00000000000E+00 0. -1.
         11    1    3    3    0    0  0.10209959035E+02  0.11108643399E+02 -0.51080528891E+01  0.15929137650E+02  0.51100000000E-03 0. -1.
        -11    1    3    3    0    0  0.89902710032E+01 -0.26780500795E+01  0.17128824125E+02  0.19529299555E+02  0.51100000000E-03 0.  1.
         12    1    3    3    0    0  0.12125003575E+02 -0.10680761767E+02 -0.17533326137E+02  0.23843487770E+02  0.00000000000E+00 0. -1.
</event>
<event>
 7    1  0.7755875E-012  0.5930194E+02  0.7816164E-02  0.1266605E+00
        -11   -1    0    0    0    0  0.00000000000E+00  0.00000000000E+00  0.45593999997E+02  0.45594000000E+02  0.51100000000E-03 0. -1.
         11   -1    0    0    0    0 -0.00000000000E+00 -0.00000000000E+00 -0.45593999997E+02  0.45594000000E+02  0.51100000000E-03 0.  1.
    9900012    2    1    2    0    0  0.19465451124E+02 -0.25131087629E+02  0.24990827926E+01  0.59301940857E+02  0.49999994217E+02 0.  0.
         12    1    1    2    0    0 -0.19465451124E+02  0.25131087629E+02 -0.24990827926E+01  0.31886059143E+02  0.00000000000E+00 0. -1.
         11    1    3    3    0    0 -0.19009313981E+01  0.49313840305E+01 -0.11938474539E+02  0.13056004872E+02  0.51100000000E-03 0.  1.
        -11    1    3    3    0    0  0.48497418409E+01 -0.23050268377E+02  0.15620150202E+02  0.28263473968E+02  0.51100000000E-03 0. -1.
         12    1    3    3    0    0  0.16516640682E+02 -0.70122032826E+01 -0.11825928699E+01  0.17982462017E+02  0.00000000000E+00 0. -1.
</event>
<event>
 7    1  0.7755875E-012  0.5930194E+02  0.7816164E-02  0.1266605E+00
        -11   -1    0    0    0    0  0.00000000000E+00  0.00000000000E+00  0.45593999997E+02  0.45594000000E+02  0.51100000000E-03 0.  1.
         11   -1    0    0    0    0 -0.00000000000E+00 -0.00000000000E+00 -0.45593999997E+02  0.45594000000E+02  0.51100000000E-03 0. -1.
    9900012    2    1    2    0    0 -0.19046710130E+02 -0.19234200535E+02 -0.16851973840E+02  0.59301942556E+02  0.49999997317E+02 0.  0.
         12    1    1    2    0    0  0.19046710130E+02  0.19234200535E+02  0.16851973840E+02  0.31886057444E+02  0.00000000000E+00 0. -1.
         11    1    3    3    0    0 -0.30505448435E+01  0.13018989674E+02 -0.65254870807E+01  0.14878907819E+02  0.51100000000E-03 0. -1.
        -11    1    3    3    0    0 -0.73273216667E+01 -0.28228665210E+02  0.15177238961E+01  0.29203607113E+02  0.51100000000E-03 0.  1.
        -12    1    3    3    0    0 -0.86688436195E+01 -0.40245249991E+01 -0.11844210656E+02  0.15219427625E+02  0.00000000000E+00 0.  1.
</event>
<event>
 7    1  0.7755875E-012  0.5930194E+02  0.7816164E-02  0.1266605E+00
        -11   -1    0    0    0    0  0.00000000000E+00  0.00000000000E+00  0.45593999997E+02  0.45594000000E+02  0.51100000000E-03 0. -1.
         11   -1    0    0    0    0 -0.00000000000E+00 -0.00000000000E+00 -0.45593999997E+02  0.45594000000E+02  0.51100000000E-03 0.  1.
    9900012    2    1    2    0    0 -0.28279392684E+02  0.12249299854E+02 -0.81823912472E+01  0.59301938405E+02  0.49999989746E+02 0.  0.
         12    1    1    2    0    0  0.28279392684E+02 -0.12249299854E+02  0.81823912472E+01  0.31886061595E+02  0.00000000000E+00 0. -1.
         11    1    3    3    0    0 -0.55844623559E+01  0.78601056999E+01  0.76004711556E+01  0.12277403776E+02  0.51100000000E-03 0. -1.
        -11    1    3    3    0    0 -0.13275746245E+02 -0.12219444834E+02 -0.20547665616E+02  0.27345325614E+02  0.51100000000E-03 0.  1.
        -12    1    3    3    0    0 -0.94191840833E+01  0.16608638988E+02  0.47648032130E+01  0.19679209016E+02  0.00000000000E+00 0.  1.
</event>
<event>
 7    1  0.7755875E-012  0.5930194E+02  0.7816164E-02  0.1266605E+00
        -11   -1    0    0    0    0  0.00000000000E+00  0.00000000000E+00  0.45593999997E+02  0.45594000000E+02  0.51100000000E-03 0.  1.
         11   -1    0    0    0    0 -0.00000000000E+00 -0.00000000000E+00 -0.45593999997E+02  0.45594000000E+02  0.51100000000E-03 0. -1.
    9900012    2    1    2    0    0  0.13941481489E+02  0.25658470830E+02  0.12806190906E+02  0.59301944161E+02  0.50000000243E+02 0.  0.
         12    1    1    2    0    0 -0.13941481489E+02 -0.25658470830E+02 -0.12806190906E+02  0.31886055839E+02  0.00000000000E+00 0. -1.
         11    1    3    3    0    0  0.82263789835E+01  0.93397220660E+00  0.18265931954E+01  0.84783287401E+01  0.51100000000E-03 0. -1.
        -11    1    3    3    0    0 -0.30236979207E+01  0.35555710990E+02  0.72098407416E+01  0.36405125146E+02  0.51100000000E-03 0.  1.
        -12    1    3    3    0    0  0.87388004259E+01 -0.10831212366E+02  0.37697569695E+01  0.14418490275E+02  0.00000000000E+00 0.  1.
</event>
<event>
 7    1  0.7755875E-012  0.5930195E+02  0.7816164E-02  0.1266605E+00
        -11   -1    0    0    0    0  0.00000000000E+00  0.00000000000E+00  0.45593999997E+02  0.45594000000E+02  0.51100000000E-03 0.  1.
         11   -1    0    0    0    0 -0.00000000000E+00 -0.00000000000E+00 -0.45593999997E+02  0.45594000000E+02  0.51100000000E-03 0. -1.
    9900012    2    1    2    0    0  0.31696871513E+02 -0.30418808850E+01  0.16659436983E+01  0.59301951774E+02  0.50000014127E+02 0.  0.
         12    1    1    2    0    0 -0.31696871513E+02  0.30418808850E+01 -0.16659436983E+01  0.31886048226E+02  0.00000000000E+00 0. -1.
         11    1    3    3    0    0  0.31986185002E+02  0.76768137089E+01 -0.16543896323E+02  0.36820510664E+02  0.51100000000E-03 0. -1.
        -11    1    3    3    0    0  0.77184304270E+00 -0.61606378546E+01  0.36821346673E+01  0.72185397711E+01  0.51100000000E-03 0.  1.
         12    1    3    3    0    0 -0.10611565314E+01 -0.45580567393E+01  0.14527705355E+02  0.15262901339E+02  0.00000000000E+00 0. -1.
</event>
<event>
 7    1  0.7755875E-012  0.5930194E+02  0.7816164E-02  0.1266605E+00
        -11   -1    0    0    0    0  0.00000000000E+00  0.00000000000E+00  0.45593999997E+02  0.45594000000E+02  0.51100000000E-03 0.  1.
         11   -1    0    0    0    0 -0.00000000000E+00 -0.00000000000E+00 -0.45593999997E+02  0.45594000000E+02  0.51100000000E-03 0. -1.
    9900012    2    1    2    0    0  0.24680798493E+02 -0.18493513805E+02 -0.80974737499E+01  0.59301938025E+02  0.49999989053E+02 0.  0.
         12    1    1    2    0    0 -0.24680798493E+02  0.18493513805E+02  0.80974737499E+01  0.31886061975E+02  0.00000000000E+00 0. -1.
         11    1    3    3    0    0  0.68102503451E+01 -0.98344931984E+01 -0.13535932541E+02  0.18064280673E+02  0.51100000000E-03 0. -1.
        -11    1    3    3    0    0  0.16736197244E+02  0.11686965412E+02  0.13769666692E+01  0.20459264312E+02  0.51100000000E-03 0.  1.
        -12    1    3    3    0    0  0.11343509039E+01 -0.20345986019E+02  0.40614921216E+01  0.20778393040E+02  0.00000000000E+00 0.  1.
</event>
<event>
 7    1  0.7755875E-012  0.5930195E+02  0.7816164E-02  0.1266605E+00
        -11   -1    0    0    0    0  0.00000000000E+00  0.00000000000E+00  0.45593999997E+02  0.45594000000E+02  0.51100000000E-03 0.  1.
         11   -1    0    0    0    0 -0.00000000000E+00 -0.00000000000E+00 -0.45593999997E+02  0.45594000000E+02  0.51100000000E-03 0. -1.
    9900012    2    1    2    0    0  0.21408980494E+02 -0.38264921076E+00  0.23626878614E+02  0.59301948829E+02  0.50000008757E+02 0.  0.
         12    1    1    2    0    0 -0.21408980494E+02  0.38264921076E+00 -0.23626878614E+02  0.31886051171E+02  0.00000000000E+00 0. -1.
         11    1    3    3    0    0  0.34268354148E+02  0.46045554069E+01  0.21102469291E+02  0.40507236847E+02  0.51100000000E-03 0. -1.
        -11    1    3    3    0    0 -0.49585611597E+01 -0.59252584257E+01 -0.38195079848E+01  0.86188547785E+01  0.51100000000E-03 0.  1.
         12    1    3    3    0    0 -0.79008124949E+01  0.93805380803E+00  0.63439173080E+01  0.10175857204E+02  0.00000000000E+00 0. -1.
</event>
<event>
 7    1  0.7755875E-012  0.5930196E+02  0.7816164E-02  0.1266605E+00
        -11   -1    0    0    0    0  0.00000000000E+00  0.00000000000E+00  0.45593999997E+02  0.45594000000E+02  0.51100000000E-03 0.  1.
         11   -1    0    0    0    0 -0.00000000000E+00 -0.00000000000E+00 -0.45593999997E+02  0.45594000000E+02  0.51100000000E-03 0. -1.
    9900012    2    1    2    0    0  0.11862302773E+02  0.17752630968E+02  0.23682254708E+02  0.59301963535E+02  0.50000035577E+02 0.  0.
         12    1    1    2    0    0 -0.11862302773E+02 -0.17752630968E+02 -0.23682254708E+02  0.31886036465E+02  0.00000000000E+00 0. -1.
         11    1    3    3    0    0 -0.59729344983E+01  0.11386589031E+01  0.19419912138E+02  0.20349581773E+02  0.51100000000E-03 0. -1.
        -11    1    3    3    0    0  0.13060246645E+02  0.22314282545E+02  0.11749737019E+02  0.28399886764E+02  0.51100000000E-03 0.  1.
         12    1    3    3    0    0  0.47749906265E+01 -0.57003104797E+01 -0.74873944496E+01  0.10552494998E+02  0.00000000000E+00 0. -1.
</event>
<event>
 7    1  0.7755875E-012  0.5930193E+02  0.7816164E-02  0.1266605E+00
        -11   -1    0    0    0    0  0.00000000000E+00  0.00000000000E+00  0.45593999997E+02  0.45594000000E+02  0.51100000000E-03 0.  1.
         11   -1    0    0    0    0 -0.00000000000E+00 -0.00000000000E+00 -0.45593999997E+02  0.45594000000E+02  0.51100000000E-03 0. -1.
    9900012    2    1    2    0    0 -0.21914397743E+02  0.48478947831E+01  0.22649024102E+02  0.59301933999E+02  0.49999981710E+02 0.  0.
         12    1    1    2    0    0  0.21914397743E+02 -0.48478947831E+01 -0.22649024102E+02  0.31886066001E+02  0.00000000000E+00 0. -1.
         11    1    3    3    0    0 -0.31259738324E+02  0.99585256491E+01  0.21815686159E+02  0.39398827851E+02  0.51100000000E-03 0. -1.
        -11    1    3    3    0    0  0.97799228276E+01 -0.10451718635E+02  0.18996077984E+01  0.14439315184E+02  0.51100000000E-03 0.  1.
        -12    1    3    3    0    0 -0.43458224603E+00  0.53410877690E+01 -0.10662698558E+01  0.54637909633E+01  0.00000000000E+00 0.  1.
</event>
<event>
 7    1  0.7755875E-012  0.5930194E+02  0.7816164E-02  0.1266605E+00
        -11   -1    0    0    0    0  0.00000000000E+00  0.00000000000E+00  0.45593999997E+02  0.45594000000E+02  0.51100000000E-03 0. -1.
         11   -1    0    0    0    0 -0.00000000000E+00 -0.00000000000E+00 -0.45593999997E+02  0.45594000000E+02  0.51100000000E-03 0.  1.
    9900012    2    1    2    0    0 -0.16948136696E+02  0.23201977207E+02 -0.13825695398E+02  0.59301938201E+02  0.49999989374E+02 0.  0.
         12    1    1    2    0    0  0.16948136696E+02 -0.23201977207E+02  0.13825695398E+02  0.31886061799E+02  0.00000000000E+00 0. -1.
         11    1    3    3    0    0 -0.62494532384E+01 -0.11390568330E+02 -0.90501810503E+01  0.15833713714E+02  0.51100000000E-03 0. -1.
        -11    1    3    3    0    0  0.62740296091E+01  0.19372820285E+02 -0.32374602692E+01  0.20619184333E+02  0.51100000000E-03 0.  1.
         12    1    3    3    0    0 -0.16972713067E+02  0.15219725253E+02 -0.15380540785E+01  0.22849040154E+02  0.00000000000E+00 0. -1.
</event>
<event>
 7    1  0.7755875E-012  0.5930185E+02  0.7816164E-02  0.1266605E+00
        -11   -1    0    0    0    0  0.00000000000E+00  0.00000000000E+00  0.45593999997E+02  0.45594000000E+02  0.51100000000E-03 0. -1.
         11   -1    0    0    0    0 -0.00000000000E+00 -0.00000000000E+00 -0.45593999997E+02  0.45594000000E+02  0.51100000000E-03 0.  1.
    9900012    2    1    2    0    0  0.19689713550E+02  0.92714963645E+01 -0.23304100399E+02  0.59301850030E+02  0.49999828571E+02 0.  0.
         12    1    1    2    0    0 -0.19689713550E+02 -0.92714963645E+01  0.23304100399E+02  0.31886149970E+02  0.00000000000E+00 0. -1.
         11    1    3    3    0    0  0.97859886583E+01  0.11712645899E+02 -0.21106004970E+02  0.26046402708E+02  0.51100000000E-03 0. -1.
        -11    1    3    3    0    0  0.16260509259E+02  0.63625232075E+01  0.72070333484E+01  0.18889870113E+02  0.51100000000E-03 0.  1.
        -12    1    3    3    0    0 -0.63567843677E+01 -0.88036727418E+01 -0.94051287777E+01  0.14365577210E+02  0.00000000000E+00 0.  1.
</event>
<event>
 7    1  0.7755875E-012  0.5930194E+02  0.7816164E-02  0.1266605E+00
        -11   -1    0    0    0    0  0.00000000000E+00  0.00000000000E+00  0.45593999997E+02  0.45594000000E+02  0.51100000000E-03 0.  1.
         11   -1    0    0    0    0 -0.00000000000E+00 -0.00000000000E+00 -0.45593999997E+02  0.45594000000E+02  0.51100000000E-03 0. -1.
    9900012    2    1    2    0    0 -0.12688019801E+02 -0.11314567288E+02  0.26976199240E+02  0.59301943411E+02  0.49999998874E+02 0.  0.
         12    1    1    2    0    0  0.12688019801E+02  0.11314567288E+02 -0.26976199240E+02  0.31886056589E+02  0.00000000000E+00 0. -1.
         11    1    3    3    0    0 -0.10403824763E+01 -0.29456163047E+02  0.13263379701E+02  0.32321280583E+02  0.51100000000E-03 0. -1.
        -11    1    3    3    0    0 -0.54976537753E+01  0.53829591147E+01  0.94569340909E+01  0.12191556444E+02  0.51100000000E-03 0.  1.
         12    1    3    3    0    0 -0.61499835498E+01  0.12758636645E+02  0.42558854483E+01  0.14789106384E+02  0.00000000000E+00 0. -1.
</event>
<event>
 7    1  0.7755875E-012  0.5930200E+02  0.7816164E-02  0.1266605E+00
        -11   -1    0    0    0    0  0.00000000000E+00  0.00000000000E+00  0.45593999997E+02  0.45594000000E+02  0.51100000000E-03 0. -1.
         11   -1    0    0    0    0 -0.00000000000E+00 -0.00000000000E+00 -0.45593999997E+02  0.45594000000E+02  0.51100000000E-03 0.  1.
    9900012    2    1    2    0    0 -0.26733147985E+02 -0.14448760468E+02 -0.96586414334E+01  0.59301996258E+02  0.50000095256E+02 0.  0.
         12    1    1    2    0    0  0.26733147985E+02  0.14448760468E+02  0.96586414334E+01  0.31886003742E+02  0.00000000000E+00 0. -1.
         11    1    3    3    0    0 -0.13032703958E+01  0.14473032674E+02 -0.43676778372E+01  0.15173786556E+02  0.51100000000E-03 0. -1.
        -11    1    3    3    0    0 -0.27385679876E+02 -0.30638496549E+02 -0.42047573540E+01  0.41308266942E+02  0.51100000000E-03 0.  1.
        -12    1    3    3    0    0  0.19558022861E+01  0.17167034075E+01 -0.10862062422E+01  0.28199427604E+01  0.00000000000E+00 0.  1.
</event>
<event>
 7    1  0.7755875E-012  0.5930194E+02  0.7816164E-02  0.1266605E+00
        -11   -1    0    0    0    0  0.00000000000E+00  0.00000000000E+00  0.45593999997E+02  0.45594000000E+02  0.51100000000E-03 0.  1.
         11   -1    0    0    0    0 -0.00000000000E+00 -0.00000000000E+00 -0.45593999997E+02  0.45594000000E+02  0.51100000000E-03 0. -1.
    9900012    2    1    2    0    0  0.20724986127E+02 -0.13267915085E+02  0.20277028706E+02  0.59301944838E+02  0.50000001477E+02 0.  0.
         12    1    1    2    0    0 -0.20724986127E+02  0.13267915085E+02 -0.20277028706E+02  0.31886055162E+02  0.00000000000E+00 0. -1.
         11    1    3    3    0    0 -0.11332170938E+02 -0.12675864192E+02  0.25030303166E+01  0.17186063895E+02  0.51100000000E-03 0. -1.
        -11    1    3    3    0    0  0.25640042919E+02  0.85096459574E+01  0.13337046975E+02  0.30128104777E+02  0.51100000000E-03 0.  1.
         12    1    3    3    0    0  0.64171141458E+01 -0.91016968510E+01  0.44369514147E+01  0.11987776165E+02  0.00000000000E+00 0. -1.
</event>
<event>
 7    1  0.7755875E-012  0.5930190E+02  0.7816164E-02  0.1266605E+00
        -11   -1    0    0    0    0  0.00000000000E+00  0.00000000000E+00  0.45593999997E+02  0.45594000000E+02  0.51100000000E-03 0.  1.
         11   -1    0    0    0    0 -0.00000000000E+00 -0.00000000000E+00 -0.45593999997E+02  0.45594000000E+02  0.51100000000E-03 0. -1.
    9900012    2    1    2    0    0  0.67395225558E+01  0.47528029682E+01  0.30801184249E+02  0.59301901909E+02  0.49999923185E+02 0.  0.
         12    1    1    2    0    0 -0.67395225558E+01 -0.47528029682E+01 -0.30801184249E+02  0.31886098091E+02  0.00000000000E+00 0. -1.
         11    1    3    3    0    0  0.10071526849E+02  0.20277598079E+02  0.23959745820E+02  0.32964921613E+02  0.51100000000E-03 0. -1.
        -11    1    3    3    0    0 -0.15573370636E+01 -0.12495045052E+02  0.13714942154E+02  0.18618568370E+02  0.51100000000E-03 0.  1.
         12    1    3    3    0    0 -0.17746672301E+01 -0.30297500587E+01 -0.68735037254E+01  0.77184119259E+01  0.00000000000E+00 0. -1.
</event>
<event>
 7    1  0.7755875E-012  0.5930175E+02  0.7816164E-02  0.1266605E+00
        -11   -1    0    0    0    0  0.00000000000E+00  0.00000000000E+00  0.45593999997E+02  0.45594000000E+02  0.51100000000E-03 0. -1.
         11   -1    0    0    0    0 -0.00000000000E+00 -0.00000000000E+00 -0.45593999997E+02  0.45594000000E+02  0.51100000000E-03 0.  1.
    9900012    2    1    2    0    0  0.19077446757E+02  0.23230407902E+02 -0.10636367597E+02  0.59301746822E+02  0.49999640343E+02 0.  0.
         12    1    1    2    0    0 -0.19077446757E+02 -0.23230407902E+02  0.10636367597E+02  0.31886253178E+02  0.00000000000E+00 0. -1.
         11    1    3    3    0    0  0.19490528089E+01  0.18435873959E+02 -0.13010208064E+01  0.18584211334E+02  0.51100000000E-03 0.  1.
        -11    1    3    3    0    0  0.16428441407E+02 -0.11863641929E+02  0.22879861080E+01  0.20393002908E+02  0.51100000000E-03 0. -1.
        -12    1    3    3    0    0  0.69995254083E+00  0.16658175872E+02 -0.11623332898E+02  0.20324532580E+02  0.00000000000E+00 0.  1.
</event>
<event>
 7    1  0.7755875E-012  0.5930199E+02  0.7816164E-02  0.1266605E+00
        -11   -1    0    0    0    0  0.00000000000E+00  0.00000000000E+00  0.45593999997E+02  0.45594000000E+02  0.51100000000E-03 0.  1.
         11   -1    0    0    0    0 -0.00000000000E+00 -0.00000000000E+00 -0.45593999997E+02  0.45594000000E+02  0.51100000000E-03 0. -1.
    9900012    2    1    2    0    0 -0.20328975159E+02  0.24521983141E+02  0.14570504602E+01  0.59301986072E+02  0.50000076678E+02 0.  0.
         12    1    1    2    0    0  0.20328975159E+02 -0.24521983141E+02 -0.14570504602E+01  0.31886013928E+02  0.00000000000E+00 0. -1.
         11    1    3    3    0    0 -0.20892320779E+02 -0.25702131130E+01  0.10960991382E+01  0.21078341883E+02  0.51100000000E-03 0. -1.
        -11    1    3    3    0    0  0.25694392690E+01  0.23119444005E+02  0.11702909116E+02  0.26039754056E+02  0.51100000000E-03 0.  1.
        -12    1    3    3    0    0 -0.20060936491E+01  0.39727522491E+01 -0.11341957794E+02  0.12183890132E+02  0.00000000000E+00 0.  1.
</event>
<event>
 7    1  0.7755875E-012  0.5930194E+02  0.7816164E-02  0.1266605E+00
        -11   -1    0    0    0    0  0.00000000000E+00  0.00000000000E+00  0.45593999997E+02  0.45594000000E+02  0.51100000000E-03 0.  1.
         11   -1    0    0    0    0 -0.00000000000E+00 -0.00000000000E+00 -0.45593999997E+02  0.45594000000E+02  0.51100000000E-03 0. -1.
    9900012    2    1    2    0    0  0.83201834554E+01  0.30619110250E+02  0.31567761708E+01  0.59301943470E+02  0.49999998983E+02 0.  0.
         12    1    1    2    0    0 -0.83201834554E+01 -0.30619110250E+02 -0.31567761708E+01  0.31886056530E+02  0.00000000000E+00 0. -1.
         11    1    3    3    0    0  0.12133370793E+02  0.12984583673E+02 -0.16440051337E+02  0.24209365712E+02  0.51100000000E-03 0. -1.
        -11    1    3    3    0    0 -0.99185107822E+01  0.13397325470E+02  0.30398009150E+01  0.16944190029E+02  0.51100000000E-03 0.  1.
         12    1    3    3    0    0  0.61053234447E+01  0.42372011076E+01  0.16557026592E+02  0.18148387729E+02  0.00000000000E+00 0. -1.
</event>
<event>
 7    1  0.7755875E-012  0.5930196E+02  0.7816164E-02  0.1266605E+00
        -11   -1    0    0    0    0  0.00000000000E+00  0.00000000000E+00  0.45593999997E+02  0.45594000000E+02  0.51100000000E-03 0.  1.
         11   -1    0    0    0    0 -0.00000000000E+00 -0.00000000000E+00 -0.45593999997E+02  0.45594000000E+02  0.51100000000E-03 0. -1.
    9900012    2    1    2    0    0  0.21272436733E+02 -0.56227095587E+01  0.23077873754E+02  0.59301957844E+02  0.50000025198E+02 0.  0.
         12    1    1    2    0    0 -0.21272436733E+02  0.56227095587E+01 -0.23077873754E+02  0.31886042156E+02  0.00000000000E+00 0. -1.
         11    1    3    3    0    0 -0.85062557910E+01 -0.42021511018E+01 -0.81456561320E+01  0.12504646158E+02  0.51100000000E-03 0. -1.
        -11    1    3    3    0    0  0.26772419430E+02  0.44969386989E+01  0.19856317886E+02  0.33634182910E+02  0.51100000000E-03 0.  1.
        -12    1    3    3    0    0  0.30062730945E+01 -0.59174971559E+01  0.11367212000E+02  0.13163128776E+02  0.00000000000E+00 0.  1.
</event>
<event>
 7    1  0.7755875E-012  0.5930192E+02  0.7816164E-02  0.1266605E+00
        -11   -1    0    0    0    0  0.00000000000E+00  0.00000000000E+00  0.45593999997E+02  0.45594000000E+02  0.51100000000E-03 0.  1.
         11   -1    0    0    0    0 -0.00000000000E+00 -0.00000000000E+00 -0.45593999997E+02  0.45594000000E+02  0.51100000000E-03 0. -1.
    9900012    2    1    2    0    0 -0.14111855809E+02 -0.27292795427E+02  0.85253167328E+01  0.59301918680E+02  0.49999953771E+02 0.  0.
         12    1    1    2    0    0  0.14111855809E+02  0.27292795427E+02 -0.85253167328E+01  0.31886081320E+02  0.00000000000E+00 0. -1.
         11    1    3    3    0    0 -0.13778213250E+02  0.65383272964E+01 -0.12181331978E+01  0.15299435707E+02  0.51100000000E-03 0. -1.
        -11    1    3    3    0    0 -0.76966060467E+01 -0.30624075396E+02  0.14415415964E+02  0.34711323169E+02  0.51100000000E-03 0.  1.
         12    1    3    3    0    0  0.73629634878E+01 -0.32070473274E+01 -0.46719660332E+01  0.92911598037E+01  0.00000000000E+00 0. -1.
</event>
<event>
 7    1  0.7755875E-012  0.5930195E+02  0.7816164E-02  0.1266605E+00
        -11   -1    0    0    0    0  0.00000000000E+00  0.00000000000E+00  0.45593999997E+02  0.45594000000E+02  0.51100000000E-03 0.  1.
         11   -1    0    0    0    0 -0.00000000000E+00 -0.00000000000E+00 -0.45593999997E+02  0.45594000000E+02  0.51100000000E-03 0. -1.
    9900012    2    1    2    0    0  0.15915527060E+02 -0.10420736642E+02  0.25589534921E+02  0.59301952092E+02  0.50000014707E+02 0.  0.
         12    1    1    2    0    0 -0.15915527060E+02  0.10420736642E+02 -0.25589534921E+02  0.31886047908E+02  0.00000000000E+00 0. -1.
         11    1    3    3    0    0 -0.60451313622E+01 -0.11843549904E+02  0.21359232956E+02  0.25160089830E+02  0.51100000000E-03 0.  1.
        -11    1    3    3    0    0  0.54601454446E+01  0.31289475238E+01 -0.10312644468E+02  0.12081148003E+02  0.51100000000E-03 0. -1.
        -12    1    3    3    0    0  0.16500512978E+02 -0.17061342612E+01  0.14542946433E+02  0.22060714258E+02  0.00000000000E+00 0.  1.
</event>
<event>
 7    1  0.7755875E-012  0.5930195E+02  0.7816164E-02  0.1266605E+00
        -11   -1    0    0    0    0  0.00000000000E+00  0.00000000000E+00  0.45593999997E+02  0.45594000000E+02  0.51100000000E-03 0. -1.
         11   -1    0    0    0    0 -0.00000000000E+00 -0.00000000000E+00 -0.45593999997E+02  0.45594000000E+02  0.51100000000E-03 0.  1.
    9900012    2    1    2    0    0 -0.13992504012E+02  0.93409376522E+00 -0.28636649947E+02  0.59301946311E+02  0.50000004164E+02 0.  0.
         12    1    1    2    0    0  0.13992504012E+02 -0.93409376522E+00  0.28636649947E+02  0.31886053689E+02  0.00000000000E+00 0. -1.
         11    1    3    3    0    0  0.18517516436E+02 -0.15294927485E+01 -0.12590400000E+02  0.22444507913E+02  0.51100000000E-03 0.  1.
        -11    1    3    3    0    0 -0.19700405774E+02  0.42457849393E+01 -0.84007099635E+01  0.21833566029E+02  0.51100000000E-03 0. -1.
        -12    1    3    3    0    0 -0.12809614674E+02 -0.17821984256E+01 -0.76455399829E+01  0.15023872369E+02  0.00000000000E+00 0.  1.
</event>
<event>
 7    1  0.7755875E-012  0.5930199E+02  0.7816164E-02  0.1266605E+00
        -11   -1    0    0    0    0  0.00000000000E+00  0.00000000000E+00  0.45593999997E+02  0.45594000000E+02  0.51100000000E-03 0. -1.
         11   -1    0    0    0    0 -0.00000000000E+00 -0.00000000000E+00 -0.45593999997E+02  0.45594000000E+02  0.51100000000E-03 0.  1.
    9900012    2    1    2    0    0  0.22937853146E+02  0.21896432018E+02 -0.33345073162E+01  0.59301987689E+02  0.50000079627E+02 0.  0.
         12    1    1    2    0    0 -0.22937853146E+02 -0.21896432018E+02  0.33345073162E+01  0.31886012311E+02  0.00000000000E+00 0. -1.
         11    1    3    3    0    0  0.21490361133E+02 -0.50929504581E-01  0.13347784966E+02  0.25298252493E+02  0.51100000000E-03 0.  1.
        -11    1    3    3    0    0  0.33986889357E+01  0.25344881458E+02 -0.15537212227E+02  0.29921882739E+02  0.51100000000E-03 0. -1.
        -12    1    3    3    0    0 -0.19511969229E+01 -0.33975199354E+01 -0.11450800557E+01  0.40818524565E+01  0.00000000000E+00 0.  1.
</event>
<event>
 7    1  0.7755875E-012  0.5930195E+02  0.7816164E-02  0.1266605E+00
        -11   -1    0    0    0    0  0.00000000000E+00  0.00000000000E+00  0.45593999997E+02  0.45594000000E+02  0.51100000000E-03 0.  1.
         11   -1    0    0    0    0 -0.00000000000E+00 -0.00000000000E+00 -0.45593999997E+02  0.45594000000E+02  0.51100000000E-03 0. -1.
    9900012    2    1    2    0    0 -0.30980662828E+02  0.15287217261E+01 -0.73879553842E+01  0.59301947499E+02  0.50000006330E+02 0.  0.
         12    1    1    2    0    0  0.30980662828E+02 -0.15287217261E+01  0.73879553842E+01  0.31886052501E+02  0.00000000000E+00 0. -1.
         11    1    3    3    0    0 -0.56928831452E+01  0.99419058392E+01 -0.13329689821E+02  0.17576434257E+02  0.51100000000E-03 0. -1.
        -11    1    3    3    0    0 -0.16045826653E+02 -0.94180702300E+01  0.18409091672E+02  0.26173713078E+02  0.51100000000E-03 0.  1.
        -12    1    3    3    0    0 -0.92419530297E+01  0.10048861169E+01 -0.12467357235E+02  0.15551800164E+02  0.00000000000E+00 0.  1.
</event>
<event>
 7    1  0.7755875E-012  0.5930191E+02  0.7816164E-02  0.1266605E+00
        -11   -1    0    0    0    0  0.00000000000E+00  0.00000000000E+00  0.45593999997E+02  0.45594000000E+02  0.51100000000E-03 0.  1.
         11   -1    0    0    0    0 -0.00000000000E+00 -0.00000000000E+00 -0.45593999997E+02  0.45594000000E+02  0.51100000000E-03 0. -1.
    9900012    2    1    2    0    0 -0.26528882037E+02 -0.34988831036E+01  0.17340665206E+02  0.59301914714E+02  0.49999946538E+02 0.  0.
         12    1    1    2    0    0  0.26528882037E+02  0.34988831036E+01 -0.17340665206E+02  0.31886085286E+02  0.00000000000E+00 0. -1.
         11    1    3    3    0    0  0.24175819862E+01  0.14284985596E+01  0.63773856619E+00  0.28795870423E+01  0.51100000000E-03 0. -1.
        -11    1    3    3    0    0 -0.26582784746E+02 -0.75805441502E+01  0.31090753779E+02  0.41602212264E+02  0.51100000000E-03 0.  1.
        -12    1    3    3    0    0 -0.23636792772E+01  0.26531624870E+01 -0.14387827139E+02  0.14820115408E+02  0.00000000000E+00 0.  1.
</event>
<event>
 7    1  0.7755875E-012  0.5930200E+02  0.7816164E-02  0.1266605E+00
        -11   -1    0    0    0    0  0.00000000000E+00  0.00000000000E+00  0.45593999997E+02  0.45594000000E+02  0.51100000000E-03 0.  1.
         11   -1    0    0    0    0 -0.00000000000E+00 -0.00000000000E+00 -0.45593999997E+02  0.45594000000E+02  0.51100000000E-03 0. -1.
    9900012    2    1    2    0    0 -0.18431518328E+01 -0.92884465985E+01  0.30447408354E+02  0.59301997987E+02  0.50000098409E+02 0.  0.
         12    1    1    2    0    0  0.18431518328E+01  0.92884465985E+01 -0.30447408354E+02  0.31886002013E+02  0.00000000000E+00 0. -1.
         11    1    3    3    0    0 -0.11810786494E+02 -0.12151260627E+02 -0.50280694367E+00  0.16952894370E+02  0.51100000000E-03 0. -1.
        -11    1    3    3    0    0  0.15099305643E+02 -0.68901710878E+01  0.12195074677E+02  0.20595711572E+02  0.51100000000E-03 0.  1.
        -12    1    3    3    0    0 -0.51316709824E+01  0.97529851166E+01  0.18755140621E+02  0.21753392045E+02  0.00000000000E+00 0.  1.
</event>
<event>
 7    1  0.7755875E-012  0.5930194E+02  0.7816164E-02  0.1266605E+00
        -11   -1    0    0    0    0  0.00000000000E+00  0.00000000000E+00  0.45593999997E+02  0.45594000000E+02  0.51100000000E-03 0. -1.
         11   -1    0    0    0    0 -0.00000000000E+00 -0.00000000000E+00 -0.45593999997E+02  0.45594000000E+02  0.51100000000E-03 0.  1.
    9900012    2    1    2    0    0  0.13371031746E+01 -0.23665146178E+02 -0.21328239178E+02  0.59301940743E+02  0.49999994009E+02 0.  0.
         12    1    1    2    0    0 -0.13371031746E+01  0.23665146178E+02  0.21328239178E+02  0.31886059257E+02  0.00000000000E+00 0. -1.
         11    1    3    3    0    0 -0.40082192963E+01 -0.50394512286E+01  0.35319465684E+00  0.64487702191E+01  0.51100000000E-03 0. -1.
        -11    1    3    3    0    0  0.16052210830E+02  0.77972521308E+01 -0.15597747533E+02  0.23701483956E+02  0.51100000000E-03 0.  1.
        -12    1    3    3    0    0 -0.10706888360E+02 -0.26422947080E+02 -0.60836863020E+01  0.29151686568E+02  0.00000000000E+00 0.  1.
</event>
<event>
 7    1  0.7755875E-012  0.5930202E+02  0.7816164E-02  0.1266605E+00
        -11   -1    0    0    0    0  0.00000000000E+00  0.00000000000E+00  0.45593999997E+02  0.45594000000E+02  0.51100000000E-03 0.  1.
         11   -1    0    0    0    0 -0.00000000000E+00 -0.00000000000E+00 -0.45593999997E+02  0.45594000000E+02  0.51100000000E-03 0. -1.
    9900012    2    1    2    0    0 -0.24453926770E+01 -0.16800885447E+02  0.26990111983E+02  0.59302018096E+02  0.50000135083E+02 0.  0.
         12    1    1    2    0    0  0.24453926770E+01  0.16800885447E+02 -0.26990111983E+02  0.31885981904E+02  0.00000000000E+00 0. -1.
         11    1    3    3    0    0 -0.40886875097E+01  0.13168767008E+02 -0.47471029125E+01  0.14583167570E+02  0.51100000000E-03 0. -1.
        -11    1    3    3    0    0 -0.36847420874E+00 -0.15536944547E+02  0.97681149013E+01  0.18356156681E+02  0.51100000000E-03 0.  1.
         12    1    3    3    0    0  0.20117690414E+01 -0.14432707907E+02  0.21969099994E+02  0.26362693845E+02  0.00000000000E+00 0. -1.
</event>
<event>
 7    1  0.7755875E-012  0.5930194E+02  0.7816164E-02  0.1266605E+00
        -11   -1    0    0    0    0  0.00000000000E+00  0.00000000000E+00  0.45593999997E+02  0.45594000000E+02  0.51100000000E-03 0.  1.
         11   -1    0    0    0    0 -0.00000000000E+00 -0.00000000000E+00 -0.45593999997E+02  0.45594000000E+02  0.51100000000E-03 0. -1.
    9900012    2    1    2    0    0 -0.93264951911E+01 -0.36838812977E+01 -0.30268244389E+02  0.59301935452E+02  0.49999984360E+02 0.  0.
         12    1    1    2    0    0  0.93264951911E+01  0.36838812977E+01  0.30268244389E+02  0.31886064548E+02  0.00000000000E+00 0. -1.
         11    1    3    3    0    0  0.13310965623E+01 -0.11101994468E+02 -0.95816563016E+01  0.14725292424E+02  0.51100000000E-03 0. -1.
        -11    1    3    3    0    0  0.12541742038E+02  0.91033370603E+01 -0.12524886086E+02  0.19925832748E+02  0.51100000000E-03 0.  1.
        -12    1    3    3    0    0 -0.23199333791E+02 -0.16852238897E+01 -0.81617020021E+01  0.24650810280E+02  0.00000000000E+00 0.  1.
</event>
<event>
 7    1  0.7755875E-012  0.5930194E+02  0.7816164E-02  0.1266605E+00
        -11   -1    0    0    0    0  0.00000000000E+00  0.00000000000E+00  0.45593999997E+02  0.45594000000E+02  0.51100000000E-03 0. -1.
         11   -1    0    0    0    0 -0.00000000000E+00 -0.00000000000E+00 -0.45593999997E+02  0.45594000000E+02  0.51100000000E-03 0.  1.
    9900012    2    1    2    0    0 -0.19580363457E+02 -0.25085859198E+02 -0.20075170404E+01  0.59301935811E+02  0.49999985014E+02 0.  0.
         12    1    1    2    0    0  0.19580363457E+02  0.25085859198E+02  0.20075170404E+01  0.31886064189E+02  0.00000000000E+00 0. -1.
         11    1    3    3    0    0 -0.10985051540E+02  0.83172159232E+01  0.11799354827E+01  0.13828943779E+02  0.51100000000E-03 0. -1.
        -11    1    3    3    0    0  0.46705693685E+01 -0.20869755549E+02 -0.12720354564E+02  0.24883093365E+02  0.51100000000E-03 0.  1.
         12    1    3    3    0    0 -0.13265881286E+02 -0.12533319572E+02  0.95329020411E+01  0.20589898667E+02  0.00000000000E+00 0. -1.
</event>
<event>
 7    1  0.7755875E-012  0.5930193E+02  0.7816164E-02  0.1266605E+00
        -11   -1    0    0    0    0  0.00000000000E+00  0.00000000000E+00  0.45593999997E+02  0.45594000000E+02  0.51100000000E-03 0.  1.
         11   -1    0    0    0    0 -0.00000000000E+00 -0.00000000000E+00 -0.45593999997E+02  0.45594000000E+02  0.51100000000E-03 0. -1.
    9900012    2    1    2    0    0  0.25783975138E+02 -0.16840777989E+02  0.82641382283E+01  0.59301934739E+02  0.49999983059E+02 0.  0.
         12    1    1    2    0    0 -0.25783975138E+02  0.16840777989E+02 -0.82641382283E+01  0.31886065261E+02  0.00000000000E+00 0. -1.
         11    1    3    3    0    0  0.12795585217E+02 -0.11739743577E+02 -0.78685135869E+01  0.19064681655E+02  0.51100000000E-03 0. -1.
        -11    1    3    3    0    0 -0.19813626460E+01 -0.64353177998E+01  0.22816207129E+02  0.23789039937E+02  0.51100000000E-03 0.  1.
        -12    1    3    3    0    0  0.14969752567E+02  0.13342833877E+01 -0.66835553134E+01  0.16448213147E+02  0.00000000000E+00 0.  1.
</event>
<event>
 7    1  0.7755875E-012  0.5930193E+02  0.7816164E-02  0.1266605E+00
        -11   -1    0    0    0    0  0.00000000000E+00  0.00000000000E+00  0.45593999997E+02  0.45594000000E+02  0.51100000000E-03 0. -1.
         11   -1    0    0    0    0 -0.00000000000E+00 -0.00000000000E+00 -0.45593999997E+02  0.45594000000E+02  0.51100000000E-03 0.  1.
    9900012    2    1    2    0    0  0.28542661561E+02 -0.59924790401E+01  0.12889066806E+02  0.59301931300E+02  0.49999976787E+02 0.  0.
         12    1    1    2    0    0 -0.28542661561E+02  0.59924790401E+01 -0.12889066806E+02  0.31886068700E+02  0.00000000000E+00 0. -1.
         11    1    3    3    0    0  0.19564016697E+02 -0.81252639965E+01  0.22166170185E+02  0.30661209455E+02  0.51100000000E-03 0. -1.
        -11    1    3    3    0    0 -0.54216535405E+00  0.90418166133E+01 -0.13401125671E+02  0.16175245298E+02  0.51100000000E-03 0.  1.
        -12    1    3    3    0    0  0.95208102184E+01 -0.69090316569E+01  0.41240222923E+01  0.12465476546E+02  0.00000000000E+00 0.  1.
</event>
<event>
 7    1  0.7755875E-012  0.5930177E+02  0.7816164E-02  0.1266605E+00
        -11   -1    0    0    0    0  0.00000000000E+00  0.00000000000E+00  0.45593999997E+02  0.45594000000E+02  0.51100000000E-03 0. -1.
         11   -1    0    0    0    0 -0.00000000000E+00 -0.00000000000E+00 -0.45593999997E+02  0.45594000000E+02  0.51100000000E-03 0.  1.
    9900012    2    1    2    0    0  0.16793778251E+02 -0.22076813402E+02 -0.15726259004E+02  0.59301766290E+02  0.49999675848E+02 0.  0.
         12    1    1    2    0    0 -0.16793778251E+02  0.22076813402E+02  0.15726259004E+02  0.31886233710E+02  0.00000000000E+00 0. -1.
         11    1    3    3    0    0  0.53544255161E+01  0.36152638449E+01  0.14893808626E+02  0.16234701750E+02  0.51100000000E-03 0. -1.
        -11    1    3    3    0    0  0.13118263429E+02 -0.20514145306E+02 -0.27731928618E+02  0.36904997739E+02  0.51100000000E-03 0.  1.
         12    1    3    3    0    0 -0.16789106938E+01 -0.51779319415E+01 -0.28881390113E+01  0.61620668007E+01  0.00000000000E+00 0. -1.
</event>
<event>
 7    1  0.7755875E-012  0.5930196E+02  0.7816164E-02  0.1266605E+00
        -11   -1    0    0    0    0  0.00000000000E+00  0.00000000000E+00  0.45593999997E+02  0.45594000000E+02  0.51100000000E-03 0. -1.
         11   -1    0    0    0    0 -0.00000000000E+00 -0.00000000000E+00 -0.45593999997E+02  0.45594000000E+02  0.51100000000E-03 0.  1.
    9900012    2    1    2    0    0 -0.14398731679E+02 -0.13581374334E+02 -0.24998851133E+02  0.59301956646E+02  0.50000023013E+02 0.  0.
         12    1    1    2    0    0  0.14398731679E+02  0.13581374334E+02  0.24998851133E+02  0.31886043354E+02  0.00000000000E+00 0. -1.
         11    1    3    3    0    0 -0.61547358430E+01 -0.18217899440E+02  0.97129375446E+01  0.21543300334E+02  0.51100000000E-03 0. -1.
        -11    1    3    3    0    0 -0.96371004260E+01 -0.38851722855E+00 -0.22463983085E+02  0.24446987270E+02  0.51100000000E-03 0.  1.
         12    1    3    3    0    0  0.13931045899E+01  0.50250423338E+01 -0.12247805593E+02  0.13311669042E+02  0.00000000000E+00 0. -1.
</event>
<event>
 7    1  0.7755875E-012  0.5930190E+02  0.7816164E-02  0.1266605E+00
        -11   -1    0    0    0    0  0.00000000000E+00  0.00000000000E+00  0.45593999997E+02  0.45594000000E+02  0.51100000000E-03 0.  1.
         11   -1    0    0    0    0 -0.00000000000E+00 -0.00000000000E+00 -0.45593999997E+02  0.45594000000E+02  0.51100000000E-03 0. -1.
    9900012    2    1    2    0    0  0.81737454963E+01  0.15288300455E+02  0.26761557356E+02  0.59301902741E+02  0.49999924704E+02 0.  0.
         12    1    1    2    0    0 -0.81737454963E+01 -0.15288300455E+02 -0.26761557356E+02  0.31886097259E+02  0.00000000000E+00 0. -1.
         11    1    3    3    0    0 -0.52605067546E+01 -0.64816396237E+01  0.18658197395E+02  0.20440472446E+02  0.51100000000E-03 0.  1.
        -11    1    3    3    0    0 -0.13726206603E+01  0.73225898230E+01 -0.92375181584E+01  0.11867440802E+02  0.51100000000E-03 0. -1.
        -12    1    3    3    0    0  0.14806872911E+02  0.14447350256E+02  0.17340878120E+02  0.26993989494E+02  0.00000000000E+00 0.  1.
</event>
<event>
 7    1  0.7755875E-012  0.5930195E+02  0.7816164E-02  0.1266605E+00
        -11   -1    0    0    0    0  0.00000000000E+00  0.00000000000E+00  0.45593999997E+02  0.45594000000E+02  0.51100000000E-03 0. -1.
         11   -1    0    0    0    0 -0.00000000000E+00 -0.00000000000E+00 -0.45593999997E+02  0.45594000000E+02  0.51100000000E-03 0.  1.
    9900012    2    1    2    0    0  0.26895650533E+02  0.14525905531E+02 -0.90742512650E+01  0.59301953129E+02  0.50000016598E+02 0.  0.
         12    1    1    2    0    0 -0.26895650533E+02 -0.14525905531E+02  0.90742512650E+01  0.31886046871E+02  0.00000000000E+00 0. -1.
         11    1    3    3    0    0 -0.12670548918E+00 -0.14210026266E+02  0.58637201152E+01  0.15372836908E+02  0.51100000000E-03 0. -1.
        -11    1    3    3    0    0  0.21154561397E+02  0.24648335896E+02 -0.69669344705E+01  0.33220386911E+02  0.51100000000E-03 0.  1.
         12    1    3    3    0    0  0.58677946243E+01  0.40875959009E+01 -0.79710369097E+01  0.10708729309E+02  0.00000000000E+00 0. -1.
</event>
<event>
 7    1  0.7755875E-012  0.5930194E+02  0.7816164E-02  0.1266605E+00
        -11   -1    0    0    0    0  0.00000000000E+00  0.00000000000E+00  0.45593999997E+02  0.45594000000E+02  0.51100000000E-03 0.  1.
         11   -1    0    0    0    0 -0.00000000000E+00 -0.00000000000E+00 -0.45593999997E+02  0.45594000000E+02  0.51100000000E-03 0. -1.
    9900012    2    1    2    0    0  0.21665809917E+02  0.19798870548E+02  0.12462684390E+02  0.59301935700E+02  0.49999984813E+02 0.  0.
         12    1    1    2    0    0 -0.21665809917E+02 -0.19798870548E+02 -0.12462684390E+02  0.31886064300E+02  0.00000000000E+00 0. -1.
         11    1    3    3    0    0  0.12488113750E+02  0.76700666920E+01 -0.11487184787E+02  0.18620910898E+02  0.51100000000E-03 0. -1.
        -11    1    3    3    0    0  0.14140634208E+02  0.11264171043E+02  0.28593658562E+02  0.33829519584E+02  0.51100000000E-03 0.  1.
        -12    1    3    3    0    0 -0.49629380411E+01  0.86463281261E+00 -0.46437893853E+01  0.68515052182E+01  0.00000000000E+00 0.  1.
</event>
<event>
 7    1  0.7755875E-012  0.5930196E+02  0.7816164E-02  0.1266605E+00
        -11   -1    0    0    0    0  0.00000000000E+00  0.00000000000E+00  0.45593999997E+02  0.45594000000E+02  0.51100000000E-03 0. -1.
         11   -1    0    0    0    0 -0.00000000000E+00 -0.00000000000E+00 -0.45593999997E+02  0.45594000000E+02  0.51100000000E-03 0.  1.
    9900012    2    1    2    0    0 -0.85422995018E+00 -0.26947463132E+02  0.17024218797E+02  0.59301960677E+02  0.50000030364E+02 0.  0.
         12    1    1    2    0    0  0.85422995018E+00  0.26947463132E+02 -0.17024218797E+02  0.31886039323E+02  0.00000000000E+00 0. -1.
         11    1    3    3    0    0  0.14917475307E+02 -0.20817203756E+02  0.28842812274E+02  0.38571943973E+02  0.51100000000E-03 0. -1.
        -11    1    3    3    0    0 -0.75290444060E+01 -0.28311909551E+01 -0.67901968010E+01  0.10526581817E+02  0.51100000000E-03 0.  1.
         12    1    3    3    0    0 -0.82426608511E+01 -0.32990684209E+01 -0.50283966761E+01  0.10203434887E+02  0.00000000000E+00 0. -1.
</event>
<event>
 7    1  0.7755875E-012  0.5930197E+02  0.7816164E-02  0.1266605E+00
        -11   -1    0    0    0    0  0.00000000000E+00  0.00000000000E+00  0.45593999997E+02  0.45594000000E+02  0.51100000000E-03 0.  1.
         11   -1    0    0    0    0 -0.00000000000E+00 -0.00000000000E+00 -0.45593999997E+02  0.45594000000E+02  0.51100000000E-03 0. -1.
    9900012    2    1    2    0    0 -0.10279798745E+02 -0.17170056086E+02  0.24824052071E+02  0.59301974072E+02  0.50000054794E+02 0.  0.
         12    1    1    2    0    0  0.10279798745E+02  0.17170056086E+02 -0.24824052071E+02  0.31886025928E+02  0.00000000000E+00 0. -1.
         11    1    3    3    0    0 -0.13420366304E+02 -0.13814789653E+02  0.88248474696E+01  0.21185669166E+02  0.51100000000E-03 0. -1.
        -11    1    3    3    0    0  0.20883075780E+01  0.11237123766E+02  0.19923278374E+02  0.22968913786E+02  0.51100000000E-03 0.  1.
        -12    1    3    3    0    0  0.10522599809E+01 -0.14592390198E+02 -0.39240737725E+01  0.15147391120E+02  0.00000000000E+00 0.  1.
</event>
<event>
 7    1  0.7755875E-012  0.5930186E+02  0.7816164E-02  0.1266605E+00
        -11   -1    0    0    0    0  0.00000000000E+00  0.00000000000E+00  0.45593999997E+02  0.45594000000E+02  0.51100000000E-03 0. -1.
         11   -1    0    0    0    0 -0.00000000000E+00 -0.00000000000E+00 -0.45593999997E+02  0.45594000000E+02  0.51100000000E-03 0.  1.
    9900012    2    1    2    0    0 -0.31360588013E+02 -0.32561107290E+01 -0.47578427568E+01  0.59301861863E+02  0.49999850151E+02 0.  0.
         12    1    1    2    0    0  0.31360588013E+02  0.32561107290E+01  0.47578427568E+01  0.31886138137E+02  0.00000000000E+00 0. -1.
         11    1    3    3    0    0 -0.64482303187E+01  0.68136334978E+01  0.39153982155E+01  0.10165412885E+02  0.51100000000E-03 0. -1.
        -11    1    3    3    0    0  0.10680061983E+02  0.19624193639E+00  0.13348349375E+01  0.10764944005E+02  0.51100000000E-03 0.  1.
        -12    1    3    3    0    0 -0.35592419678E+02 -0.10265986163E+02 -0.10008075910E+02  0.38371504972E+02  0.00000000000E+00 0.  1.
</event>
<event>
 7    1  0.7755875E-012  0.5930194E+02  0.7816164E-02  0.1266605E+00
        -11   -1    0    0    0    0  0.00000000000E+00  0.00000000000E+00  0.45593999997E+02  0.45594000000E+02  0.51100000000E-03 0. -1.
         11   -1    0    0    0    0 -0.00000000000E+00 -0.00000000000E+00 -0.45593999997E+02  0.45594000000E+02  0.51100000000E-03 0.  1.
    9900012    2    1    2    0    0 -0.10985423378E+02 -0.29877431134E+02 -0.18385511149E+01  0.59301942104E+02  0.49999996491E+02 0.  0.
         12    1    1    2    0    0  0.10985423378E+02  0.29877431134E+02  0.18385511149E+01  0.31886057896E+02  0.00000000000E+00 0. -1.
         11    1    3    3    0    0  0.14635168349E+02 -0.12747059849E+02 -0.10459492595E+02  0.22047146595E+02  0.51100000000E-03 0. -1.
        -11    1    3    3    0    0 -0.14981105455E+02 -0.85514633776E+01  0.14346907792E+02  0.22436461620E+02  0.51100000000E-03 0.  1.
         12    1    3    3    0    0 -0.10639486272E+02 -0.85789079083E+01 -0.57259663121E+01  0.14818333888E+02  0.00000000000E+00 0. -1.
</event>
<event>
 7    1  0.7755875E-012  0.5930194E+02  0.7816164E-02  0.1266605E+00
        -11   -1    0    0    0    0  0.00000000000E+00  0.00000000000E+00  0.45593999997E+02  0.45594000000E+02  0.51100000000E-03 0. -1.
         11   -1    0    0    0    0 -0.00000000000E+00 -0.00000000000E+00 -0.45593999997E+02  0.45594000000E+02  0.51100000000E-03 0.  1.
    9900012    2    1    2    0    0 -0.26500000133E+02 -0.12881293526E+02 -0.12187832675E+02  0.59301937288E+02  0.49999987709E+02 0.  0.
         12    1    1    2    0    0  0.26500000133E+02  0.12881293526E+02  0.12187832675E+02  0.31886062712E+02  0.00000000000E+00 0. -1.
         11    1    3    3    0    0 -0.64515870015E+01 -0.26858546962E+02 -0.11999597685E+02  0.30116355434E+02  0.51100000000E-03 0. -1.
        -11    1    3    3    0    0 -0.18308213288E+02  0.81000141022E+01  0.55649586694E+01  0.20779068014E+02  0.51100000000E-03 0.  1.
         12    1    3    3    0    0 -0.17401998426E+01  0.58772393336E+01 -0.57531936590E+01  0.84065138408E+01  0.00000000000E+00 0. -1.
</event>
<event>
 7    1  0.7755875E-012  0.5930196E+02  0.7816164E-02  0.1266605E+00
        -11   -1    0    0    0    0  0.00000000000E+00  0.00000000000E+00  0.45593999997E+02  0.45594000000E+02  0.51100000000E-03 0.  1.
         11   -1    0    0    0    0 -0.00000000000E+00 -0.00000000000E+00 -0.45593999997E+02  0.45594000000E+02  0.51100000000E-03 0. -1.
    9900012    2    1    2    0    0  0.17315237518E+02 -0.23510085747E+02  0.12813193734E+02  0.59301960487E+02  0.50000030018E+02 0.  0.
         12    1    1    2    0    0 -0.17315237518E+02  0.23510085747E+02 -0.12813193734E+02  0.31886039513E+02  0.00000000000E+00 0. -1.
         11    1    3    3    0    0 -0.66943124506E+00 -0.25220018132E+02 -0.11361723245E+02  0.27669228542E+02  0.51100000000E-03 0. -1.
        -11    1    3    3    0    0  0.41279294715E+01 -0.36650432483E+01  0.59634175731E+01  0.81261733397E+01  0.51100000000E-03 0.  1.
         12    1    3    3    0    0  0.13856739291E+02  0.53749756329E+01  0.18211499406E+02  0.23506558605E+02  0.00000000000E+00 0. -1.
</event>
<event>
 7    1  0.7755875E-012  0.5930191E+02  0.7816164E-02  0.1266605E+00
        -11   -1    0    0    0    0  0.00000000000E+00  0.00000000000E+00  0.45593999997E+02  0.45594000000E+02  0.51100000000E-03 0. -1.
         11   -1    0    0    0    0 -0.00000000000E+00 -0.00000000000E+00 -0.45593999997E+02  0.45594000000E+02  0.51100000000E-03 0.  1.
    9900012    2    1    2    0    0  0.22440274166E+02 -0.20224633676E+02 -0.10203955998E+02  0.59301914790E+02  0.49999946678E+02 0.  0.
         12    1    1    2    0    0 -0.22440274166E+02  0.20224633676E+02  0.10203955998E+02  0.31886085210E+02  0.00000000000E+00 0. -1.
         11    1    3    3    0    0 -0.71077310368E+00  0.97822894310E+01 -0.50062659550E+01  0.11011861059E+02  0.51100000000E-03 0. -1.
        -11    1    3    3    0    0 -0.17358610214E+00 -0.23847056285E+02 -0.16296164761E+01  0.23903302611E+02  0.51100000000E-03 0.  1.
        -12    1    3    3    0    0  0.23324633372E+02 -0.61598668227E+01 -0.35680735672E+01  0.24386751120E+02  0.00000000000E+00 0.  1.
</event>
<event>
 7    1  0.7755875E-012  0.5930195E+02  0.7816164E-02  0.1266605E+00
        -11   -1    0    0    0    0  0.00000000000E+00  0.00000000000E+00  0.45593999997E+02  0.45594000000E+02  0.51100000000E-03 0.  1.
         11   -1    0    0    0    0 -0.00000000000E+00 -0.00000000000E+00 -0.45593999997E+02  0.45594000000E+02  0.51100000000E-03 0. -1.
    9900012    2    1    2    0    0  0.19089801030E+02 -0.21062713962E+02  0.14445123806E+02  0.59301952509E+02  0.50000015468E+02 0.  0.
         12    1    1    2    0    0 -0.19089801030E+02  0.21062713962E+02 -0.14445123806E+02  0.31886047491E+02  0.00000000000E+00 0. -1.
         11    1    3    3    0    0 -0.12444952295E+02 -0.42562854256E+00 -0.62521460774E+01  0.13933676045E+02  0.51100000000E-03 0. -1.
        -11    1    3    3    0    0  0.18118178250E+02 -0.19390846017E+02  0.10809159140E+02  0.28655038195E+02  0.51100000000E-03 0.  1.
        -12    1    3    3    0    0  0.13416575075E+02 -0.12462394025E+01  0.98881107434E+01  0.16713238270E+02  0.00000000000E+00 0.  1.
</event>
<event>
 7    1  0.7755875E-012  0.5930194E+02  0.7816164E-02  0.1266605E+00
        -11   -1    0    0    0    0  0.00000000000E+00  0.00000000000E+00  0.45593999997E+02  0.45594000000E+02  0.51100000000E-03 0.  1.
         11   -1    0    0    0    0 -0.00000000000E+00 -0.00000000000E+00 -0.45593999997E+02  0.45594000000E+02  0.51100000000E-03 0. -1.
    9900012    2    1    2    0    0  0.27175760325E+02  0.13179053777E+02  0.10223082654E+02  0.59301939933E+02  0.49999992532E+02 0.  0.
         12    1    1    2    0    0 -0.27175760325E+02 -0.13179053777E+02 -0.10223082654E+02  0.31886060067E+02  0.00000000000E+00 0. -1.
         11    1    3    3    0    0  0.40849120011E+01 -0.25906208863E+01 -0.58475588938E+01  0.75889240285E+01  0.51100000000E-03 0. -1.
        -11    1    3    3    0    0  0.33418473571E+02  0.11316057315E+02  0.19024445331E+02  0.40084623603E+02  0.51100000000E-03 0.  1.
        -12    1    3    3    0    0 -0.10327625247E+02  0.44536173480E+01 -0.29538037833E+01  0.11628392302E+02  0.00000000000E+00 0.  1.
</event>
<event>
 7    1  0.7755875E-012  0.5930193E+02  0.7816164E-02  0.1266605E+00
        -11   -1    0    0    0    0  0.00000000000E+00  0.00000000000E+00  0.45593999997E+02  0.45594000000E+02  0.51100000000E-03 0.  1.
         11   -1    0    0    0    0 -0.00000000000E+00 -0.00000000000E+00 -0.45593999997E+02  0.45594000000E+02  0.51100000000E-03 0. -1.
    9900012    2    1    2    0    0  0.68953369133E+01 -0.26885450807E+02  0.15695478989E+02  0.59301934126E+02  0.49999981941E+02 0.  0.
         12    1    1    2    0    0 -0.68953369133E+01  0.26885450807E+02 -0.15695478989E+02  0.31886065874E+02  0.00000000000E+00 0. -1.
         11    1    3    3    0    0  0.12603283439E+02  0.63801558918E+00  0.91546030071E+00  0.12652584130E+02  0.51100000000E-03 0. -1.
        -11    1    3    3    0    0 -0.42307877008E+01 -0.26534469411E+02  0.24744445625E+02  0.36527595336E+02  0.51100000000E-03 0.  1.
        -12    1    3    3    0    0 -0.14771588252E+01 -0.98899698515E+00 -0.99644269361E+01  0.10121754660E+02  0.00000000000E+00 0.  1.
</event>
<event>
 7    1  0.7755875E-012  0.5930192E+02  0.7816164E-02  0.1266605E+00
        -11   -1    0    0    0    0  0.00000000000E+00  0.00000000000E+00  0.45593999997E+02  0.45594000000E+02  0.51100000000E-03 0.  1.
         11   -1    0    0    0    0 -0.00000000000E+00 -0.00000000000E+00 -0.45593999997E+02  0.45594000000E+02  0.51100000000E-03 0. -1.
    9900012    2    1    2    0    0 -0.17516148459E+02  0.25285585455E+02  0.83991630158E+01  0.59301917957E+02  0.49999952454E+02 0.  0.
         12    1    1    2    0    0  0.17516148459E+02 -0.25285585455E+02 -0.83991630158E+01  0.31886082043E+02  0.00000000000E+00 0. -1.
         11    1    3    3    0    0 -0.13782130135E+02  0.13834003767E+02 -0.15788641049E+02  0.25111908684E+02  0.51100000000E-03 0.  1.
        -11    1    3    3    0    0 -0.86187750869E+01  0.13753890149E+02  0.23757497566E+02  0.28772755674E+02  0.51100000000E-03 0. -1.
         12    1    3    3    0    0  0.48847567633E+01 -0.23023084604E+01  0.43030649888E+00  0.54172535999E+01  0.00000000000E+00 0. -1.
</event>
<event>
 7    1  0.7755875E-012  0.5930184E+02  0.7816164E-02  0.1266605E+00
        -11   -1    0    0    0    0  0.00000000000E+00  0.00000000000E+00  0.45593999997E+02  0.45594000000E+02  0.51100000000E-03 0. -1.
         11   -1    0    0    0    0 -0.00000000000E+00 -0.00000000000E+00 -0.45593999997E+02  0.45594000000E+02  0.51100000000E-03 0.  1.
    9900012    2    1    2    0    0  0.10785383288E+02  0.15227279985E+02 -0.25855995371E+02  0.59301842423E+02  0.49999814696E+02 0.  0.
         12    1    1    2    0    0 -0.10785383288E+02 -0.15227279985E+02  0.25855995371E+02  0.31886157577E+02  0.00000000000E+00 0. -1.
         11    1    3    3    0    0 -0.10497249203E+02 -0.39537930737E+01 -0.26223043844E+02  0.28521443673E+02  0.51100000000E-03 0. -1.
        -11    1    3    3    0    0  0.13539084112E+02  0.84516663279E+01 -0.46582335520E+01  0.16626382722E+02  0.51100000000E-03 0.  1.
         12    1    3    3    0    0  0.77435483785E+01  0.10729406731E+02  0.50252820248E+01  0.14154016028E+02  0.00000000000E+00 0. -1.
</event>
<event>
 7    1  0.7755875E-012  0.5930193E+02  0.7816164E-02  0.1266605E+00
        -11   -1    0    0    0    0  0.00000000000E+00  0.00000000000E+00  0.45593999997E+02  0.45594000000E+02  0.51100000000E-03 0.  1.
         11   -1    0    0    0    0 -0.00000000000E+00 -0.00000000000E+00 -0.45593999997E+02  0.45594000000E+02  0.51100000000E-03 0. -1.
    9900012    2    1    2    0    0  0.14983468893E+02  0.35383887178E+01  0.27923054867E+02  0.59301928936E+02  0.49999972476E+02 0.  0.
         12    1    1    2    0    0 -0.14983468893E+02 -0.35383887178E+01 -0.27923054867E+02  0.31886071064E+02  0.00000000000E+00 0. -1.
         11    1    3    3    0    0  0.30649044656E+02  0.16051148688E+01  0.18071744417E+02  0.35616404628E+02  0.51100000000E-03 0.  1.
        -11    1    3    3    0    0 -0.15134174214E+02  0.67210606970E+01  0.88095724028E+01  0.18756984091E+02  0.51100000000E-03 0. -1.
        -12    1    3    3    0    0 -0.53140154887E+00 -0.47877868479E+01  0.10417380473E+01  0.49285402166E+01  0.00000000000E+00 0.  1.
</event>
<event>
 7    1  0.7755875E-012  0.5930195E+02  0.7816164E-02  0.1266605E+00
        -11   -1    0    0    0    0  0.00000000000E+00  0.00000000000E+00  0.45593999997E+02  0.45594000000E+02  0.51100000000E-03 0.  1.
         11   -1    0    0    0    0 -0.00000000000E+00 -0.00000000000E+00 -0.45593999997E+02  0.45594000000E+02  0.51100000000E-03 0. -1.
    9900012    2    1    2    0    0 -0.16030475027E+01 -0.22798834107E+02  0.22234285579E+02  0.59301952062E+02  0.50000014652E+02 0.  0.
         12    1    1    2    0    0  0.16030475027E+01  0.22798834107E+02 -0.22234285579E+02  0.31886047938E+02  0.00000000000E+00 0. -1.
         11    1    3    3    0    0  0.20771987864E+02 -0.88347996773E+00  0.23741225055E+01  0.20925880498E+02  0.51100000000E-03 0. -1.
        -11    1    3    3    0    0 -0.46103224487E+01 -0.79729521186E+01  0.16292366763E+01  0.93529380932E+01  0.51100000000E-03 0.  1.
         12    1    3    3    0    0 -0.17764712918E+02 -0.13942402020E+02  0.18230926397E+02  0.29023133471E+02  0.00000000000E+00 0. -1.
</event>
<event>
 7    1  0.7755875E-012  0.5930196E+02  0.7816164E-02  0.1266605E+00
        -11   -1    0    0    0    0  0.00000000000E+00  0.00000000000E+00  0.45593999997E+02  0.45594000000E+02  0.51100000000E-03 0.  1.
         11   -1    0    0    0    0 -0.00000000000E+00 -0.00000000000E+00 -0.45593999997E+02  0.45594000000E+02  0.51100000000E-03 0. -1.
    9900012    2    1    2    0    0 -0.30995574753E+02 -0.72831884033E+01  0.17172972095E+01  0.59301959210E+02  0.50000027688E+02 0.  0.
         12    1    1    2    0    0  0.30995574753E+02  0.72831884033E+01 -0.17172972095E+01  0.31886040790E+02  0.00000000000E+00 0. -1.
         11    1    3    3    0    0 -0.24087445077E+02  0.29895465332E+01  0.62999627021E+01  0.25076521471E+02  0.51100000000E-03 0.  1.
        -11    1    3    3    0    0 -0.90543583539E+01 -0.17020211139E+02 -0.12980185882E+02  0.23241218088E+02  0.51100000000E-03 0. -1.
         12    1    3    3    0    0  0.21462286777E+01  0.67474762023E+01  0.83975203895E+01  0.10984219650E+02  0.00000000000E+00 0. -1.
</event>
<event>
 7    1  0.7755875E-012  0.5930208E+02  0.7816164E-02  0.1266604E+00
        -11   -1    0    0    0    0  0.00000000000E+00  0.00000000000E+00  0.45593999997E+02  0.45594000000E+02  0.51100000000E-03 0.  1.
         11   -1    0    0    0    0 -0.00000000000E+00 -0.00000000000E+00 -0.45593999997E+02  0.45594000000E+02  0.51100000000E-03 0. -1.
    9900012    2    1    2    0    0  0.44998199809E+01  0.26962702796E+02  0.16415727615E+02  0.59302080928E+02  0.50000249672E+02 0.  0.
         12    1    1    2    0    0 -0.44998199809E+01 -0.26962702796E+02 -0.16415727615E+02  0.31885919072E+02  0.00000000000E+00 0. -1.
         11    1    3    3    0    0  0.12955906840E+02  0.15041104805E+02  0.27092851866E+02  0.33587393145E+02  0.51100000000E-03 0. -1.
        -11    1    3    3    0    0 -0.26054435995E+01  0.16017869166E+02 -0.79327995951E+01  0.18063492980E+02  0.51100000000E-03 0.  1.
         12    1    3    3    0    0 -0.58506432596E+01 -0.40962711753E+01 -0.27443246553E+01  0.76511948025E+01  0.00000000000E+00 0. -1.
</event>
<event>
 7    1  0.7755875E-012  0.5930197E+02  0.7816164E-02  0.1266605E+00
        -11   -1    0    0    0    0  0.00000000000E+00  0.00000000000E+00  0.45593999997E+02  0.45594000000E+02  0.51100000000E-03 0. -1.
         11   -1    0    0    0    0 -0.00000000000E+00 -0.00000000000E+00 -0.45593999997E+02  0.45594000000E+02  0.51100000000E-03 0.  1.
    9900012    2    1    2    0    0 -0.12011231030E+02 -0.27143806899E+02 -0.11647448466E+02  0.59301968895E+02  0.50000045352E+02 0.  0.
         12    1    1    2    0    0  0.12011231030E+02  0.27143806899E+02  0.11647448466E+02  0.31886031105E+02  0.00000000000E+00 0. -1.
         11    1    3    3    0    0 -0.94772941072E+01  0.16359547579E+01 -0.14571174144E+02  0.17458939480E+02  0.51100000000E-03 0. -1.
        -11    1    3    3    0    0 -0.15546603787E+01 -0.30541995618E+02 -0.72848962849E+01  0.31437241917E+02  0.51100000000E-03 0.  1.
        -12    1    3    3    0    0 -0.97927654446E+00  0.17622339606E+01  0.10208621963E+02  0.10405787498E+02  0.00000000000E+00 0.  1.
</event>
<event>
 7    1  0.7755875E-012  0.5930202E+02  0.7816164E-02  0.1266604E+00
        -11   -1    0    0    0    0  0.00000000000E+00  0.00000000000E+00  0.45593999997E+02  0.45594000000E+02  0.51100000000E-03 0. -1.
         11   -1    0    0    0    0 -0.00000000000E+00 -0.00000000000E+00 -0.45593999997E+02  0.45594000000E+02  0.51100000000E-03 0.  1.
    9900012    2    1    2    0    0  0.43021272680E+01  0.11614990669E+02 -0.29381957865E+02  0.59302019456E+02  0.50000137563E+02 0.  0.
         12    1    1    2    0    0 -0.43021272680E+01 -0.11614990669E+02  0.29381957865E+02  0.31885980544E+02  0.00000000000E+00 0. -1.
         11    1    3    3    0    0  0.47291494402E+01 -0.14200873749E+02 -0.73418537133E+01  0.16671307264E+02  0.51100000000E-03 0. -1.
        -11    1    3    3    0    0  0.67118268742E+01  0.27600956340E+02 -0.20708447682E+02  0.35152542107E+02  0.51100000000E-03 0.  1.
        -12    1    3    3    0    0 -0.71388490464E+01 -0.17850919221E+01 -0.13316564694E+01  0.74781700857E+01  0.00000000000E+00 0.  1.
</event>
<event>
 7    1  0.7755875E-012  0.5930201E+02  0.7816164E-02  0.1266605E+00
        -11   -1    0    0    0    0  0.00000000000E+00  0.00000000000E+00  0.45593999997E+02  0.45594000000E+02  0.51100000000E-03 0.  1.
         11   -1    0    0    0    0 -0.00000000000E+00 -0.00000000000E+00 -0.45593999997E+02  0.45594000000E+02  0.51100000000E-03 0. -1.
    9900012    2    1    2    0    0 -0.15967911885E+00 -0.29755236462E+02  0.11459362618E+02  0.59302006430E+02  0.50000113806E+02 0.  0.
         12    1    1    2    0    0  0.15967911885E+00  0.29755236462E+02 -0.11459362618E+02  0.31885993570E+02  0.00000000000E+00 0. -1.
         11    1    3    3    0    0  0.14420627488E+02  0.35142439826E+01  0.18226669689E+01  0.14954147353E+02  0.51100000000E-03 0. -1.
        -11    1    3    3    0    0 -0.93815553322E+01 -0.35566220720E+02  0.52227268901E+01  0.37151669050E+02  0.51100000000E-03 0.  1.
        -12    1    3    3    0    0 -0.51987512743E+01  0.22967402750E+01  0.44139687588E+01  0.71961900272E+01  0.00000000000E+00 0.  1.
</event>
<event>
 7    1  0.7755875E-012  0.5930193E+02  0.7816164E-02  0.1266605E+00
        -11   -1    0    0    0    0  0.00000000000E+00  0.00000000000E+00  0.45593999997E+02  0.45594000000E+02  0.51100000000E-03 0.  1.
         11   -1    0    0    0    0 -0.00000000000E+00 -0.00000000000E+00 -0.45593999997E+02  0.45594000000E+02  0.51100000000E-03 0. -1.
    9900012    2    1    2    0    0 -0.18627039112E+02  0.24528057466E+02  0.82540415476E+01  0.59301931083E+02  0.49999976391E+02 0.  0.
         12    1    1    2    0    0  0.18627039112E+02 -0.24528057466E+02 -0.82540415476E+01  0.31886068917E+02  0.00000000000E+00 0. -1.
         11    1    3    3    0    0 -0.85080474338E+01  0.92614501875E+01  0.17132673649E+01  0.12692384175E+02  0.51100000000E-03 0.  1.
        -11    1    3    3    0    0  0.47976782161E+01  0.53274542024E+01 -0.16163670581E+02  0.17682299949E+02  0.51100000000E-03 0. -1.
        -12    1    3    3    0    0 -0.14916669894E+02  0.99391530765E+01  0.22704444764E+02  0.28927246959E+02  0.00000000000E+00 0.  1.
</event>
<event>
 7    1  0.7755875E-012  0.5930170E+02  0.7816164E-02  0.1266606E+00
        -11   -1    0    0    0    0  0.00000000000E+00  0.00000000000E+00  0.45593999997E+02  0.45594000000E+02  0.51100000000E-03 0. -1.
         11   -1    0    0    0    0 -0.00000000000E+00 -0.00000000000E+00 -0.45593999997E+02  0.45594000000E+02  0.51100000000E-03 0.  1.
    9900012    2    1    2    0    0 -0.10907215030E+02  0.27081125394E+02  0.12821131775E+02  0.59301700241E+02  0.49999555390E+02 0.  0.
         12    1    1    2    0    0  0.10907215030E+02 -0.27081125394E+02 -0.12821131775E+02  0.31886299759E+02  0.00000000000E+00 0. -1.
         11    1    3    3    0    0 -0.28111005672E+01  0.27582263858E+02 -0.51586262148E+01  0.28200974994E+02  0.51100000000E-03 0. -1.
        -11    1    3    3    0    0 -0.83680987269E+00 -0.10644764605E+02  0.20570796863E+01  0.10873952425E+02  0.51100000000E-03 0.  1.
         12    1    3    3    0    0 -0.72593045901E+01  0.10143626140E+02  0.15922678304E+02  0.20226772821E+02  0.00000000000E+00 0. -1.
</event>
<event>
 7    1  0.7755875E-012  0.5930194E+02  0.7816164E-02  0.1266605E+00
        -11   -1    0    0    0    0  0.00000000000E+00  0.00000000000E+00  0.45593999997E+02  0.45594000000E+02  0.51100000000E-03 0. -1.
         11   -1    0    0    0    0 -0.00000000000E+00 -0.00000000000E+00 -0.45593999997E+02  0.45594000000E+02  0.51100000000E-03 0.  1.
    9900012    2    1    2    0    0 -0.74947170521E+01  0.25646833003E+02 -0.17400870536E+02  0.59301935298E+02  0.49999984079E+02 0.  0.
         12    1    1    2    0    0  0.74947170521E+01 -0.25646833003E+02  0.17400870536E+02  0.31886064702E+02  0.00000000000E+00 0. -1.
         11    1    3    3    0    0  0.19474501413E+01 -0.77295662869E+01 -0.59288888278E+01  0.99343082310E+01  0.51100000000E-03 0. -1.
        -11    1    3    3    0    0  0.53143576973E+01  0.24743218213E+02  0.48077005324E+01  0.25760109276E+02  0.51100000000E-03 0.  1.
        -12    1    3    3    0    0 -0.14756524891E+02  0.86331810771E+01 -0.16279682241E+02  0.23607517790E+02  0.00000000000E+00 0.  1.
</event>
<event>
 7    1  0.7755875E-012  0.5930197E+02  0.7816164E-02  0.1266605E+00
        -11   -1    0    0    0    0  0.00000000000E+00  0.00000000000E+00  0.45593999997E+02  0.45594000000E+02  0.51100000000E-03 0. -1.
         11   -1    0    0    0    0 -0.00000000000E+00 -0.00000000000E+00 -0.45593999997E+02  0.45594000000E+02  0.51100000000E-03 0.  1.
    9900012    2    1    2    0    0 -0.11728781755E+02  0.17816108137E+01 -0.29596969430E+02  0.59301967666E+02  0.50000043111E+02 0.  0.
         12    1    1    2    0    0  0.11728781755E+02 -0.17816108137E+01  0.29596969430E+02  0.31886032334E+02  0.00000000000E+00 0. -1.
         11    1    3    3    0    0  0.31364751189E+01 -0.37802800747E+01  0.39262898261E+01  0.62883818009E+01  0.51100000000E-03 0. -1.
        -11    1    3    3    0    0 -0.19811074013E+02  0.18214664820E+02 -0.17956508389E+02  0.32352571179E+02  0.51100000000E-03 0.  1.
        -12    1    3    3    0    0  0.49458171393E+01 -0.12652773932E+02 -0.15566750867E+02  0.20661014687E+02  0.00000000000E+00 0.  1.
</event>
<event>
 7    1  0.7755875E-012  0.5930195E+02  0.7816164E-02  0.1266605E+00
        -11   -1    0    0    0    0  0.00000000000E+00  0.00000000000E+00  0.45593999997E+02  0.45594000000E+02  0.51100000000E-03 0.  1.
         11   -1    0    0    0    0 -0.00000000000E+00 -0.00000000000E+00 -0.45593999997E+02  0.45594000000E+02  0.51100000000E-03 0. -1.
    9900012    2    1    2    0    0  0.12683373456E+02 -0.68783635912E+00  0.29246864789E+02  0.59301950055E+02  0.50000010992E+02 0.  0.
         12    1    1    2    0    0 -0.12683373456E+02  0.68783635912E+00 -0.29246864789E+02  0.31886049945E+02  0.00000000000E+00 0. -1.
         11    1    3    3    0    0 -0.15446762054E+01 -0.17892124875E+02 -0.40294799585E+01  0.18405185848E+02  0.51100000000E-03 0. -1.
        -11    1    3    3    0    0  0.37211237474E+01  0.99506086089E+01  0.18804357258E+02  0.21597806041E+02  0.51100000000E-03 0.  1.
         12    1    3    3    0    0  0.10506925914E+02  0.72536799070E+01  0.14471987489E+02  0.19298958165E+02  0.00000000000E+00 0. -1.
</event>
<event>
 7    1  0.7755875E-012  0.5930193E+02  0.7816164E-02  0.1266605E+00
        -11   -1    0    0    0    0  0.00000000000E+00  0.00000000000E+00  0.45593999997E+02  0.45594000000E+02  0.51100000000E-03 0.  1.
         11   -1    0    0    0    0 -0.00000000000E+00 -0.00000000000E+00 -0.45593999997E+02  0.45594000000E+02  0.51100000000E-03 0. -1.
    9900012    2    1    2    0    0  0.72464515228E+00 -0.20550697054E+02  0.24369348500E+02  0.59301930843E+02  0.49999975953E+02 0.  0.
         12    1    1    2    0    0 -0.72464515228E+00  0.20550697054E+02 -0.24369348500E+02  0.31886069157E+02  0.00000000000E+00 0. -1.
         11    1    3    3    0    0 -0.12525695976E+02 -0.13482366953E+02 -0.52189535067E+01  0.19128637021E+02  0.51100000000E-03 0. -1.
        -11    1    3    3    0    0  0.94124741222E+01 -0.56018635676E+01  0.33039372991E+02  0.34807696167E+02  0.51100000000E-03 0.  1.
        -12    1    3    3    0    0  0.38378670060E+01 -0.14664665338E+01 -0.34510709845E+01  0.53655976545E+01  0.00000000000E+00 0.  1.
</event>
<event>
 7    1  0.7755875E-012  0.5930198E+02  0.7816164E-02  0.1266605E+00
        -11   -1    0    0    0    0  0.00000000000E+00  0.00000000000E+00  0.45593999997E+02  0.45594000000E+02  0.51100000000E-03 0.  1.
         11   -1    0    0    0    0 -0.00000000000E+00 -0.00000000000E+00 -0.45593999997E+02  0.45594000000E+02  0.51100000000E-03 0. -1.
    9900012    2    1    2    0    0 -0.82417498122E+01 -0.94192077231E+01  0.29326959806E+02  0.59301976643E+02  0.50000059482E+02 0.  0.
         12    1    1    2    0    0  0.82417498122E+01  0.94192077231E+01 -0.29326959806E+02  0.31886023357E+02  0.00000000000E+00 0. -1.
         11    1    3    3    0    0 -0.10333268028E+02  0.29465107881E+01 -0.94143127300E+01  0.14285924485E+02  0.51100000000E-03 0. -1.
        -11    1    3    3    0    0 -0.55549616683E+01 -0.53048230774E+01  0.31281824049E+02  0.32211042565E+02  0.51100000000E-03 0.  1.
        -12    1    3    3    0    0  0.76464798840E+01 -0.70608954338E+01  0.74594484868E+01  0.12805009593E+02  0.00000000000E+00 0.  1.
</event>
<event>
 7    1  0.7755875E-012  0.5930197E+02  0.7816164E-02  0.1266605E+00
        -11   -1    0    0    0    0  0.00000000000E+00  0.00000000000E+00  0.45593999997E+02  0.45594000000E+02  0.51100000000E-03 0. -1.
         11   -1    0    0    0    0 -0.00000000000E+00 -0.00000000000E+00 -0.45593999997E+02  0.45594000000E+02  0.51100000000E-03 0.  1.
    9900012    2    1    2    0    0  0.17448240791E+02  0.16881525034E+02 -0.20671046444E+02  0.59301966141E+02  0.50000040329E+02 0.  0.
         12    1    1    2    0    0 -0.17448240791E+02 -0.16881525034E+02  0.20671046444E+02  0.31886033859E+02  0.00000000000E+00 0. -1.
         11    1    3    3    0    0 -0.98931834921E+01 -0.66635590175E+01 -0.56632350224E+00  0.11941474823E+02  0.51100000000E-03 0. -1.
        -11    1    3    3    0    0  0.22943376751E+02  0.79881923168E+01 -0.41488115127E+01  0.24645940649E+02  0.51100000000E-03 0.  1.
         12    1    3    3    0    0  0.43980475317E+01  0.15556891735E+02 -0.15955911429E+02  0.22714550668E+02  0.00000000000E+00 0. -1.
</event>
<event>
 7    1  0.7755875E-012  0.5930195E+02  0.7816164E-02  0.1266605E+00
        -11   -1    0    0    0    0  0.00000000000E+00  0.00000000000E+00  0.45593999997E+02  0.45594000000E+02  0.51100000000E-03 0. -1.
         11   -1    0    0    0    0 -0.00000000000E+00 -0.00000000000E+00 -0.45593999997E+02  0.45594000000E+02  0.51100000000E-03 0.  1.
    9900012    2    1    2    0    0 -0.92520799238E+01 -0.53600130475E+01 -0.30039793160E+02  0.59301954527E+02  0.50000019149E+02 0.  0.
         12    1    1    2    0    0  0.92520799238E+01  0.53600130475E+01  0.30039793160E+02  0.31886045473E+02  0.00000000000E+00 0. -1.
         11    1    3    3    0    0  0.11045324112E+02  0.10095510314E+02 -0.26507983436E+02  0.30439968781E+02  0.51100000000E-03 0. -1.
        -11    1    3    3    0    0 -0.16382959629E+02 -0.12844966408E+02 -0.80675222911E+01  0.22326653229E+02  0.51100000000E-03 0.  1.
         12    1    3    3    0    0 -0.39144444067E+01 -0.26105569530E+01  0.45357125676E+01  0.65353325174E+01  0.00000000000E+00 0. -1.
</event>
<event>
 7    1  0.7755875E-012  0.5930195E+02  0.7816164E-02  0.1266605E+00
        -11   -1    0    0    0    0  0.00000000000E+00  0.00000000000E+00  0.45593999997E+02  0.45594000000E+02  0.51100000000E-03 0.  1.
         11   -1    0    0    0    0 -0.00000000000E+00 -0.00000000000E+00 -0.45593999997E+02  0.45594000000E+02  0.51100000000E-03 0. -1.
    9900012    2    1    2    0    0 -0.11509313889E+02 -0.27040768491E+02  0.12371451239E+02  0.59301948622E+02  0.50000008378E+02 0.  0.
         12    1    1    2    0    0  0.11509313889E+02  0.27040768491E+02 -0.12371451239E+02  0.31886051378E+02  0.00000000000E+00 0. -1.
         11    1    3    3    0    0 -0.12129606552E+02  0.10354113119E+02 -0.64443521837E-02  0.15947885608E+02  0.51100000000E-03 0. -1.
        -11    1    3    3    0    0  0.33919916929E+01 -0.28888285445E+01  0.70346905331E+01  0.83269327583E+01  0.51100000000E-03 0.  1.
         12    1    3    3    0    0 -0.27716990301E+01 -0.34506053065E+02  0.53432050577E+01  0.35027130255E+02  0.00000000000E+00 0. -1.
</event>
<event>
 7    1  0.7755875E-012  0.5930197E+02  0.7816164E-02  0.1266605E+00
        -11   -1    0    0    0    0  0.00000000000E+00  0.00000000000E+00  0.45593999997E+02  0.45594000000E+02  0.51100000000E-03 0.  1.
         11   -1    0    0    0    0 -0.00000000000E+00 -0.00000000000E+00 -0.45593999997E+02  0.45594000000E+02  0.51100000000E-03 0. -1.
    9900012    2    1    2    0    0 -0.99556420944E+01 -0.24601013558E+02  0.17674672384E+02  0.59301972943E+02  0.50000052735E+02 0.  0.
         12    1    1    2    0    0  0.99556420944E+01  0.24601013558E+02 -0.17674672384E+02  0.31886027057E+02  0.00000000000E+00 0. -1.
         11    1    3    3    0    0  0.13580558973E+02 -0.38741314139E+00  0.14671331782E+02  0.19995740734E+02  0.51100000000E-03 0. -1.
        -11    1    3    3    0    0 -0.21730087748E+02 -0.87516900159E+01  0.37344479075E+01  0.23722033916E+02  0.51100000000E-03 0.  1.
        -12    1    3    3    0    0 -0.18061133190E+01 -0.15461910401E+02 -0.73110730628E+00  0.15584198294E+02  0.00000000000E+00 0.  1.
</event>
<event>
 7    1  0.7755875E-012  0.5930193E+02  0.7816164E-02  0.1266605E+00
        -11   -1    0    0    0    0  0.00000000000E+00  0.00000000000E+00  0.45593999997E+02  0.45594000000E+02  0.51100000000E-03 0.  1.
         11   -1    0    0    0    0 -0.00000000000E+00 -0.00000000000E+00 -0.45593999997E+02  0.45594000000E+02  0.51100000000E-03 0. -1.
    9900012    2    1    2    0    0  0.26693841708E+02  0.54883119700E+01  0.16554119462E+02  0.59301927420E+02  0.49999969712E+02 0.  0.
         12    1    1    2    0    0 -0.26693841708E+02 -0.54883119700E+01 -0.16554119462E+02  0.31886072580E+02  0.00000000000E+00 0. -1.
         11    1    3    3    0    0 -0.21755082750E+01 -0.14674613220E+02 -0.14964155139E+01  0.14910277297E+02  0.51100000000E-03 0. -1.
        -11    1    3    3    0    0  0.19913069450E+02  0.24159700822E+01  0.52043509015E+01  0.20723236111E+02  0.51100000000E-03 0.  1.
         12    1    3    3    0    0  0.89562805327E+01  0.17746955108E+02  0.12846184074E+02  0.23668414012E+02  0.00000000000E+00 0. -1.
</event>
<event>
 7    1  0.7755875E-012  0.5930200E+02  0.7816164E-02  0.1266605E+00
        -11   -1    0    0    0    0  0.00000000000E+00  0.00000000000E+00  0.45593999997E+02  0.45594000000E+02  0.51100000000E-03 0.  1.
         11   -1    0    0    0    0 -0.00000000000E+00 -0.00000000000E+00 -0.45593999997E+02  0.45594000000E+02  0.51100000000E-03 0. -1.
    9900012    2    1    2    0    0  0.13933319120E+02 -0.14092245549E+00  0.28680304915E+02  0.59301997886E+02  0.50000098224E+02 0.  0.
         12    1    1    2    0    0 -0.13933319120E+02  0.14092245549E+00 -0.28680304915E+02  0.31886002114E+02  0.00000000000E+00 0. -1.
         11    1    3    3    0    0  0.62740820632E+01 -0.84279029342E+01  0.21152243346E+02  0.23618023889E+02  0.51100000000E-03 0. -1.
        -11    1    3    3    0    0  0.19287261962E+02  0.10512824883E+02  0.90300329647E+01  0.23749935929E+02  0.51100000000E-03 0.  1.
         12    1    3    3    0    0 -0.11628024906E+02 -0.22258444042E+01 -0.15019713963E+01  0.11934038068E+02  0.00000000000E+00 0. -1.
</event>
<event>
 7    1  0.7755875E-012  0.5930194E+02  0.7816164E-02  0.1266605E+00
        -11   -1    0    0    0    0  0.00000000000E+00  0.00000000000E+00  0.45593999997E+02  0.45594000000E+02  0.51100000000E-03 0.  1.
         11   -1    0    0    0    0 -0.00000000000E+00 -0.00000000000E+00 -0.45593999997E+02  0.45594000000E+02  0.51100000000E-03 0. -1.
    9900012    2    1    2    0    0  0.17321274747E+02  0.26159829167E+02  0.56883872466E+01  0.59301937678E+02  0.49999988420E+02 0.  0.
         12    1    1    2    0    0 -0.17321274747E+02 -0.26159829167E+02 -0.56883872466E+01  0.31886062322E+02  0.00000000000E+00 0. -1.
         11    1    3    3    0    0 -0.60160153698E+01  0.56769213684E+01 -0.62131561518E+01  0.10345201147E+02  0.51100000000E-03 0. -1.
        -11    1    3    3    0    0  0.11903368116E+02 -0.82482076859E+01  0.10708659382E+02  0.18011065725E+02  0.51100000000E-03 0.  1.
        -12    1    3    3    0    0  0.11433922001E+02  0.28731115485E+02  0.11928840159E+01  0.30945670805E+02  0.00000000000E+00 0.  1.
</event>
<event>
 7    1  0.7755875E-012  0.5930189E+02  0.7816164E-02  0.1266605E+00
        -11   -1    0    0    0    0  0.00000000000E+00  0.00000000000E+00  0.45593999997E+02  0.45594000000E+02  0.51100000000E-03 0.  1.
         11   -1    0    0    0    0 -0.00000000000E+00 -0.00000000000E+00 -0.45593999997E+02  0.45594000000E+02  0.51100000000E-03 0. -1.
    9900012    2    1    2    0    0  0.30244727469E+02  0.98256389361E+01 -0.23318350518E+01  0.59301887429E+02  0.49999896777E+02 0.  0.
         12    1    1    2    0    0 -0.30244727469E+02 -0.98256389361E+01  0.23318350518E+01  0.31886112571E+02  0.00000000000E+00 0. -1.
         11    1    3    3    0    0  0.60053583560E+01  0.21626816248E+02 -0.15358131899E+01  0.22497605037E+02  0.51100000000E-03 0. -1.
        -11    1    3    3    0    0  0.29004965300E+02 -0.13020170375E+02 -0.15336672375E+01  0.31830252656E+02  0.51100000000E-03 0.  1.
         12    1    3    3    0    0 -0.47655961870E+01  0.12189930637E+01  0.73764537570E+00  0.49740297353E+01  0.00000000000E+00 0. -1.
</event>
<event>
 7    1  0.7755875E-012  0.5930193E+02  0.7816164E-02  0.1266605E+00
        -11   -1    0    0    0    0  0.00000000000E+00  0.00000000000E+00  0.45593999997E+02  0.45594000000E+02  0.51100000000E-03 0.  1.
         11   -1    0    0    0    0 -0.00000000000E+00 -0.00000000000E+00 -0.45593999997E+02  0.45594000000E+02  0.51100000000E-03 0. -1.
    9900012    2    1    2    0    0 -0.15528225069E+02  0.22013495946E+02  0.17058776511E+02  0.59301927278E+02  0.49999969453E+02 0.  0.
         12    1    1    2    0    0  0.15528225069E+02 -0.22013495946E+02 -0.17058776511E+02  0.31886072722E+02  0.00000000000E+00 0. -1.
         11    1    3    3    0    0 -0.64521194239E+01  0.58648695983E+01 -0.83260618231E+01  0.12056112400E+02  0.51100000000E-03 0. -1.
        -11    1    3    3    0    0  0.12174862447E+02 -0.34883583817E+00  0.38144527738E+01  0.12763189737E+02  0.51100000000E-03 0.  1.
        -12    1    3    3    0    0 -0.21250968092E+02  0.16497462186E+02  0.21570385560E+02  0.34482625141E+02  0.00000000000E+00 0.  1.
</event>
<event>
 7    1  0.7755875E-012  0.5930196E+02  0.7816164E-02  0.1266605E+00
        -11   -1    0    0    0    0  0.00000000000E+00  0.00000000000E+00  0.45593999997E+02  0.45594000000E+02  0.51100000000E-03 0. -1.
         11   -1    0    0    0    0 -0.00000000000E+00 -0.00000000000E+00 -0.45593999997E+02  0.45594000000E+02  0.51100000000E-03 0.  1.
    9900012    2    1    2    0    0  0.27095094163E+02  0.12280059155E+02 -0.11479352153E+02  0.59301960635E+02  0.50000030287E+02 0.  0.
         12    1    1    2    0    0 -0.27095094163E+02 -0.12280059155E+02  0.11479352153E+02  0.31886039365E+02  0.00000000000E+00 0. -1.
         11    1    3    3    0    0  0.28053476073E+02  0.16410575825E+02 -0.21070882524E+02  0.38733533395E+02  0.51100000000E-03 0.  1.
        -11    1    3    3    0    0 -0.21693284005E+01  0.49708685695E+01  0.10001798380E+02  0.11377675120E+02  0.51100000000E-03 0. -1.
         12    1    3    3    0    0  0.12109464901E+01 -0.91013852394E+01 -0.41026800930E+00  0.91907521192E+01  0.00000000000E+00 0. -1.
</event>
<event>
 7    1  0.7755875E-012  0.5930193E+02  0.7816164E-02  0.1266605E+00
        -11   -1    0    0    0    0  0.00000000000E+00  0.00000000000E+00  0.45593999997E+02  0.45594000000E+02  0.51100000000E-03 0. -1.
         11   -1    0    0    0    0 -0.00000000000E+00 -0.00000000000E+00 -0.45593999997E+02  0.45594000000E+02  0.51100000000E-03 0.  1.
    9900012    2    1    2    0    0  0.10200200392E+02  0.25808131772E+02 -0.15704061120E+02  0.59301932678E+02  0.49999979301E+02 0.  0.
         12    1    1    2    0    0 -0.10200200392E+02 -0.25808131772E+02  0.15704061120E+02  0.31886067322E+02  0.00000000000E+00 0. -1.
         11    1    3    3    0    0  0.25028667040E+01 -0.13366615108E+02  0.29713843932E+01  0.13919765323E+02  0.51100000000E-03 0. -1.
        -11    1    3    3    0    0 -0.72970195389E+00  0.90400838609E+01 -0.25715975109E+00  0.90731313532E+01  0.51100000000E-03 0.  1.
         12    1    3    3    0    0  0.84270356422E+01  0.30134663019E+02 -0.18418285762E+02  0.36309036002E+02  0.00000000000E+00 0. -1.
</event>
<event>
 7    1  0.7755875E-012  0.5930193E+02  0.7816164E-02  0.1266605E+00
        -11   -1    0    0    0    0  0.00000000000E+00  0.00000000000E+00  0.45593999997E+02  0.45594000000E+02  0.51100000000E-03 0.  1.
         11   -1    0    0    0    0 -0.00000000000E+00 -0.00000000000E+00 -0.45593999997E+02  0.45594000000E+02  0.51100000000E-03 0. -1.
    9900012    2    1    2    0    0 -0.96905791312E+01  0.29214620253E+02  0.83258555428E+01  0.59301933593E+02  0.49999980969E+02 0.  0.
         12    1    1    2    0    0  0.96905791312E+01 -0.29214620253E+02 -0.83258555428E+01  0.31886066407E+02  0.00000000000E+00 0. -1.
         11    1    3    3    0    0 -0.15371381497E+02  0.23760079976E+02 -0.15352874475E+02  0.32195209651E+02  0.51100000000E-03 0. -1.
        -11    1    3    3    0    0  0.63873936217E+01 -0.67311894438E+00  0.80063323908E+01  0.10264172885E+02  0.51100000000E-03 0.  1.
         12    1    3    3    0    0 -0.70659125577E+00  0.61276592209E+01  0.15672397627E+02  0.16842551057E+02  0.00000000000E+00 0. -1.
</event>
<event>
 7    1  0.7755875E-012  0.5930193E+02  0.7816164E-02  0.1266605E+00
        -11   -1    0    0    0    0  0.00000000000E+00  0.00000000000E+00  0.45593999997E+02  0.45594000000E+02  0.51100000000E-03 0.  1.
         11   -1    0    0    0    0 -0.00000000000E+00 -0.00000000000E+00 -0.45593999997E+02  0.45594000000E+02  0.51100000000E-03 0. -1.
    9900012    2    1    2    0    0  0.22757510541E+02 -0.19333751972E+02  0.11181372653E+02  0.59301931792E+02  0.49999977686E+02 0.  0.
         12    1    1    2    0    0 -0.22757510541E+02  0.19333751972E+02 -0.11181372653E+02  0.31886068208E+02  0.00000000000E+00 0. -1.
         11    1    3    3    0    0 -0.19853280260E+01 -0.86151834384E+01 -0.16604290556E+01  0.89955510092E+01  0.51100000000E-03 0. -1.
        -11    1    3    3    0    0  0.24374338636E+02  0.95988444984E+01  0.14458402858E+02  0.29921423982E+02  0.51100000000E-03 0.  1.
        -12    1    3    3    0    0  0.36849993076E+00 -0.20317413032E+02 -0.16166011488E+01  0.20384956801E+02  0.00000000000E+00 0.  1.
</event>
<event>
 7    1  0.7755875E-012  0.5930194E+02  0.7816164E-02  0.1266605E+00
        -11   -1    0    0    0    0  0.00000000000E+00  0.00000000000E+00  0.45593999997E+02  0.45594000000E+02  0.51100000000E-03 0.  1.
         11   -1    0    0    0    0 -0.00000000000E+00 -0.00000000000E+00 -0.45593999997E+02  0.45594000000E+02  0.51100000000E-03 0. -1.
    9900012    2    1    2    0    0 -0.29610185874E+02  0.71307425047E+00  0.11808860726E+02  0.59301940758E+02  0.49999994036E+02 0.  0.
         12    1    1    2    0    0  0.29610185874E+02 -0.71307425047E+00 -0.11808860726E+02  0.31886059242E+02  0.00000000000E+00 0. -1.
         11    1    3    3    0    0  0.11693150532E+02 -0.92469059424E+01  0.63504236117E+01  0.16203793358E+02  0.51100000000E-03 0. -1.
        -11    1    3    3    0    0 -0.35181783168E+02  0.10005802880E+02  0.54196674836E+01  0.36976299897E+02  0.51100000000E-03 0.  1.
         12    1    3    3    0    0 -0.61215532383E+01 -0.45822687572E-01  0.38769630412E-01  0.61218475031E+01  0.00000000000E+00 0. -1.
</event>
<event>
 7    1  0.7755875E-012  0.5930194E+02  0.7816164E-02  0.1266605E+00
        -11   -1    0    0    0    0  0.00000000000E+00  0.00000000000E+00  0.45593999997E+02  0.45594000000E+02  0.51100000000E-03 0.  1.
         11   -1    0    0    0    0 -0.00000000000E+00 -0.00000000000E+00 -0.45593999997E+02  0.45594000000E+02  0.51100000000E-03 0. -1.
    9900012    2    1    2    0    0 -0.59790700545E+01 -0.27646893854E+02  0.14718037464E+02  0.59301942776E+02  0.49999997717E+02 0.  0.
         12    1    1    2    0    0  0.59790700545E+01  0.27646893854E+02 -0.14718037464E+02  0.31886057224E+02  0.00000000000E+00 0. -1.
         11    1    3    3    0    0  0.18936523737E+02 -0.62158312435E+01  0.47675780999E+01  0.20492883899E+02  0.51100000000E-03 0. -1.
        -11    1    3    3    0    0 -0.18201823286E+02 -0.23170555094E+02  0.11623434116E+02  0.31674677823E+02  0.51100000000E-03 0.  1.
         12    1    3    3    0    0 -0.67137705056E+01  0.17394924831E+01 -0.16729747514E+01  0.71343810538E+01  0.00000000000E+00 0. -1.
</event>
<event>
 7    1  0.7755875E-012  0.5930194E+02  0.7816164E-02  0.1266605E+00
        -11   -1    0    0    0    0  0.00000000000E+00  0.00000000000E+00  0.45593999997E+02  0.45594000000E+02  0.51100000000E-03 0. -1.
         11   -1    0    0    0    0 -0.00000000000E+00 -0.00000000000E+00 -0.45593999997E+02  0.45594000000E+02  0.51100000000E-03 0.  1.
    9900012    2    1    2    0    0  0.56761461193E+01  0.37942569784E+01 -0.31146526395E+02  0.59301935218E+02  0.49999983934E+02 0.  0.
         12    1    1    2    0    0 -0.56761461193E+01 -0.37942569784E+01  0.31146526395E+02  0.31886064782E+02  0.00000000000E+00 0. -1.
         11    1    3    3    0    0  0.10954389518E+02  0.17557993454E+02 -0.33702934045E+02  0.39549583403E+02  0.51100000000E-03 0. -1.
        -11    1    3    3    0    0 -0.94796197946E+01 -0.90894990188E+01  0.29308430364E+01  0.13456300570E+02  0.51100000000E-03 0.  1.
         12    1    3    3    0    0  0.42013763957E+01 -0.46742374571E+01 -0.37443538628E+00  0.62960512452E+01  0.00000000000E+00 0. -1.
</event>
<event>
 7    1  0.7755875E-012  0.5930196E+02  0.7816164E-02  0.1266605E+00
        -11   -1    0    0    0    0  0.00000000000E+00  0.00000000000E+00  0.45593999997E+02  0.45594000000E+02  0.51100000000E-03 0. -1.
         11   -1    0    0    0    0 -0.00000000000E+00 -0.00000000000E+00 -0.45593999997E+02  0.45594000000E+02  0.51100000000E-03 0.  1.
    9900012    2    1    2    0    0  0.17776706965E+02  0.26454875095E+02  0.92081439287E+00  0.59301958760E+02  0.50000026868E+02 0.  0.
         12    1    1    2    0    0 -0.17776706965E+02 -0.26454875095E+02 -0.92081439287E+00  0.31886041240E+02  0.00000000000E+00 0. -1.
         11    1    3    3    0    0 -0.10985100589E+02 -0.67096711494E+01 -0.27571084888E+01  0.13164109137E+02  0.51100000000E-03 0. -1.
        -11    1    3    3    0    0  0.56091686476E+01  0.16354507352E+02  0.27835216869E+01  0.17512300730E+02  0.51100000000E-03 0.  1.
         12    1    3    3    0    0  0.23152638906E+02  0.16810038893E+02  0.89440119469E+00  0.28625548893E+02  0.00000000000E+00 0. -1.
</event>
<event>
 7    1  0.7755875E-012  0.5930193E+02  0.7816164E-02  0.1266605E+00
        -11   -1    0    0    0    0  0.00000000000E+00  0.00000000000E+00  0.45593999997E+02  0.45594000000E+02  0.51100000000E-03 0. -1.
         11   -1    0    0    0    0 -0.00000000000E+00 -0.00000000000E+00 -0.45593999997E+02  0.45594000000E+02  0.51100000000E-03 0.  1.
    9900012    2    1    2    0    0  0.15131138820E+02  0.27964453324E+02  0.23999262261E+01  0.59301926902E+02  0.49999968767E+02 0.  0.
         12    1    1    2    0    0 -0.15131138820E+02 -0.27964453324E+02 -0.23999262261E+01  0.31886073098E+02  0.00000000000E+00 0. -1.
         11    1    3    3    0    0  0.10289544893E+02 -0.24562333715E+01  0.16568291657E+02  0.19657469450E+02  0.51100000000E-03 0. -1.
        -11    1    3    3    0    0  0.12467849096E+02  0.22050010073E+02 -0.71440676371E+01  0.26318964796E+02  0.51100000000E-03 0.  1.
         12    1    3    3    0    0 -0.76262551693E+01  0.83706766231E+01 -0.70242977935E+01  0.13325492656E+02  0.00000000000E+00 0. -1.
</event>
<event>
 7    1  0.7755875E-012  0.5930196E+02  0.7816164E-02  0.1266605E+00
        -11   -1    0    0    0    0  0.00000000000E+00  0.00000000000E+00  0.45593999997E+02  0.45594000000E+02  0.51100000000E-03 0.  1.
         11   -1    0    0    0    0 -0.00000000000E+00 -0.00000000000E+00 -0.45593999997E+02  0.45594000000E+02  0.51100000000E-03 0. -1.
    9900012    2    1    2    0    0  0.26865218346E+02 -0.95648719615E+01 -0.14265097196E+02  0.59301957122E+02  0.50000023881E+02 0.  0.
         12    1    1    2    0    0 -0.26865218346E+02  0.95648719615E+01  0.14265097196E+02  0.31886042878E+02  0.00000000000E+00 0. -1.
         11    1    3    3    0    0 -0.47178620822E+01 -0.12539070437E+01 -0.61878325924E+01  0.78816101117E+01  0.51100000000E-03 0. -1.
        -11    1    3    3    0    0  0.32997876587E+02 -0.18935362431E+02 -0.75801333927E-01  0.38044888695E+02  0.51100000000E-03 0.  1.
        -12    1    3    3    0    0 -0.14147961592E+01  0.10624397513E+02 -0.80014632696E+01  0.13375458316E+02  0.00000000000E+00 0.  1.
</event>
<event>
 7    1  0.7755875E-012  0.5930192E+02  0.7816164E-02  0.1266605E+00
        -11   -1    0    0    0    0  0.00000000000E+00  0.00000000000E+00  0.45593999997E+02  0.45594000000E+02  0.51100000000E-03 0. -1.
         11   -1    0    0    0    0 -0.00000000000E+00 -0.00000000000E+00 -0.45593999997E+02  0.45594000000E+02  0.51100000000E-03 0.  1.
    9900012    2    1    2    0    0 -0.42646840648E+01 -0.18792548641E+02 -0.25404227173E+02  0.59301918822E+02  0.49999954031E+02 0.  0.
         12    1    1    2    0    0  0.42646840648E+01  0.18792548641E+02  0.25404227173E+02  0.31886081178E+02  0.00000000000E+00 0. -1.
         11    1    3    3    0    0  0.98916347138E+01 -0.17151497135E+02 -0.34706107224E+02  0.39956628614E+02  0.51100000000E-03 0. -1.
        -11    1    3    3    0    0 -0.11049931012E+02 -0.49980533071E+01  0.51777633564E+01  0.13186764041E+02  0.51100000000E-03 0.  1.
         12    1    3    3    0    0 -0.31063877667E+01  0.33570018011E+01  0.41241166944E+01  0.61585261677E+01  0.00000000000E+00 0. -1.
</event>
<event>
 7    1  0.7755875E-012  0.5930193E+02  0.7816164E-02  0.1266605E+00
        -11   -1    0    0    0    0  0.00000000000E+00  0.00000000000E+00  0.45593999997E+02  0.45594000000E+02  0.51100000000E-03 0. -1.
         11   -1    0    0    0    0 -0.00000000000E+00 -0.00000000000E+00 -0.45593999997E+02  0.45594000000E+02  0.51100000000E-03 0.  1.
    9900012    2    1    2    0    0  0.28384821756E+02  0.60599223451E+01 -0.13202287346E+02  0.59301934766E+02  0.49999983109E+02 0.  0.
         12    1    1    2    0    0 -0.28384821756E+02 -0.60599223451E+01  0.13202287346E+02  0.31886065234E+02  0.00000000000E+00 0. -1.
         11    1    3    3    0    0  0.26739266759E+02 -0.93814882223E+01  0.98993348260E+01  0.30016621035E+02  0.51100000000E-03 0. -1.
        -11    1    3    3    0    0 -0.35907608749E+01  0.77894982376E+01 -0.92289728032E+01  0.12599356560E+02  0.51100000000E-03 0.  1.
         12    1    3    3    0    0  0.52363158714E+01  0.76519123298E+01 -0.13872649369E+02  0.16685957171E+02  0.00000000000E+00 0. -1.
</event>
<event>
 7    1  0.7755875E-012  0.5930195E+02  0.7816164E-02  0.1266605E+00
        -11   -1    0    0    0    0  0.00000000000E+00  0.00000000000E+00  0.45593999997E+02  0.45594000000E+02  0.51100000000E-03 0.  1.
         11   -1    0    0    0    0 -0.00000000000E+00 -0.00000000000E+00 -0.45593999997E+02  0.45594000000E+02  0.51100000000E-03 0. -1.
    9900012    2    1    2    0    0  0.13089658790E+02 -0.19387350786E+02  0.21668224259E+02  0.59301945364E+02  0.50000002436E+02 0.  0.
         12    1    1    2    0    0 -0.13089658790E+02  0.19387350786E+02 -0.21668224259E+02  0.31886054636E+02  0.00000000000E+00 0. -1.
         11    1    3    3    0    0  0.87721457048E+01  0.72874435494E+01 -0.64506021348E+01  0.13102199888E+02  0.51100000000E-03 0. -1.
        -11    1    3    3    0    0 -0.25986406982E+01 -0.16032149879E+02  0.10171973776E+01  0.16273212774E+02  0.51100000000E-03 0.  1.
         12    1    3    3    0    0  0.69161537837E+01 -0.10642644456E+02  0.27101629016E+02  0.29926532701E+02  0.00000000000E+00 0. -1.
</event>
<event>
 7    1  0.7755875E-012  0.5930196E+02  0.7816164E-02  0.1266605E+00
        -11   -1    0    0    0    0  0.00000000000E+00  0.00000000000E+00  0.45593999997E+02  0.45594000000E+02  0.51100000000E-03 0.  1.
         11   -1    0    0    0    0 -0.00000000000E+00 -0.00000000000E+00 -0.45593999997E+02  0.45594000000E+02  0.51100000000E-03 0. -1.
    9900012    2    1    2    0    0 -0.95502012891E+01  0.33826311663E+01  0.30233607637E+02  0.59301959653E+02  0.50000028496E+02 0.  0.
         12    1    1    2    0    0  0.95502012891E+01 -0.33826311663E+01 -0.30233607637E+02  0.31886040347E+02  0.00000000000E+00 0. -1.
         11    1    3    3    0    0  0.11007403437E+02  0.24610312904E+00  0.95836897211E+01  0.14596938244E+02  0.51100000000E-03 0. -1.
        -11    1    3    3    0    0 -0.23002070639E+02  0.81790508876E+01  0.26889419950E+02  0.36318494360E+02  0.51100000000E-03 0.  1.
        -12    1    3    3    0    0  0.24444659126E+01 -0.50425228504E+01 -0.62395020341E+01  0.83865270481E+01  0.00000000000E+00 0.  1.
</event>
<event>
 7    1  0.7755875E-012  0.5930200E+02  0.7816164E-02  0.1266605E+00
        -11   -1    0    0    0    0  0.00000000000E+00  0.00000000000E+00  0.45593999997E+02  0.45594000000E+02  0.51100000000E-03 0.  1.
         11   -1    0    0    0    0 -0.00000000000E+00 -0.00000000000E+00 -0.45593999997E+02  0.45594000000E+02  0.51100000000E-03 0. -1.
    9900012    2    1    2    0    0 -0.12257539747E+00 -0.14996644952E+02  0.28138990054E+02  0.59301997651E+02  0.50000097795E+02 0.  0.
         12    1    1    2    0    0  0.12257539747E+00  0.14996644952E+02 -0.28138990054E+02  0.31886002349E+02  0.00000000000E+00 0. -1.
         11    1    3    3    0    0  0.28835550264E+01 -0.10317483994E+02 -0.12702581641E+02  0.16616887379E+02  0.51100000000E-03 0. -1.
        -11    1    3    3    0    0 -0.64061139204E+01  0.26103244838E+00  0.20909220507E+02  0.21870115134E+02  0.51100000000E-03 0.  1.
         12    1    3    3    0    0  0.33999834966E+01 -0.49401934069E+01  0.19932351189E+02  0.20814995138E+02  0.00000000000E+00 0. -1.
</event>
<event>
 7    1  0.7755875E-012  0.5930195E+02  0.7816164E-02  0.1266605E+00
        -11   -1    0    0    0    0  0.00000000000E+00  0.00000000000E+00  0.45593999997E+02  0.45594000000E+02  0.51100000000E-03 0.  1.
         11   -1    0    0    0    0 -0.00000000000E+00 -0.00000000000E+00 -0.45593999997E+02  0.45594000000E+02  0.51100000000E-03 0. -1.
    9900012    2    1    2    0    0 -0.81855263175E+01 -0.20694870909E+02  0.22835051939E+02  0.59301951012E+02  0.50000012738E+02 0.  0.
         12    1    1    2    0    0  0.81855263175E+01  0.20694870909E+02 -0.22835051939E+02  0.31886048988E+02  0.00000000000E+00 0. -1.
         11    1    3    3    0    0 -0.10783463917E+02  0.11878496464E+02  0.88399098510E+00  0.16067458188E+02  0.51100000000E-03 0. -1.
        -11    1    3    3    0    0  0.83700790609E+01 -0.29348218503E+02  0.19310364535E+02  0.36114627667E+02  0.51100000000E-03 0.  1.
         12    1    3    3    0    0 -0.57721414610E+01 -0.32251488698E+01  0.26406964188E+01  0.71198651571E+01  0.00000000000E+00 0. -1.
</event>
<event>
 7    1  0.7755875E-012  0.5930195E+02  0.7816164E-02  0.1266605E+00
        -11   -1    0    0    0    0  0.00000000000E+00  0.00000000000E+00  0.45593999997E+02  0.45594000000E+02  0.51100000000E-03 0.  1.
         11   -1    0    0    0    0 -0.00000000000E+00 -0.00000000000E+00 -0.45593999997E+02  0.45594000000E+02  0.51100000000E-03 0. -1.
    9900012    2    1    2    0    0 -0.18251990434E+02  0.70609922902E+01  0.25173941833E+02  0.59301951102E+02  0.50000012902E+02 0.  0.
         12    1    1    2    0    0  0.18251990434E+02 -0.70609922902E+01 -0.25173941833E+02  0.31886048898E+02  0.00000000000E+00 0. -1.
         11    1    3    3    0    0  0.89455228652E+01 -0.23472735647E+01  0.23252713439E+01  0.95361920913E+01  0.51100000000E-03 0. -1.
        -11    1    3    3    0    0 -0.24402799161E+02 -0.83181820093E+01  0.98150826951E+01  0.27586674454E+02  0.51100000000E-03 0.  1.
        -12    1    3    3    0    0 -0.27947141376E+01  0.17726447864E+02  0.13033587794E+02  0.22179084557E+02  0.00000000000E+00 0.  1.
</event>
<event>
 7    1  0.7755875E-012  0.5930195E+02  0.7816164E-02  0.1266605E+00
        -11   -1    0    0    0    0  0.00000000000E+00  0.00000000000E+00  0.45593999997E+02  0.45594000000E+02  0.51100000000E-03 0.  1.
         11   -1    0    0    0    0 -0.00000000000E+00 -0.00000000000E+00 -0.45593999997E+02  0.45594000000E+02  0.51100000000E-03 0. -1.
    9900012    2    1    2    0    0 -0.28003519581E+02  0.70775218267E+00  0.15232282261E+02  0.59301945918E+02  0.50000003447E+02 0.  0.
         12    1    1    2    0    0  0.28003519581E+02 -0.70775218267E+00 -0.15232282261E+02  0.31886054082E+02  0.00000000000E+00 0. -1.
         11    1    3    3    0    0  0.52441743445E+01 -0.38338409309E+01 -0.66002592843E+01  0.92608381759E+01  0.51100000000E-03 0. -1.
        -11    1    3    3    0    0 -0.27697003273E+02 -0.63501111223E+01  0.44071750021E+01  0.28755366340E+02  0.51100000000E-03 0.  1.
        -12    1    3    3    0    0 -0.55506906521E+01  0.10891704236E+02  0.17425366543E+02  0.21285741402E+02  0.00000000000E+00 0.  1.
</event>
<event>
 7    1  0.7755875E-012  0.5930195E+02  0.7816164E-02  0.1266605E+00
        -11   -1    0    0    0    0  0.00000000000E+00  0.00000000000E+00  0.45593999997E+02  0.45594000000E+02  0.51100000000E-03 0.  1.
         11   -1    0    0    0    0 -0.00000000000E+00 -0.00000000000E+00 -0.45593999997E+02  0.45594000000E+02  0.51100000000E-03 0. -1.
    9900012    2    1    2    0    0  0.31882697934E+02  0.37633950412E+00  0.26906008369E+00  0.59301945802E+02  0.50000003237E+02 0.  0.
         12    1    1    2    0    0 -0.31882697934E+02 -0.37633950412E+00 -0.26906008369E+00  0.31886054198E+02  0.00000000000E+00 0. -1.
         11    1    3    3    0    0  0.12335094429E+02  0.32889044168E+01 -0.21862240403E+02  0.25316575648E+02  0.51100000000E-03 0. -1.
        -11    1    3    3    0    0  0.66024473432E+01 -0.25842945771E+00  0.19396296872E+02  0.20490862093E+02  0.51100000000E-03 0.  1.
         12    1    3    3    0    0  0.12945156161E+02 -0.26541354550E+01  0.27350036152E+01  0.13494508062E+02  0.00000000000E+00 0. -1.
</event>
<event>
 7    1  0.7755875E-012  0.5930196E+02  0.7816164E-02  0.1266605E+00
        -11   -1    0    0    0    0  0.00000000000E+00  0.00000000000E+00  0.45593999997E+02  0.45594000000E+02  0.51100000000E-03 0.  1.
         11   -1    0    0    0    0 -0.00000000000E+00 -0.00000000000E+00 -0.45593999997E+02  0.45594000000E+02  0.51100000000E-03 0. -1.
    9900012    2    1    2    0    0  0.73304081164E+01 -0.15462294897E+02  0.26905434021E+02  0.59301955615E+02  0.50000021132E+02 0.  0.
         12    1    1    2    0    0 -0.73304081164E+01  0.15462294897E+02 -0.26905434021E+02  0.31886044385E+02  0.00000000000E+00 0. -1.
         11    1    3    3    0    0 -0.77490371680E+01  0.33198290643E+01 -0.10618459782E+01  0.84968440724E+01  0.51100000000E-03 0. -1.
        -11    1    3    3    0    0  0.16415465960E+02 -0.28333691042E+02  0.20871507646E+02  0.38831500131E+02  0.51100000000E-03 0.  1.
        -12    1    3    3    0    0 -0.13360206759E+01  0.95515670803E+01  0.70957723539E+01  0.11973611412E+02  0.00000000000E+00 0.  1.
</event>
<event>
 7    1  0.7755875E-012  0.5930194E+02  0.7816164E-02  0.1266605E+00
        -11   -1    0    0    0    0  0.00000000000E+00  0.00000000000E+00  0.45593999997E+02  0.45594000000E+02  0.51100000000E-03 0. -1.
         11   -1    0    0    0    0 -0.00000000000E+00 -0.00000000000E+00 -0.45593999997E+02  0.45594000000E+02  0.51100000000E-03 0.  1.
    9900012    2    1    2    0    0 -0.12903146289E+02 -0.97300868248E+01 -0.27487363752E+02  0.59301938158E+02  0.49999989295E+02 0.  0.
         12    1    1    2    0    0  0.12903146289E+02  0.97300868248E+01  0.27487363752E+02  0.31886061842E+02  0.00000000000E+00 0. -1.
         11    1    3    3    0    0 -0.20687579431E+02 -0.82053358487E+01 -0.49381227162E+01  0.22796678164E+02  0.51100000000E-03 0. -1.
        -11    1    3    3    0    0 -0.64780997178E+01  0.17797730344E+01 -0.20682667497E+02  0.21746404371E+02  0.51100000000E-03 0.  1.
         12    1    3    3    0    0  0.14262532860E+02 -0.33045240105E+01 -0.18665735389E+01  0.14758855623E+02  0.00000000000E+00 0. -1.
</event>
<event>
 7    1  0.7755875E-012  0.5930196E+02  0.7816164E-02  0.1266605E+00
        -11   -1    0    0    0    0  0.00000000000E+00  0.00000000000E+00  0.45593999997E+02  0.45594000000E+02  0.51100000000E-03 0. -1.
         11   -1    0    0    0    0 -0.00000000000E+00 -0.00000000000E+00 -0.45593999997E+02  0.45594000000E+02  0.51100000000E-03 0.  1.
    9900012    2    1    2    0    0 -0.31847406560E+02  0.37277835034E+00 -0.15241854133E+01  0.59301962155E+02  0.50000033060E+02 0.  0.
         12    1    1    2    0    0  0.31847406560E+02 -0.37277835034E+00  0.15241854133E+01  0.31886037845E+02  0.00000000000E+00 0. -1.
         11    1    3    3    0    0  0.68574451474E+01 -0.71881658021E+01  0.13044502235E+02  0.16396747250E+02  0.51100000000E-03 0. -1.
        -11    1    3    3    0    0 -0.16468178780E+02  0.40541986979E+01 -0.10729041446E+02  0.20068626511E+02  0.51100000000E-03 0.  1.
         12    1    3    3    0    0 -0.22236672927E+02  0.35067454546E+01 -0.38396462031E+01  0.22836588395E+02  0.00000000000E+00 0. -1.
</event>
<event>
 7    1  0.7755875E-012  0.5930191E+02  0.7816164E-02  0.1266605E+00
        -11   -1    0    0    0    0  0.00000000000E+00  0.00000000000E+00  0.45593999997E+02  0.45594000000E+02  0.51100000000E-03 0.  1.
         11   -1    0    0    0    0 -0.00000000000E+00 -0.00000000000E+00 -0.45593999997E+02  0.45594000000E+02  0.51100000000E-03 0. -1.
    9900012    2    1    2    0    0 -0.19489342448E+02 -0.15824081283E+02  0.19659267186E+02  0.59301908929E+02  0.49999935988E+02 0.  0.
         12    1    1    2    0    0  0.19489342448E+02  0.15824081283E+02 -0.19659267186E+02  0.31886091071E+02  0.00000000000E+00 0. -1.
         11    1    3    3    0    0  0.25281517364E+01  0.46361197657E+01  0.22380962636E+02  0.22995491873E+02  0.51100000000E-03 0.  1.
        -11    1    3    3    0    0 -0.19862853559E+02 -0.13595995973E+02  0.61895538252E+01  0.24853463236E+02  0.51100000000E-03 0. -1.
        -12    1    3    3    0    0 -0.21546406247E+01 -0.68642050760E+01 -0.89112492757E+01  0.11452953820E+02  0.00000000000E+00 0.  1.
</event>
<event>
 7    1  0.7755875E-012  0.5930196E+02  0.7816164E-02  0.1266605E+00
        -11   -1    0    0    0    0  0.00000000000E+00  0.00000000000E+00  0.45593999997E+02  0.45594000000E+02  0.51100000000E-03 0. -1.
         11   -1    0    0    0    0 -0.00000000000E+00 -0.00000000000E+00 -0.45593999997E+02  0.45594000000E+02  0.51100000000E-03 0.  1.
    9900012    2    1    2    0    0 -0.16381939721E+02  0.10886649125E+02 -0.25096457971E+02  0.59301964171E+02  0.50000036737E+02 0.  0.
         12    1    1    2    0    0  0.16381939721E+02 -0.10886649125E+02  0.25096457971E+02  0.31886035829E+02  0.00000000000E+00 0. -1.
         11    1    3    3    0    0 -0.22317970592E+02  0.10047068098E+02  0.42114190687E+01  0.24834883522E+02  0.51100000000E-03 0. -1.
        -11    1    3    3    0    0 -0.45707873640E+01 -0.44356077497E+01 -0.96772213582E+01  0.11585133867E+02  0.51100000000E-03 0.  1.
         12    1    3    3    0    0  0.10506818235E+02  0.52751887767E+01 -0.19630655681E+02  0.22881946782E+02  0.00000000000E+00 0. -1.
</event>
<event>
 7    1  0.7755875E-012  0.5930191E+02  0.7816164E-02  0.1266605E+00
        -11   -1    0    0    0    0  0.00000000000E+00  0.00000000000E+00  0.45593999997E+02  0.45594000000E+02  0.51100000000E-03 0.  1.
         11   -1    0    0    0    0 -0.00000000000E+00 -0.00000000000E+00 -0.45593999997E+02  0.45594000000E+02  0.51100000000E-03 0. -1.
    9900012    2    1    2    0    0  0.27217215093E+02 -0.93087321443E+01  0.13758399834E+02  0.59301908086E+02  0.49999934451E+02 0.  0.
         12    1    1    2    0    0 -0.27217215093E+02  0.93087321443E+01 -0.13758399834E+02  0.31886091914E+02  0.00000000000E+00 0. -1.
         11    1    3    3    0    0  0.44813630944E+01 -0.22885945790E+02 -0.40677659581E+01  0.23672681514E+02  0.51100000000E-03 0. -1.
        -11    1    3    3    0    0  0.19378879090E+02  0.12168010678E+02  0.65817662102E+01  0.23810104690E+02  0.51100000000E-03 0.  1.
         12    1    3    3    0    0  0.33569729081E+01  0.14092029673E+01  0.11244399582E+02  0.11819121882E+02  0.00000000000E+00 0. -1.
</event>
<event>
 7    1  0.7755875E-012  0.5930191E+02  0.7816164E-02  0.1266605E+00
        -11   -1    0    0    0    0  0.00000000000E+00  0.00000000000E+00  0.45593999997E+02  0.45594000000E+02  0.51100000000E-03 0.  1.
         11   -1    0    0    0    0 -0.00000000000E+00 -0.00000000000E+00 -0.45593999997E+02  0.45594000000E+02  0.51100000000E-03 0. -1.
    9900012    2    1    2    0    0 -0.70801212601E+00 -0.20528042696E+01  0.31812060676E+02  0.59301913834E+02  0.49999944933E+02 0.  0.
         12    1    1    2    0    0  0.70801212601E+00  0.20528042696E+01 -0.31812060676E+02  0.31886086166E+02  0.00000000000E+00 0. -1.
         11    1    3    3    0    0 -0.34592314490E+01  0.19389041118E+02  0.32676326162E+01  0.19964433898E+02  0.51100000000E-03 0. -1.
        -11    1    3    3    0    0  0.70166999138E+01 -0.23439649618E+01  0.93972842527E+01  0.11959816094E+02  0.51100000000E-03 0.  1.
         12    1    3    3    0    0 -0.42654805907E+01 -0.19097880426E+02  0.19147143807E+02  0.27377663841E+02  0.00000000000E+00 0. -1.
</event>
<event>
 7    1  0.7755875E-012  0.5930189E+02  0.7816164E-02  0.1266605E+00
        -11   -1    0    0    0    0  0.00000000000E+00  0.00000000000E+00  0.45593999997E+02  0.45594000000E+02  0.51100000000E-03 0.  1.
         11   -1    0    0    0    0 -0.00000000000E+00 -0.00000000000E+00 -0.45593999997E+02  0.45594000000E+02  0.51100000000E-03 0. -1.
    9900012    2    1    2    0    0  0.42254612750E+01  0.14950584326E+02  0.27845097436E+02  0.59301891020E+02  0.49999903327E+02 0.  0.
         12    1    1    2    0    0 -0.42254612750E+01 -0.14950584326E+02 -0.27845097436E+02  0.31886108980E+02  0.00000000000E+00 0. -1.
         11    1    3    3    0    0  0.63397457154E+01  0.24189111605E+02  0.10699336010E+01  0.25028988276E+02  0.51100000000E-03 0. -1.
        -11    1    3    3    0    0 -0.24588126517E+01 -0.14015749745E+02  0.25681053640E+02  0.29359896405E+02  0.51100000000E-03 0.  1.
        -12    1    3    3    0    0  0.34452821129E+00  0.47772224657E+01  0.10941101945E+01  0.49130063396E+01  0.00000000000E+00 0.  1.
</event>
<event>
 7    1  0.7755875E-012  0.5930192E+02  0.7816164E-02  0.1266605E+00
        -11   -1    0    0    0    0  0.00000000000E+00  0.00000000000E+00  0.45593999997E+02  0.45594000000E+02  0.51100000000E-03 0.  1.
         11   -1    0    0    0    0 -0.00000000000E+00 -0.00000000000E+00 -0.45593999997E+02  0.45594000000E+02  0.51100000000E-03 0. -1.
    9900012    2    1    2    0    0  0.29882477555E+01  0.98669396875E+01  0.30173429928E+02  0.59301921579E+02  0.49999959059E+02 0.  0.
         12    1    1    2    0    0 -0.29882477555E+01 -0.98669396875E+01 -0.30173429928E+02  0.31886078421E+02  0.00000000000E+00 0. -1.
         11    1    3    3    0    0  0.18991615437E+02  0.68930476920E+01  0.34611152802E+02  0.40076520082E+02  0.51100000000E-03 0.  1.
        -11    1    3    3    0    0 -0.12034857448E+02  0.46404740385E+01  0.19733640464E+00  0.12900028489E+02  0.51100000000E-03 0. -1.
         12    1    3    3    0    0 -0.39685102329E+01 -0.16665820430E+01 -0.46350592781E+01  0.63253730077E+01  0.00000000000E+00 0. -1.
</event>
<event>
 7    1  0.8867346E-012  0.5930195E+02  0.7816164E-02  0.1266605E+00
        -11   -1    0    0    0    0  0.00000000000E+00  0.00000000000E+00  0.45593999997E+02  0.45594000000E+02  0.51100000000E-03 0. -1.
         11   -1    0    0    0    0 -0.00000000000E+00 -0.00000000000E+00 -0.45593999997E+02  0.45594000000E+02  0.51100000000E-03 0.  1.
    9900012    2    1    2    0    0  0.11608173028E+02 -0.10336672233E+02 -0.27841047874E+02  0.59301946299E+02  0.50000004143E+02 0.  0.
         12    1    1    2    0    0 -0.11608173028E+02  0.10336672233E+02  0.27841047874E+02  0.31886053701E+02  0.00000000000E+00 0. -1.
         11    1    3    3    0    0  0.20933472458E+02  0.54578785545E+01 -0.11592266946E+02  0.24543417869E+02  0.51100000000E-03 0. -1.
        -11    1    3    3    0    0  0.84850337372E-02 -0.19493777259E+02 -0.15089763543E+02  0.24651742086E+02  0.51100000000E-03 0.  1.
         12    1    3    3    0    0 -0.93337844643E+01  0.36992264722E+01 -0.11590173850E+01  0.10106786345E+02  0.00000000000E+00 0. -1.
</event>
<event>
 7    1  0.7755875E-012  0.5930195E+02  0.7816164E-02  0.1266605E+00
        -11   -1    0    0    0    0  0.00000000000E+00  0.00000000000E+00  0.45593999997E+02  0.45594000000E+02  0.51100000000E-03 0.  1.
         11   -1    0    0    0    0 -0.00000000000E+00 -0.00000000000E+00 -0.45593999997E+02  0.45594000000E+02  0.51100000000E-03 0. -1.
    9900012    2    1    2    0    0  0.26590087750E+02  0.17113127549E+02  0.41022623465E+01  0.59301945722E+02  0.50000003089E+02 0.  0.
         12    1    1    2    0    0 -0.26590087750E+02 -0.17113127549E+02 -0.41022623465E+01  0.31886054278E+02  0.00000000000E+00 0. -1.
         11    1    3    3    0    0  0.25733611036E+02  0.25108061364E+02  0.57308913246E+01  0.36407095435E+02  0.51100000000E-03 0.  1.
        -11    1    3    3    0    0 -0.50891858175E+01 -0.23299119795E+00 -0.92082159798E+01  0.10523561136E+02  0.51100000000E-03 0. -1.
        -12    1    3    3    0    0  0.59456625320E+01 -0.77619426169E+01  0.75795870018E+01  0.12371289151E+02  0.00000000000E+00 0.  1.
</event>
<event>
 7    1  0.7755875E-012  0.5930196E+02  0.7816164E-02  0.1266605E+00
        -11   -1    0    0    0    0  0.00000000000E+00  0.00000000000E+00  0.45593999997E+02  0.45594000000E+02  0.51100000000E-03 0.  1.
         11   -1    0    0    0    0 -0.00000000000E+00 -0.00000000000E+00 -0.45593999997E+02  0.45594000000E+02  0.51100000000E-03 0. -1.
    9900012    2    1    2    0    0 -0.24575464190E+02 -0.63883153332E+01 -0.19286141246E+02  0.59301964544E+02  0.50000037417E+02 0.  0.
         12    1    1    2    0    0  0.24575464190E+02  0.63883153332E+01  0.19286141246E+02  0.31886035456E+02  0.00000000000E+00 0. -1.
         11    1    3    3    0    0  0.31075587970E+01 -0.87538170877E+01  0.92846402489E+01  0.13133574536E+02  0.51100000000E-03 0.  1.
        -11    1    3    3    0    0 -0.25830453115E+02 -0.62989196520E+01 -0.16856294131E+02  0.31480523327E+02  0.51100000000E-03 0. -1.
         12    1    3    3    0    0 -0.18525698719E+01  0.86644214064E+01 -0.11714487364E+02  0.14687866681E+02  0.00000000000E+00 0. -1.
</event>
<event>
 7    1  0.7755875E-012  0.5930194E+02  0.7816164E-02  0.1266605E+00
        -11   -1    0    0    0    0  0.00000000000E+00  0.00000000000E+00  0.45593999997E+02  0.45594000000E+02  0.51100000000E-03 0.  1.
         11   -1    0    0    0    0 -0.00000000000E+00 -0.00000000000E+00 -0.45593999997E+02  0.45594000000E+02  0.51100000000E-03 0. -1.
    9900012    2    1    2    0    0 -0.25042491992E+02  0.14734372801E+02  0.13133644750E+02  0.59301940798E+02  0.49999994109E+02 0.  0.
         12    1    1    2    0    0  0.25042491992E+02 -0.14734372801E+02 -0.13133644750E+02  0.31886059202E+02  0.00000000000E+00 0. -1.
         11    1    3    3    0    0  0.92609906413E+01 -0.19064850397E-01  0.55479988276E+01  0.10795675170E+02  0.51100000000E-03 0. -1.
        -11    1    3    3    0    0 -0.20309194809E+02  0.12279473417E+02 -0.10121945241E+02  0.25801213865E+02  0.51100000000E-03 0.  1.
        -12    1    3    3    0    0 -0.13994287825E+02  0.24739642346E+01  0.17707591163E+02  0.22705051763E+02  0.00000000000E+00 0.  1.
</event>
<event>
 7    1  0.7755875E-012  0.5930200E+02  0.7816164E-02  0.1266605E+00
        -11   -1    0    0    0    0  0.00000000000E+00  0.00000000000E+00  0.45593999997E+02  0.45594000000E+02  0.51100000000E-03 0.  1.
         11   -1    0    0    0    0 -0.00000000000E+00 -0.00000000000E+00 -0.45593999997E+02  0.45594000000E+02  0.51100000000E-03 0. -1.
    9900012    2    1    2    0    0  0.21618327158E+02  0.10505373523E+02  0.20952382539E+02  0.59301995609E+02  0.50000094072E+02 0.  0.
         12    1    1    2    0    0 -0.21618327158E+02 -0.10505373523E+02 -0.20952382539E+02  0.31886004391E+02  0.00000000000E+00 0. -1.
         11    1    3    3    0    0  0.99858054101E+01  0.15916615716E+02  0.65232736162E+01  0.19889898553E+02  0.51100000000E-03 0. -1.
        -11    1    3    3    0    0 -0.60776441576E+01 -0.52080339257E+01 -0.76739469996E+01  0.11088319922E+02  0.51100000000E-03 0.  1.
        -12    1    3    3    0    0  0.17710165905E+02 -0.20320826721E+00  0.22103055923E+02  0.28323777134E+02  0.00000000000E+00 0.  1.
</event>
<event>
 7    1  0.7755875E-012  0.5930196E+02  0.7816164E-02  0.1266605E+00
        -11   -1    0    0    0    0  0.00000000000E+00  0.00000000000E+00  0.45593999997E+02  0.45594000000E+02  0.51100000000E-03 0.  1.
         11   -1    0    0    0    0 -0.00000000000E+00 -0.00000000000E+00 -0.45593999997E+02  0.45594000000E+02  0.51100000000E-03 0. -1.
    9900012    2    1    2    0    0  0.31141424294E+02 -0.68475190491E+01  0.20727057944E+00  0.59301956262E+02  0.50000022313E+02 0.  0.
         12    1    1    2    0    0 -0.31141424294E+02  0.68475190491E+01 -0.20727057944E+00  0.31886043738E+02  0.00000000000E+00 0. -1.
         11    1    3    3    0    0  0.30136715937E+01  0.14705141643E+02  0.16201172648E+01  0.15097953087E+02  0.51100000000E-03 0. -1.
        -11    1    3    3    0    0  0.41003172301E+01 -0.19235556190E+02 -0.34935617112E+01  0.19975590030E+02  0.51100000000E-03 0.  1.
        -12    1    3    3    0    0  0.24027435470E+02 -0.23171045014E+01  0.20807150259E+01  0.24228413145E+02  0.00000000000E+00 0.  1.
</event>
<event>
 7    1  0.7755875E-012  0.5930192E+02  0.7816164E-02  0.1266605E+00
        -11   -1    0    0    0    0  0.00000000000E+00  0.00000000000E+00  0.45593999997E+02  0.45594000000E+02  0.51100000000E-03 0.  1.
         11   -1    0    0    0    0 -0.00000000000E+00 -0.00000000000E+00 -0.45593999997E+02  0.45594000000E+02  0.51100000000E-03 0. -1.
    9900012    2    1    2    0    0 -0.37538130523E+00  0.25281671311E+02  0.19427257584E+02  0.59301919140E+02  0.49999954610E+02 0.  0.
         12    1    1    2    0    0  0.37538130523E+00 -0.25281671311E+02 -0.19427257584E+02  0.31886080860E+02  0.00000000000E+00 0. -1.
         11    1    3    3    0    0 -0.19179361958E+02  0.11763936476E+02  0.10636651356E+02  0.24887275441E+02  0.51100000000E-03 0. -1.
        -11    1    3    3    0    0  0.14838701517E+02  0.56576817995E+01 -0.61853478083E+01  0.17042739035E+02  0.51100000000E-03 0.  1.
        -12    1    3    3    0    0  0.39652791358E+01  0.78600530357E+01  0.14975954036E+02  0.17371904664E+02  0.00000000000E+00 0.  1.
</event>
<event>
 7    1  0.7755875E-012  0.5930199E+02  0.7816164E-02  0.1266605E+00
        -11   -1    0    0    0    0  0.00000000000E+00  0.00000000000E+00  0.45593999997E+02  0.45594000000E+02  0.51100000000E-03 0. -1.
         11   -1    0    0    0    0 -0.00000000000E+00 -0.00000000000E+00 -0.45593999997E+02  0.45594000000E+02  0.51100000000E-03 0.  1.
    9900012    2    1    2    0    0 -0.99401804768E+01  0.29613339665E+02 -0.64000411904E+01  0.59301990509E+02  0.50000084771E+02 0.  0.
         12    1    1    2    0    0  0.99401804768E+01 -0.29613339665E+02  0.64000411904E+01  0.31886009491E+02  0.00000000000E+00 0. -1.
         11    1    3    3    0    0 -0.12345940816E+02  0.34107094940E+01 -0.22186079432E+02  0.25617910038E+02  0.51100000000E-03 0. -1.
        -11    1    3    3    0    0  0.71512170369E+01  0.20293302106E+02  0.83898617057E+01  0.23094323873E+02  0.51100000000E-03 0.  1.
         12    1    3    3    0    0 -0.47454566973E+01  0.59093280651E+01  0.73961765359E+01  0.10589756598E+02  0.00000000000E+00 0. -1.
</event>
<event>
 7    1  0.7755875E-012  0.5930194E+02  0.7816164E-02  0.1266605E+00
        -11   -1    0    0    0    0  0.00000000000E+00  0.00000000000E+00  0.45593999997E+02  0.45594000000E+02  0.51100000000E-03 0.  1.
         11   -1    0    0    0    0 -0.00000000000E+00 -0.00000000000E+00 -0.45593999997E+02  0.45594000000E+02  0.51100000000E-03 0. -1.
    9900012    2    1    2    0    0 -0.10262884275E+02  0.23007010038E+02  0.19546653154E+02  0.59301937935E+02  0.49999988888E+02 0.  0.
         12    1    1    2    0    0  0.10262884275E+02 -0.23007010038E+02 -0.19546653154E+02  0.31886062065E+02  0.00000000000E+00 0. -1.
         11    1    3    3    0    0  0.11254018532E+02  0.80515999733E+01  0.13696147533E+02  0.19469608439E+02  0.51100000000E-03 0. -1.
        -11    1    3    3    0    0 -0.72896422314E+01  0.20353574522E+01 -0.11615080749E+02  0.13863320846E+02  0.51100000000E-03 0.  1.
        -12    1    3    3    0    0 -0.14227260576E+02  0.12920052612E+02  0.17465586369E+02  0.25969008649E+02  0.00000000000E+00 0.  1.
</event>
<event>
 7    1  0.7755875E-012  0.5930193E+02  0.7816164E-02  0.1266605E+00
        -11   -1    0    0    0    0  0.00000000000E+00  0.00000000000E+00  0.45593999997E+02  0.45594000000E+02  0.51100000000E-03 0.  1.
         11   -1    0    0    0    0 -0.00000000000E+00 -0.00000000000E+00 -0.45593999997E+02  0.45594000000E+02  0.51100000000E-03 0. -1.
    9900012    2    1    2    0    0  0.24999155101E+01 -0.20263272801E+02  0.24492281922E+02  0.59301926615E+02  0.49999968243E+02 0.  0.
         12    1    1    2    0    0 -0.24999155101E+01  0.20263272801E+02 -0.24492281922E+02  0.31886073385E+02  0.00000000000E+00 0. -1.
         11    1    3    3    0    0  0.73939892786E+01 -0.79010405810E-01  0.23360165954E+02  0.24502544230E+02  0.51100000000E-03 0. -1.
        -11    1    3    3    0    0  0.46782248132E+00 -0.15837666907E+02 -0.12058978223E+02  0.19911542054E+02  0.51100000000E-03 0.  1.
         12    1    3    3    0    0 -0.53618962498E+01 -0.43465954887E+01  0.13191094192E+02  0.14887840331E+02  0.00000000000E+00 0. -1.
</event>
<event>
 7    1  0.7755875E-012  0.5930194E+02  0.7816164E-02  0.1266605E+00
        -11   -1    0    0    0    0  0.00000000000E+00  0.00000000000E+00  0.45593999997E+02  0.45594000000E+02  0.51100000000E-03 0.  1.
         11   -1    0    0    0    0 -0.00000000000E+00 -0.00000000000E+00 -0.45593999997E+02  0.45594000000E+02  0.51100000000E-03 0. -1.
    9900012    2    1    2    0    0 -0.22410689577E+02 -0.20559520088E+02  0.95806082939E+01  0.59301938330E+02  0.49999989608E+02 0.  0.
         12    1    1    2    0    0  0.22410689577E+02  0.20559520088E+02 -0.95806082939E+01  0.31886061670E+02  0.00000000000E+00 0. -1.
         11    1    3    3    0    0  0.12124412575E+02  0.66125585538E+01  0.48320564369E+01  0.14631338988E+02  0.51100000000E-03 0. -1.
        -11    1    3    3    0    0 -0.27489481296E+02 -0.24258929224E+02  0.26274079862E+01  0.36756910942E+02  0.51100000000E-03 0.  1.
         12    1    3    3    0    0 -0.70456208553E+01 -0.29131494185E+01  0.21211438708E+01  0.79136884000E+01  0.00000000000E+00 0. -1.
</event>
<event>
 7    1  0.7755875E-012  0.5930194E+02  0.7816164E-02  0.1266605E+00
        -11   -1    0    0    0    0  0.00000000000E+00  0.00000000000E+00  0.45593999997E+02  0.45594000000E+02  0.51100000000E-03 0.  1.
         11   -1    0    0    0    0 -0.00000000000E+00 -0.00000000000E+00 -0.45593999997E+02  0.45594000000E+02  0.51100000000E-03 0. -1.
    9900012    2    1    2    0    0 -0.24399738302E+01  0.19377376999E+02  0.25204850163E+02  0.59301942179E+02  0.49999996628E+02 0.  0.
         12    1    1    2    0    0  0.24399738302E+01 -0.19377376999E+02 -0.25204850163E+02  0.31886057821E+02  0.00000000000E+00 0. -1.
         11    1    3    3    0    0  0.63705785126E+01 -0.10615771704E+02 -0.28693673494E+01  0.12708743003E+02  0.51100000000E-03 0. -1.
        -11    1    3    3    0    0 -0.56834669325E+01  0.79651003399E+01  0.21130214340E+02  0.23285845016E+02  0.51100000000E-03 0.  1.
        -12    1    3    3    0    0 -0.31270854103E+01  0.22028048363E+02  0.69440031722E+01  0.23307354160E+02  0.00000000000E+00 0.  1.
</event>
<event>
 7    1  0.7755875E-012  0.5930195E+02  0.7816164E-02  0.1266605E+00
        -11   -1    0    0    0    0  0.00000000000E+00  0.00000000000E+00  0.45593999997E+02  0.45594000000E+02  0.51100000000E-03 0. -1.
         11   -1    0    0    0    0 -0.00000000000E+00 -0.00000000000E+00 -0.45593999997E+02  0.45594000000E+02  0.51100000000E-03 0.  1.
    9900012    2    1    2    0    0 -0.19319890893E+01 -0.13162380869E+02 -0.28978254442E+02  0.59301951601E+02  0.50000013812E+02 0.  0.
         12    1    1    2    0    0  0.19319890893E+01  0.13162380869E+02  0.28978254442E+02  0.31886048399E+02  0.00000000000E+00 0. -1.
         11    1    3    3    0    0 -0.10940671049E+02 -0.95251015836E+01  0.68141412538E+01  0.16026801442E+02  0.51100000000E-03 0. -1.
        -11    1    3    3    0    0  0.12266067438E+02 -0.11194527111E+01 -0.36990548577E+02  0.38987309077E+02  0.51100000000E-03 0.  1.
        -12    1    3    3    0    0 -0.32573854785E+01 -0.25178265746E+01  0.11981528817E+01  0.42878410819E+01  0.00000000000E+00 0.  1.
</event>
<event>
 7    1  0.7755875E-012  0.5930194E+02  0.7816164E-02  0.1266605E+00
        -11   -1    0    0    0    0  0.00000000000E+00  0.00000000000E+00  0.45593999997E+02  0.45594000000E+02  0.51100000000E-03 0.  1.
         11   -1    0    0    0    0 -0.00000000000E+00 -0.00000000000E+00 -0.45593999997E+02  0.45594000000E+02  0.51100000000E-03 0. -1.
    9900012    2    1    2    0    0 -0.10805057515E+02 -0.11126502723E+01  0.29978885668E+02  0.59301939654E+02  0.49999992023E+02 0.  0.
         12    1    1    2    0    0  0.10805057515E+02  0.11126502723E+01 -0.29978885668E+02  0.31886060346E+02  0.00000000000E+00 0. -1.
         11    1    3    3    0    0 -0.31593666079E+01 -0.25594940031E+01 -0.36004243258E+01  0.54309909319E+01  0.51100000000E-03 0. -1.
        -11    1    3    3    0    0 -0.10442806050E+02 -0.17720886863E+02  0.25801692407E+02  0.32997111400E+02  0.51100000000E-03 0.  1.
        -12    1    3    3    0    0  0.27971151433E+01  0.19167730593E+02  0.77776175861E+01  0.20873837322E+02  0.00000000000E+00 0.  1.
</event>
<event>
 7    1  0.7755875E-012  0.5930193E+02  0.7816164E-02  0.1266605E+00
        -11   -1    0    0    0    0  0.00000000000E+00  0.00000000000E+00  0.45593999997E+02  0.45594000000E+02  0.51100000000E-03 0.  1.
         11   -1    0    0    0    0 -0.00000000000E+00 -0.00000000000E+00 -0.45593999997E+02  0.45594000000E+02  0.51100000000E-03 0. -1.
    9900012    2    1    2    0    0  0.11834999907E+02  0.17996896821E+02  0.23510981626E+02  0.59301925061E+02  0.49999965409E+02 0.  0.
         12    1    1    2    0    0 -0.11834999907E+02 -0.17996896821E+02 -0.23510981626E+02  0.31886074939E+02  0.00000000000E+00 0. -1.
         11    1    3    3    0    0 -0.14228750273E+02  0.12072693882E+02  0.35843064812E+01  0.19001434817E+02  0.51100000000E-03 0. -1.
        -11    1    3    3    0    0  0.11167640636E+02  0.90428723654E+01  0.20541777827E+02  0.25068992292E+02  0.51100000000E-03 0.  1.
         12    1    3    3    0    0  0.14896109544E+02 -0.31186694257E+01 -0.61510268211E+00  0.15231497951E+02  0.00000000000E+00 0. -1.
</event>
<event>
 7    1  0.7755875E-012  0.5930195E+02  0.7816164E-02  0.1266605E+00
        -11   -1    0    0    0    0  0.00000000000E+00  0.00000000000E+00  0.45593999997E+02  0.45594000000E+02  0.51100000000E-03 0.  1.
         11   -1    0    0    0    0 -0.00000000000E+00 -0.00000000000E+00 -0.45593999997E+02  0.45594000000E+02  0.51100000000E-03 0. -1.
    9900012    2    1    2    0    0 -0.16960435995E+02  0.26655246120E+02  0.43083447765E+01  0.59301947099E+02  0.50000005601E+02 0.  0.
         12    1    1    2    0    0  0.16960435995E+02 -0.26655246120E+02 -0.43083447765E+01  0.31886052901E+02  0.00000000000E+00 0. -1.
         11    1    3    3    0    0  0.80316952130E+01 -0.52991056948E+01  0.55813021103E+01  0.11123829496E+02  0.51100000000E-03 0. -1.
        -11    1    3    3    0    0 -0.13702147640E+02  0.32632325209E+02  0.41501896899E+01  0.35634836512E+02  0.51100000000E-03 0.  1.
        -12    1    3    3    0    0 -0.11289983568E+02 -0.67797339352E+00 -0.54231470236E+01  0.12543281091E+02  0.00000000000E+00 0.  1.
</event>
<event>
 7    1  0.7755875E-012  0.5930193E+02  0.7816164E-02  0.1266605E+00
        -11   -1    0    0    0    0  0.00000000000E+00  0.00000000000E+00  0.45593999997E+02  0.45594000000E+02  0.51100000000E-03 0.  1.
         11   -1    0    0    0    0 -0.00000000000E+00 -0.00000000000E+00 -0.45593999997E+02  0.45594000000E+02  0.51100000000E-03 0. -1.
    9900012    2    1    2    0    0 -0.20473892193E+02 -0.24368905020E+02  0.19228743289E+01  0.59301933465E+02  0.49999980736E+02 0.  0.
         12    1    1    2    0    0  0.20473892193E+02  0.24368905020E+02 -0.19228743289E+01  0.31886066535E+02  0.00000000000E+00 0. -1.
         11    1    3    3    0    0  0.81293626813E+01  0.64567891318E+01 -0.62597356642E+01  0.12122745330E+02  0.51100000000E-03 0. -1.
        -11    1    3    3    0    0 -0.18520084155E+02 -0.82177696341E+01  0.95242025323E+01  0.22388293571E+02  0.51100000000E-03 0.  1.
        -12    1    3    3    0    0 -0.10083170719E+02 -0.22607924518E+02 -0.13415925392E+01  0.24790894564E+02  0.00000000000E+00 0.  1.
</event>
<event>
 7    1  0.7755875E-012  0.5930197E+02  0.7816164E-02  0.1266605E+00
        -11   -1    0    0    0    0  0.00000000000E+00  0.00000000000E+00  0.45593999997E+02  0.45594000000E+02  0.51100000000E-03 0.  1.
         11   -1    0    0    0    0 -0.00000000000E+00 -0.00000000000E+00 -0.45593999997E+02  0.45594000000E+02  0.51100000000E-03 0. -1.
    9900012    2    1    2    0    0 -0.18808691701E+02  0.23890309541E+02  0.96023663895E+01  0.59301965224E+02  0.50000038656E+02 0.  0.
         12    1    1    2    0    0  0.18808691701E+02 -0.23890309541E+02 -0.96023663895E+01  0.31886034776E+02  0.00000000000E+00 0. -1.
         11    1    3    3    0    0  0.10780731735E+02  0.13636197349E+02  0.42509944558E+00  0.17388236388E+02  0.51100000000E-03 0. -1.
        -11    1    3    3    0    0 -0.13879352801E+02 -0.78461732863E+01  0.81949499388E+01  0.17926407174E+02  0.51100000000E-03 0.  1.
        -12    1    3    3    0    0 -0.15710070636E+02  0.18100285478E+02  0.98231700513E+00  0.23987321661E+02  0.00000000000E+00 0.  1.
</event>
<event>
 7    1  0.7755875E-012  0.5930194E+02  0.7816164E-02  0.1266605E+00
        -11   -1    0    0    0    0  0.00000000000E+00  0.00000000000E+00  0.45593999997E+02  0.45594000000E+02  0.51100000000E-03 0. -1.
         11   -1    0    0    0    0 -0.00000000000E+00 -0.00000000000E+00 -0.45593999997E+02  0.45594000000E+02  0.51100000000E-03 0.  1.
    9900012    2    1    2    0    0  0.64669931746E+01  0.25852259060E+02 -0.17508840212E+02  0.59301940588E+02  0.49999993727E+02 0.  0.
         12    1    1    2    0    0 -0.64669931746E+01 -0.25852259060E+02  0.17508840212E+02  0.31886059412E+02  0.00000000000E+00 0. -1.
         11    1    3    3    0    0  0.21014291726E+02  0.30323338214E+02 -0.15518766630E+02  0.40024210362E+02  0.51100000000E-03 0. -1.
        -11    1    3    3    0    0 -0.64569052858E+01  0.24642080371E+01  0.29718416620E+01  0.75230173631E+01  0.51100000000E-03 0.  1.
         12    1    3    3    0    0 -0.80903932652E+01 -0.69352871904E+01 -0.49619152438E+01  0.11754712863E+02  0.00000000000E+00 0. -1.
</event>
<event>
 7    1  0.7755875E-012  0.5930194E+02  0.7816164E-02  0.1266605E+00
        -11   -1    0    0    0    0  0.00000000000E+00  0.00000000000E+00  0.45593999997E+02  0.45594000000E+02  0.51100000000E-03 0.  1.
         11   -1    0    0    0    0 -0.00000000000E+00 -0.00000000000E+00 -0.45593999997E+02  0.45594000000E+02  0.51100000000E-03 0. -1.
    9900012    2    1    2    0    0  0.12845322530E+02 -0.25735718368E+02  0.13761946567E+02  0.59301942167E+02  0.49999996607E+02 0.  0.
         12    1    1    2    0    0 -0.12845322530E+02  0.25735718368E+02 -0.13761946567E+02  0.31886057833E+02  0.00000000000E+00 0. -1.
         11    1    3    3    0    0 -0.35083891930E+00 -0.37933481015E+01 -0.16975398921E+02  0.17397607495E+02  0.51100000000E-03 0. -1.
        -11    1    3    3    0    0  0.52106701094E+00 -0.12051830566E+02  0.16428483271E+02  0.20381687704E+02  0.51100000000E-03 0.  1.
         12    1    3    3    0    0  0.12675094438E+02 -0.98905396999E+01  0.14308862217E+02  0.21522646968E+02  0.00000000000E+00 0. -1.
</event>
<event>
 7    1  0.7755875E-012  0.5930232E+02  0.7816164E-02  0.1266603E+00
        -11   -1    0    0    0    0  0.00000000000E+00  0.00000000000E+00  0.45593999997E+02  0.45594000000E+02  0.51100000000E-03 0.  1.
         11   -1    0    0    0    0 -0.00000000000E+00 -0.00000000000E+00 -0.45593999997E+02  0.45594000000E+02  0.51100000000E-03 0. -1.
    9900012    2    1    2    0    0 -0.28777089764E+01 -0.25690340159E+02  0.18666058995E+02  0.59302320693E+02  0.50000686943E+02 0.  0.
         12    1    1    2    0    0  0.28777089764E+01  0.25690340159E+02 -0.18666058995E+02  0.31885679307E+02  0.00000000000E+00 0. -1.
         11    1    3    3    0    0 -0.24436202522E+02 -0.66087821358E+01  0.36882576212E+01  0.25581384629E+02  0.51100000000E-03 0. -1.
        -11    1    3    3    0    0  0.77064269323E+00 -0.49103512816E+01  0.15696951606E+01  0.52124258294E+01  0.51100000000E-03 0.  1.
         12    1    3    3    0    0  0.20787850852E+02 -0.14171206742E+02  0.13408106213E+02  0.28508510235E+02  0.00000000000E+00 0. -1.
</event>
<event>
 7    1  0.7755875E-012  0.5930193E+02  0.7816164E-02  0.1266605E+00
        -11   -1    0    0    0    0  0.00000000000E+00  0.00000000000E+00  0.45593999997E+02  0.45594000000E+02  0.51100000000E-03 0.  1.
         11   -1    0    0    0    0 -0.00000000000E+00 -0.00000000000E+00 -0.45593999997E+02  0.45594000000E+02  0.51100000000E-03 0. -1.
    9900012    2    1    2    0    0  0.27057325444E+02 -0.10074001692E+02  0.13532812924E+02  0.59301931006E+02  0.49999976251E+02 0.  0.
         12    1    1    2    0    0 -0.27057325444E+02  0.10074001692E+02 -0.13532812924E+02  0.31886068994E+02  0.00000000000E+00 0. -1.
         11    1    3    3    0    0  0.23495554135E+02 -0.18561809047E+02 -0.12612325690E-01  0.29942978785E+02  0.51100000000E-03 0. -1.
        -11    1    3    3    0    0  0.31867019465E+01  0.52037159034E+01  0.20644854449E+02  0.21527743588E+02  0.51100000000E-03 0.  1.
        -12    1    3    3    0    0  0.37506936253E+00  0.32840914513E+01 -0.70994291994E+01  0.78312086324E+01  0.00000000000E+00 0.  1.
</event>
<event>
 7    1  0.7755875E-012  0.5930195E+02  0.7816164E-02  0.1266605E+00
        -11   -1    0    0    0    0  0.00000000000E+00  0.00000000000E+00  0.45593999997E+02  0.45594000000E+02  0.51100000000E-03 0. -1.
         11   -1    0    0    0    0 -0.00000000000E+00 -0.00000000000E+00 -0.45593999997E+02  0.45594000000E+02  0.51100000000E-03 0.  1.
    9900012    2    1    2    0    0  0.25516777904E+02  0.18868755045E+02  0.30958110750E+01  0.59301954184E+02  0.50000018523E+02 0.  0.
         12    1    1    2    0    0 -0.25516777904E+02 -0.18868755045E+02 -0.30958110750E+01  0.31886045816E+02  0.00000000000E+00 0. -1.
         11    1    3    3    0    0 -0.68383787943E+00 -0.50235273678E+01  0.18028915377E+02  0.18728194023E+02  0.51100000000E-03 0. -1.
        -11    1    3    3    0    0  0.17558767328E+02  0.18098351183E+02 -0.40891108618E+01  0.25545673871E+02  0.51100000000E-03 0.  1.
        -12    1    3    3    0    0  0.86418484547E+01  0.57939312301E+01 -0.10843993440E+02  0.15028086290E+02  0.00000000000E+00 0.  1.
</event>
<event>
 7    1  0.7755875E-012  0.5930194E+02  0.7816164E-02  0.1266605E+00
        -11   -1    0    0    0    0  0.00000000000E+00  0.00000000000E+00  0.45593999997E+02  0.45594000000E+02  0.51100000000E-03 0.  1.
         11   -1    0    0    0    0 -0.00000000000E+00 -0.00000000000E+00 -0.45593999997E+02  0.45594000000E+02  0.51100000000E-03 0. -1.
    9900012    2    1    2    0    0  0.31614084914E+02  0.26716006178E+01  0.31832480922E+01  0.59301939045E+02  0.49999990913E+02 0.  0.
         12    1    1    2    0    0 -0.31614084914E+02 -0.26716006178E+01 -0.31832480922E+01  0.31886060955E+02  0.00000000000E+00 0. -1.
         11    1    3    3    0    0  0.36660761496E+02 -0.65368775610E+01  0.38070890769E+01  0.37433088694E+02  0.51100000000E-03 0. -1.
        -11    1    3    3    0    0  0.35952016382E+01  0.49373229769E+01 -0.77599172109E+01  0.98751682709E+01  0.51100000000E-03 0.  1.
         12    1    3    3    0    0 -0.86418782202E+01  0.42711552019E+01  0.71360762262E+01  0.11993682080E+02  0.00000000000E+00 0. -1.
</event>
<event>
 7    1  0.7755875E-012  0.5930195E+02  0.7816164E-02  0.1266605E+00
        -11   -1    0    0    0    0  0.00000000000E+00  0.00000000000E+00  0.45593999997E+02  0.45594000000E+02  0.51100000000E-03 0. -1.
         11   -1    0    0    0    0 -0.00000000000E+00 -0.00000000000E+00 -0.45593999997E+02  0.45594000000E+02  0.51100000000E-03 0.  1.
    9900012    2    1    2    0    0 -0.13978863187E+02  0.44757750578E+01 -0.28306869377E+02  0.59301952389E+02  0.50000015248E+02 0.  0.
         12    1    1    2    0    0  0.13978863187E+02 -0.44757750578E+01  0.28306869377E+02  0.31886047611E+02  0.00000000000E+00 0. -1.
         11    1    3    3    0    0  0.62491485416E+01 -0.84017311614E+01 -0.48261751176E+01  0.11529653530E+02  0.51100000000E-03 0. -1.
        -11    1    3    3    0    0 -0.20767490364E+02  0.14529293096E+02 -0.31007140254E+02  0.40047868368E+02  0.51100000000E-03 0.  1.
        -12    1    3    3    0    0  0.53947863559E+00 -0.16517868768E+01  0.75264459944E+01  0.77244304898E+01  0.00000000000E+00 0.  1.
</event>
<event>
 7    1  0.7755875E-012  0.5930186E+02  0.7816164E-02  0.1266605E+00
        -11   -1    0    0    0    0  0.00000000000E+00  0.00000000000E+00  0.45593999997E+02  0.45594000000E+02  0.51100000000E-03 0. -1.
         11   -1    0    0    0    0 -0.00000000000E+00 -0.00000000000E+00 -0.45593999997E+02  0.45594000000E+02  0.51100000000E-03 0.  1.
    9900012    2    1    2    0    0 -0.34096119964E+01 -0.30886498085E+02 -0.71501332100E+01  0.59301864724E+02  0.49999855368E+02 0.  0.
         12    1    1    2    0    0  0.34096119964E+01  0.30886498085E+02  0.71501332100E+01  0.31886135276E+02  0.00000000000E+00 0. -1.
         11    1    3    3    0    0  0.62837985091E+01  0.64549150708E+01  0.11411607431E+02  0.14538804514E+02  0.51100000000E-03 0. -1.
        -11    1    3    3    0    0 -0.53907440451E+01 -0.35378157844E+02 -0.14825532715E+02  0.38735908333E+02  0.51100000000E-03 0.  1.
         12    1    3    3    0    0 -0.43026664604E+01 -0.19632553116E+01 -0.37362079258E+01  0.60271518773E+01  0.00000000000E+00 0. -1.
</event>
<event>
 7    1  0.7755875E-012  0.5930194E+02  0.7816164E-02  0.1266605E+00
        -11   -1    0    0    0    0  0.00000000000E+00  0.00000000000E+00  0.45593999997E+02  0.45594000000E+02  0.51100000000E-03 0.  1.
         11   -1    0    0    0    0 -0.00000000000E+00 -0.00000000000E+00 -0.45593999997E+02  0.45594000000E+02  0.51100000000E-03 0. -1.
    9900012    2    1    2    0    0  0.24539777494E+02  0.15959527603E+02  0.12641737754E+02  0.59301941382E+02  0.49999995175E+02 0.  0.
         12    1    1    2    0    0 -0.24539777494E+02 -0.15959527603E+02 -0.12641737754E+02  0.31886058618E+02  0.00000000000E+00 0. -1.
         11    1    3    3    0    0  0.25877484790E+02  0.21466895526E+02  0.13284445071E+02  0.36151739982E+02  0.51100000000E-03 0. -1.
        -11    1    3    3    0    0 -0.19125189092E+01  0.85868107426E+00  0.10281670182E+02  0.10493226566E+02  0.51100000000E-03 0.  1.
         12    1    3    3    0    0  0.57481161245E+00 -0.63660489972E+01 -0.10924377499E+02  0.12656974834E+02  0.00000000000E+00 0. -1.
</event>
<event>
 7    1  0.7755875E-012  0.5930193E+02  0.7816164E-02  0.1266605E+00
        -11   -1    0    0    0    0  0.00000000000E+00  0.00000000000E+00  0.45593999997E+02  0.45594000000E+02  0.51100000000E-03 0. -1.
         11   -1    0    0    0    0 -0.00000000000E+00 -0.00000000000E+00 -0.45593999997E+02  0.45594000000E+02  0.51100000000E-03 0.  1.
    9900012    2    1    2    0    0  0.27909914691E+02  0.15654091572E+01  0.15339738611E+02  0.59301930556E+02  0.49999975431E+02 0.  0.
         12    1    1    2    0    0 -0.27909914691E+02 -0.15654091572E+01 -0.15339738611E+02  0.31886069444E+02  0.00000000000E+00 0. -1.
         11    1    3    3    0    0  0.22387378621E+02 -0.12127914522E+02  0.19889720898E+02  0.32309163249E+02  0.51100000000E-03 0. -1.
        -11    1    3    3    0    0  0.16719504804E+01  0.19533514711E+02 -0.36103328972E+01  0.19934596040E+02  0.51100000000E-03 0.  1.
        -12    1    3    3    0    0  0.38505855901E+01 -0.58401910319E+01 -0.93964938949E+00  0.70581712682E+01  0.00000000000E+00 0.  1.
</event>
<event>
 7    1  0.7755875E-012  0.5930191E+02  0.7816164E-02  0.1266605E+00
        -11   -1    0    0    0    0  0.00000000000E+00  0.00000000000E+00  0.45593999997E+02  0.45594000000E+02  0.51100000000E-03 0. -1.
         11   -1    0    0    0    0 -0.00000000000E+00 -0.00000000000E+00 -0.45593999997E+02  0.45594000000E+02  0.51100000000E-03 0.  1.
    9900012    2    1    2    0    0  0.14912370167E+02  0.81933314022E+01 -0.26966894616E+02  0.59301907911E+02  0.49999934132E+02 0.  0.
         12    1    1    2    0    0 -0.14912370167E+02 -0.81933314022E+01  0.26966894616E+02  0.31886092089E+02  0.00000000000E+00 0. -1.
         11    1    3    3    0    0  0.13380890809E+02 -0.40274183200E+01 -0.19209393222E+01  0.14105259491E+02  0.51100000000E-03 0. -1.
        -11    1    3    3    0    0  0.38713017010E+01  0.65401670027E+01 -0.33720805299E+02  0.34566652594E+02  0.51100000000E-03 0.  1.
        -12    1    3    3    0    0 -0.23398223427E+01  0.56805827195E+01  0.86748500058E+01  0.10629995826E+02  0.00000000000E+00 0.  1.
</event>
<event>
 7    1  0.7755875E-012  0.5930196E+02  0.7816164E-02  0.1266605E+00
        -11   -1    0    0    0    0  0.00000000000E+00  0.00000000000E+00  0.45593999997E+02  0.45594000000E+02  0.51100000000E-03 0.  1.
         11   -1    0    0    0    0 -0.00000000000E+00 -0.00000000000E+00 -0.45593999997E+02  0.45594000000E+02  0.51100000000E-03 0. -1.
    9900012    2    1    2    0    0  0.65832154835E+01  0.15183403071E+02  0.27255190376E+02  0.59301955132E+02  0.50000020251E+02 0.  0.
         12    1    1    2    0    0 -0.65832154835E+01 -0.15183403071E+02 -0.27255190376E+02  0.31886044868E+02  0.00000000000E+00 0. -1.
         11    1    3    3    0    0  0.32466767663E+01  0.35719030777E+01 -0.11887597372E+02  0.12830213293E+02  0.51100000000E-03 0. -1.
        -11    1    3    3    0    0 -0.67890929732E+01  0.32330089515E+01  0.28748291023E+02  0.29715456707E+02  0.51100000000E-03 0.  1.
         12    1    3    3    0    0  0.10125631690E+02  0.83784910420E+01  0.10394496724E+02  0.16756285132E+02  0.00000000000E+00 0. -1.
</event>
<event>
 7    1  0.7755875E-012  0.5930194E+02  0.7816164E-02  0.1266605E+00
        -11   -1    0    0    0    0  0.00000000000E+00  0.00000000000E+00  0.45593999997E+02  0.45594000000E+02  0.51100000000E-03 0.  1.
         11   -1    0    0    0    0 -0.00000000000E+00 -0.00000000000E+00 -0.45593999997E+02  0.45594000000E+02  0.51100000000E-03 0. -1.
    9900012    2    1    2    0    0  0.18494538283E+02 -0.10871981588E+02  0.23589676337E+02  0.59301940983E+02  0.49999994448E+02 0.  0.
         12    1    1    2    0    0 -0.18494538283E+02  0.10871981588E+02 -0.23589676337E+02  0.31886059017E+02  0.00000000000E+00 0. -1.
         11    1    3    3    0    0  0.23022016381E+02  0.47234587271E+01 -0.67355089605E+01  0.24447727539E+02  0.51100000000E-03 0. -1.
        -11    1    3    3    0    0 -0.33556333493E+01 -0.15478788302E+02  0.26718360624E+02  0.31060005750E+02  0.51100000000E-03 0.  1.
         12    1    3    3    0    0 -0.11718447486E+01 -0.11665201230E+00  0.36068246731E+01  0.37942076946E+01  0.00000000000E+00 0. -1.
</event>
<event>
 7    1  0.7755875E-012  0.5930193E+02  0.7816164E-02  0.1266605E+00
        -11   -1    0    0    0    0  0.00000000000E+00  0.00000000000E+00  0.45593999997E+02  0.45594000000E+02  0.51100000000E-03 0.  1.
         11   -1    0    0    0    0 -0.00000000000E+00 -0.00000000000E+00 -0.45593999997E+02  0.45594000000E+02  0.51100000000E-03 0. -1.
    9900012    2    1    2    0    0 -0.69136256752E+01 -0.28585772789E+02  0.12319769780E+02  0.59301931673E+02  0.49999977467E+02 0.  0.
         12    1    1    2    0    0  0.69136256752E+01  0.28585772789E+02 -0.12319769780E+02  0.31886068327E+02  0.00000000000E+00 0. -1.
         11    1    3    3    0    0  0.41273529706E+01  0.11603822468E+02 -0.37134639174E+01  0.12863652395E+02  0.51100000000E-03 0. -1.
        -11    1    3    3    0    0 -0.13003462869E+02 -0.32757608308E+02  0.99103846033E+01  0.36611018450E+02  0.51100000000E-03 0.  1.
        -12    1    3    3    0    0  0.19624842237E+01 -0.74319869492E+01  0.61228490943E+01  0.98272608275E+01  0.00000000000E+00 0.  1.
</event>
<event>
 7    1  0.7755875E-012  0.5930194E+02  0.7816164E-02  0.1266605E+00
        -11   -1    0    0    0    0  0.00000000000E+00  0.00000000000E+00  0.45593999997E+02  0.45594000000E+02  0.51100000000E-03 0.  1.
         11   -1    0    0    0    0 -0.00000000000E+00 -0.00000000000E+00 -0.45593999997E+02  0.45594000000E+02  0.51100000000E-03 0. -1.
    9900012    2    1    2    0    0 -0.15328113431E+02  0.31421644099E+01  0.27783023604E+02  0.59301942559E+02  0.49999997321E+02 0.  0.
         12    1    1    2    0    0  0.15328113431E+02 -0.31421644099E+01 -0.27783023604E+02  0.31886057441E+02  0.00000000000E+00 0. -1.
         11    1    3    3    0    0  0.42444881644E+01 -0.19405429635E+02  0.67028184747E+01  0.20964592885E+02  0.51100000000E-03 0. -1.
        -11    1    3    3    0    0 -0.83122999801E+01  0.51466201723E+01  0.12587838237E+02  0.15938497479E+02  0.51100000000E-03 0.  1.
         12    1    3    3    0    0 -0.11260301615E+02  0.17400973872E+02  0.84923668924E+01  0.22398852194E+02  0.00000000000E+00 0. -1.
</event>
<event>
 7    1  0.7755875E-012  0.5930193E+02  0.7816164E-02  0.1266605E+00
        -11   -1    0    0    0    0  0.00000000000E+00  0.00000000000E+00  0.45593999997E+02  0.45594000000E+02  0.51100000000E-03 0.  1.
         11   -1    0    0    0    0 -0.00000000000E+00 -0.00000000000E+00 -0.45593999997E+02  0.45594000000E+02  0.51100000000E-03 0. -1.
    9900012    2    1    2    0    0  0.55796849388E+01 -0.24759792288E+02  0.19301328104E+02  0.59301929927E+02  0.49999974283E+02 0.  0.
         12    1    1    2    0    0 -0.55796849388E+01  0.24759792288E+02 -0.19301328104E+02  0.31886070073E+02  0.00000000000E+00 0. -1.
         11    1    3    3    0    0 -0.35573552305E+01 -0.23332558403E+02  0.16554682995E+02  0.28829162097E+02  0.51100000000E-03 0.  1.
        -11    1    3    3    0    0  0.15356301148E+02 -0.10896141880E+02  0.57920134601E-01  0.18829371945E+02  0.51100000000E-03 0. -1.
         12    1    3    3    0    0 -0.62192609789E+01  0.94689079958E+01  0.26887249745E+01  0.11643395885E+02  0.00000000000E+00 0. -1.
</event>
<event>
 7    1  0.7755875E-012  0.5930196E+02  0.7816164E-02  0.1266605E+00
        -11   -1    0    0    0    0  0.00000000000E+00  0.00000000000E+00  0.45593999997E+02  0.45594000000E+02  0.51100000000E-03 0.  1.
         11   -1    0    0    0    0 -0.00000000000E+00 -0.00000000000E+00 -0.45593999997E+02  0.45594000000E+02  0.51100000000E-03 0. -1.
    9900012    2    1    2    0    0 -0.24164806080E+02 -0.18548426607E+02 -0.94200729233E+01  0.59301956715E+02  0.50000023139E+02 0.  0.
         12    1    1    2    0    0  0.24164806080E+02  0.18548426607E+02  0.94200729233E+01  0.31886043285E+02  0.00000000000E+00 0. -1.
         11    1    3    3    0    0 -0.21203201434E+02  0.94277327937E+01  0.59997757391E+01  0.23967795181E+02  0.51100000000E-03 0. -1.
        -11    1    3    3    0    0  0.27755988825E+01 -0.21473560218E+02 -0.58683122307E+01  0.22433341844E+02  0.51100000000E-03 0.  1.
         12    1    3    3    0    0 -0.57372035281E+01 -0.65025991830E+01 -0.95515364317E+01  0.12900819690E+02  0.00000000000E+00 0. -1.
</event>
<event>
 7    1  0.7755875E-012  0.5930190E+02  0.7816164E-02  0.1266605E+00
        -11   -1    0    0    0    0  0.00000000000E+00  0.00000000000E+00  0.45593999997E+02  0.45594000000E+02  0.51100000000E-03 0. -1.
         11   -1    0    0    0    0 -0.00000000000E+00 -0.00000000000E+00 -0.45593999997E+02  0.45594000000E+02  0.51100000000E-03 0.  1.
    9900012    2    1    2    0    0  0.19600648677E+02  0.18776924435E+02 -0.16732160295E+02  0.59301897887E+02  0.49999915851E+02 0.  0.
         12    1    1    2    0    0 -0.19600648677E+02 -0.18776924435E+02  0.16732160295E+02  0.31886102113E+02  0.00000000000E+00 0. -1.
         11    1    3    3    0    0 -0.62063585092E+00  0.26926613388E+02 -0.10851532266E+02  0.29037621291E+02  0.51100000000E-03 0. -1.
        -11    1    3    3    0    0  0.50524627780E+01 -0.12376195517E+02  0.24001063284E+00  0.13369936461E+02  0.51100000000E-03 0.  1.
        -12    1    3    3    0    0  0.15168821750E+02  0.42265065638E+01 -0.61206386614E+01  0.16894340136E+02  0.00000000000E+00 0.  1.
</event>
<event>
 7    1  0.7755875E-012  0.5930193E+02  0.7816164E-02  0.1266605E+00
        -11   -1    0    0    0    0  0.00000000000E+00  0.00000000000E+00  0.45593999997E+02  0.45594000000E+02  0.51100000000E-03 0.  1.
         11   -1    0    0    0    0 -0.00000000000E+00 -0.00000000000E+00 -0.45593999997E+02  0.45594000000E+02  0.51100000000E-03 0. -1.
    9900012    2    1    2    0    0 -0.79052505237E+01  0.19200397097E+01  0.30830854953E+02  0.59301934776E+02  0.49999983128E+02 0.  0.
         12    1    1    2    0    0  0.79052505237E+01 -0.19200397097E+01 -0.30830854953E+02  0.31886065224E+02  0.00000000000E+00 0. -1.
         11    1    3    3    0    0  0.12357835733E+02  0.51649897733E+01 -0.76153242562E+01  0.15407348479E+02  0.51100000000E-03 0. -1.
        -11    1    3    3    0    0 -0.10520824350E+02 -0.42948132691E+01  0.21555534241E+02  0.24367482896E+02  0.51100000000E-03 0.  1.
         12    1    3    3    0    0 -0.97422619072E+01  0.10498632055E+01  0.16890644968E+02  0.19527103402E+02  0.00000000000E+00 0. -1.
</event>
<event>
 7    1  0.7755875E-012  0.5930195E+02  0.7816164E-02  0.1266605E+00
        -11   -1    0    0    0    0  0.00000000000E+00  0.00000000000E+00  0.45593999997E+02  0.45594000000E+02  0.51100000000E-03 0.  1.
         11   -1    0    0    0    0 -0.00000000000E+00 -0.00000000000E+00 -0.45593999997E+02  0.45594000000E+02  0.51100000000E-03 0. -1.
    9900012    2    1    2    0    0 -0.17559302146E+02 -0.22219421456E+02  0.14652250547E+02  0.59301949323E+02  0.50000009657E+02 0.  0.
         12    1    1    2    0    0  0.17559302146E+02  0.22219421456E+02 -0.14652250547E+02  0.31886050677E+02  0.00000000000E+00 0. -1.
         11    1    3    3    0    0 -0.13886523079E+02 -0.33029751413E+02 -0.18971009987E+01  0.35880342726E+02  0.51100000000E-03 0. -1.
        -11    1    3    3    0    0 -0.22539202298E+01  0.30441082840E+01  0.14877061116E+02  0.15351667641E+02  0.51100000000E-03 0.  1.
         12    1    3    3    0    0 -0.14188588369E+01  0.77662216736E+01  0.16722904303E+01  0.80699389567E+01  0.00000000000E+00 0. -1.
</event>
<event>
 7    1  0.7755875E-012  0.5930191E+02  0.7816164E-02  0.1266605E+00
        -11   -1    0    0    0    0  0.00000000000E+00  0.00000000000E+00  0.45593999997E+02  0.45594000000E+02  0.51100000000E-03 0.  1.
         11   -1    0    0    0    0 -0.00000000000E+00 -0.00000000000E+00 -0.45593999997E+02  0.45594000000E+02  0.51100000000E-03 0. -1.
    9900012    2    1    2    0    0 -0.47498675877E+01  0.28653073683E+02  0.13159125103E+02  0.59301914523E+02  0.49999946190E+02 0.  0.
         12    1    1    2    0    0  0.47498675877E+01 -0.28653073683E+02 -0.13159125103E+02  0.31886085477E+02  0.00000000000E+00 0. -1.
         11    1    3    3    0    0 -0.21556825724E+02  0.16153817945E+02 -0.55394837396E+01  0.27501426324E+02  0.51100000000E-03 0. -1.
        -11    1    3    3    0    0  0.13866757294E+01  0.53519966006E+01  0.12571775968E+02  0.13733764540E+02  0.51100000000E-03 0.  1.
         12    1    3    3    0    0  0.15420282407E+02  0.71472591382E+01  0.61268328747E+01  0.18066723659E+02  0.00000000000E+00 0. -1.
</event>
<event>
 7    1  0.7755875E-012  0.5930193E+02  0.7816164E-02  0.1266605E+00
        -11   -1    0    0    0    0  0.00000000000E+00  0.00000000000E+00  0.45593999997E+02  0.45594000000E+02  0.51100000000E-03 0. -1.
         11   -1    0    0    0    0 -0.00000000000E+00 -0.00000000000E+00 -0.45593999997E+02  0.45594000000E+02  0.51100000000E-03 0.  1.
    9900012    2    1    2    0    0  0.21664995056E+02  0.18354081627E+02 -0.14507833072E+02  0.59301928689E+02  0.49999972026E+02 0.  0.
         12    1    1    2    0    0 -0.21664995056E+02 -0.18354081627E+02  0.14507833072E+02  0.31886071311E+02  0.00000000000E+00 0. -1.
         11    1    3    3    0    0  0.19449988379E+02  0.13189293615E+02 -0.15586536509E+01  0.23551834652E+02  0.51100000000E-03 0. -1.
        -11    1    3    3    0    0  0.11730336154E+02 -0.10400602857E+01 -0.19394110032E+02  0.22689513345E+02  0.51100000000E-03 0.  1.
        -12    1    3    3    0    0 -0.95153294762E+01  0.62048482975E+01  0.64449306100E+01  0.13060580692E+02  0.00000000000E+00 0.  1.
</event>
<event>
 7    1  0.7755875E-012  0.5930193E+02  0.7816164E-02  0.1266605E+00
        -11   -1    0    0    0    0  0.00000000000E+00  0.00000000000E+00  0.45593999997E+02  0.45594000000E+02  0.51100000000E-03 0. -1.
         11   -1    0    0    0    0 -0.00000000000E+00 -0.00000000000E+00 -0.45593999997E+02  0.45594000000E+02  0.51100000000E-03 0.  1.
    9900012    2    1    2    0    0 -0.23007679847E+02  0.21328371906E+02 -0.56981256925E+01  0.59301930683E+02  0.49999975662E+02 0.  0.
         12    1    1    2    0    0  0.23007679847E+02 -0.21328371906E+02  0.56981256925E+01  0.31886069317E+02  0.00000000000E+00 0. -1.
         11    1    3    3    0    0 -0.12187127818E+02 -0.21872378927E+01  0.21897086184E+00  0.12383781431E+02  0.51100000000E-03 0. -1.
        -11    1    3    3    0    0 -0.77807665299E+00  0.15845073450E+02  0.15417614184E+02  0.22121812388E+02  0.51100000000E-03 0.  1.
        -12    1    3    3    0    0 -0.10042475376E+02  0.76705363487E+01 -0.21334710739E+02  0.24796336864E+02  0.00000000000E+00 0.  1.
</event>
<event>
 7    1  0.7755875E-012  0.5930196E+02  0.7816164E-02  0.1266605E+00
        -11   -1    0    0    0    0  0.00000000000E+00  0.00000000000E+00  0.45593999997E+02  0.45594000000E+02  0.51100000000E-03 0.  1.
         11   -1    0    0    0    0 -0.00000000000E+00 -0.00000000000E+00 -0.45593999997E+02  0.45594000000E+02  0.51100000000E-03 0. -1.
    9900012    2    1    2    0    0  0.30145482133E+02  0.51211999510E+01  0.90411857674E+01  0.59301955685E+02  0.50000021260E+02 0.  0.
         12    1    1    2    0    0 -0.30145482133E+02 -0.51211999510E+01 -0.90411857674E+01  0.31886044315E+02  0.00000000000E+00 0. -1.
         11    1    3    3    0    0 -0.48757869374E+01  0.11116944470E+01  0.28606891195E+00  0.50090915829E+01  0.51100000000E-03 0. -1.
        -11    1    3    3    0    0  0.39708575812E+02 -0.39726813626E+01 -0.21794598787E+01  0.39966276232E+02  0.51100000000E-03 0.  1.
        -12    1    3    3    0    0 -0.46873067413E+01  0.79821868665E+01  0.10934576734E+02  0.14326587871E+02  0.00000000000E+00 0.  1.
</event>
<event>
 7    1  0.7755875E-012  0.5930195E+02  0.7816164E-02  0.1266605E+00
        -11   -1    0    0    0    0  0.00000000000E+00  0.00000000000E+00  0.45593999997E+02  0.45594000000E+02  0.51100000000E-03 0.  1.
         11   -1    0    0    0    0 -0.00000000000E+00 -0.00000000000E+00 -0.45593999997E+02  0.45594000000E+02  0.51100000000E-03 0. -1.
    9900012    2    1    2    0    0 -0.81401431333E+01 -0.30774159755E+02 -0.18464172881E+01  0.59301951395E+02  0.50000013436E+02 0.  0.
         12    1    1    2    0    0  0.81401431333E+01  0.30774159755E+02  0.18464172881E+01  0.31886048605E+02  0.00000000000E+00 0. -1.
         11    1    3    3    0    0 -0.82289353693E+01  0.75846530937E+01 -0.12988050716E+02  0.17144439376E+02  0.51100000000E-03 0. -1.
        -11    1    3    3    0    0 -0.15177492291E+01 -0.10472913029E+02  0.94278374755E+01  0.14172846918E+02  0.51100000000E-03 0.  1.
         12    1    3    3    0    0  0.16065414650E+01 -0.27885899820E+02  0.17137959519E+01  0.27984665101E+02  0.00000000000E+00 0. -1.
</event>
<event>
 7    1  0.7755875E-012  0.5930198E+02  0.7816164E-02  0.1266605E+00
        -11   -1    0    0    0    0  0.00000000000E+00  0.00000000000E+00  0.45593999997E+02  0.45594000000E+02  0.51100000000E-03 0. -1.
         11   -1    0    0    0    0 -0.00000000000E+00 -0.00000000000E+00 -0.45593999997E+02  0.45594000000E+02  0.51100000000E-03 0.  1.
    9900012    2    1    2    0    0 -0.14430032667E+02 -0.28431986191E+02  0.33891384429E+00  0.59301975724E+02  0.50000057806E+02 0.  0.
         12    1    1    2    0    0  0.14430032667E+02  0.28431986191E+02 -0.33891384429E+00  0.31886024276E+02  0.00000000000E+00 0. -1.
         11    1    3    3    0    0 -0.20788885439E+02 -0.31435686647E+02  0.48146512292E+01  0.37994223502E+02  0.51100000000E-03 0. -1.
        -11    1    3    3    0    0 -0.49430347787E+01 -0.42725930519E+00 -0.76129909901E+01  0.90870113576E+01  0.51100000000E-03 0.  1.
         12    1    3    3    0    0  0.11301887551E+02  0.34309597613E+01  0.31372536052E+01  0.12220740865E+02  0.00000000000E+00 0. -1.
</event>
<event>
 7    1  0.7755875E-012  0.5930194E+02  0.7816164E-02  0.1266605E+00
        -11   -1    0    0    0    0  0.00000000000E+00  0.00000000000E+00  0.45593999997E+02  0.45594000000E+02  0.51100000000E-03 0.  1.
         11   -1    0    0    0    0 -0.00000000000E+00 -0.00000000000E+00 -0.45593999997E+02  0.45594000000E+02  0.51100000000E-03 0. -1.
    9900012    2    1    2    0    0 -0.19467821152E+01  0.12679259382E+02  0.29191907639E+02  0.59301936420E+02  0.49999986125E+02 0.  0.
         12    1    1    2    0    0  0.19467821152E+01 -0.12679259382E+02 -0.29191907639E+02  0.31886063580E+02  0.00000000000E+00 0. -1.
         11    1    3    3    0    0  0.11411525880E+02  0.12971604297E+02  0.25091111914E+02  0.30463902217E+02  0.51100000000E-03 0. -1.
        -11    1    3    3    0    0 -0.17010558469E+02  0.43825334226E+01  0.10213845629E+02  0.20319654068E+02  0.51100000000E-03 0.  1.
         12    1    3    3    0    0  0.36522504736E+01 -0.46748783372E+01 -0.61130499046E+01  0.85183801351E+01  0.00000000000E+00 0. -1.
</event>
<event>
 7    1  0.7755875E-012  0.5930194E+02  0.7816164E-02  0.1266605E+00
        -11   -1    0    0    0    0  0.00000000000E+00  0.00000000000E+00  0.45593999997E+02  0.45594000000E+02  0.51100000000E-03 0.  1.
         11   -1    0    0    0    0 -0.00000000000E+00 -0.00000000000E+00 -0.45593999997E+02  0.45594000000E+02  0.51100000000E-03 0. -1.
    9900012    2    1    2    0    0  0.16245609656E+02  0.18705008091E+02  0.20072951168E+02  0.59301944593E+02  0.50000001032E+02 0.  0.
         12    1    1    2    0    0 -0.16245609656E+02 -0.18705008091E+02 -0.20072951168E+02  0.31886055407E+02  0.00000000000E+00 0. -1.
         11    1    3    3    0    0  0.12921496311E+01 -0.14118035744E+02  0.95634841352E+00  0.14209264108E+02  0.51100000000E-03 0.  1.
        -11    1    3    3    0    0  0.18419686667E+02  0.24799465673E+02  0.10016472101E+02  0.32475037617E+02  0.51100000000E-03 0. -1.
         12    1    3    3    0    0 -0.34662266418E+01  0.80235781623E+01  0.91001306534E+01  0.12617642869E+02  0.00000000000E+00 0. -1.
</event>
<event>
 7    1  0.7755875E-012  0.5930196E+02  0.7816164E-02  0.1266605E+00
        -11   -1    0    0    0    0  0.00000000000E+00  0.00000000000E+00  0.45593999997E+02  0.45594000000E+02  0.51100000000E-03 0.  1.
         11   -1    0    0    0    0 -0.00000000000E+00 -0.00000000000E+00 -0.45593999997E+02  0.45594000000E+02  0.51100000000E-03 0. -1.
    9900012    2    1    2    0    0 -0.13256189668E+02 -0.11092277115E+02  0.26794672560E+02  0.59301958325E+02  0.50000026075E+02 0.  0.
         12    1    1    2    0    0  0.13256189668E+02  0.11092277115E+02 -0.26794672560E+02  0.31886041675E+02  0.00000000000E+00 0. -1.
         11    1    3    3    0    0  0.11445773631E+02  0.58633568540E+01  0.74654015889E+01  0.14870000295E+02  0.51100000000E-03 0. -1.
        -11    1    3    3    0    0 -0.17047734592E+02 -0.18170122094E+02  0.24636401580E+02  0.35038990778E+02  0.51100000000E-03 0.  1.
         12    1    3    3    0    0 -0.76542287074E+01  0.12144881254E+01 -0.53071306088E+01  0.93929672528E+01  0.00000000000E+00 0. -1.
</event>
<event>
 7    1  0.7755875E-012  0.5930207E+02  0.7816164E-02  0.1266604E+00
        -11   -1    0    0    0    0  0.00000000000E+00  0.00000000000E+00  0.45593999997E+02  0.45594000000E+02  0.51100000000E-03 0.  1.
         11   -1    0    0    0    0 -0.00000000000E+00 -0.00000000000E+00 -0.45593999997E+02  0.45594000000E+02  0.51100000000E-03 0. -1.
    9900012    2    1    2    0    0  0.16522744393E+02  0.23980734779E+02  0.12985981003E+02  0.59302071671E+02  0.50000232789E+02 0.  0.
         12    1    1    2    0    0 -0.16522744393E+02 -0.23980734779E+02 -0.12985981003E+02  0.31885928329E+02  0.00000000000E+00 0. -1.
         11    1    3    3    0    0  0.11410571261E+02 -0.11555148804E+02 -0.41507796907E+01  0.16761610086E+02  0.51100000000E-03 0. -1.
        -11    1    3    3    0    0 -0.22587504609E+01  0.27321671371E+02  0.90922141345E+01  0.28883283025E+02  0.51100000000E-03 0.  1.
         12    1    3    3    0    0  0.73709235923E+01  0.82142122115E+01  0.80445465592E+01  0.13657178559E+02  0.00000000000E+00 0. -1.
</event>
<event>
 7    1  0.7755875E-012  0.5930193E+02  0.7816164E-02  0.1266605E+00
        -11   -1    0    0    0    0  0.00000000000E+00  0.00000000000E+00  0.45593999997E+02  0.45594000000E+02  0.51100000000E-03 0.  1.
         11   -1    0    0    0    0 -0.00000000000E+00 -0.00000000000E+00 -0.45593999997E+02  0.45594000000E+02  0.51100000000E-03 0. -1.
    9900012    2    1    2    0    0  0.78261179113E+01 -0.17605418179E+02  0.25407138127E+02  0.59301928768E+02  0.49999972170E+02 0.  0.
         12    1    1    2    0    0 -0.78261179113E+01  0.17605418179E+02 -0.25407138127E+02  0.31886071232E+02  0.00000000000E+00 0. -1.
         11    1    3    3    0    0 -0.14861426524E+02 -0.94446131296E+01  0.23896084993E+02  0.29683085988E+02  0.51100000000E-03 0.  1.
        -11    1    3    3    0    0  0.90164675802E+01 -0.46057969386E+01 -0.77305389664E+01  0.12738574725E+02  0.51100000000E-03 0. -1.
        -12    1    3    3    0    0  0.13671076855E+02 -0.35550081107E+01  0.92415921000E+01  0.16880268054E+02  0.00000000000E+00 0.  1.
</event>
<event>
 7    1  0.7755875E-012  0.5930195E+02  0.7816164E-02  0.1266605E+00
        -11   -1    0    0    0    0  0.00000000000E+00  0.00000000000E+00  0.45593999997E+02  0.45594000000E+02  0.51100000000E-03 0.  1.
         11   -1    0    0    0    0 -0.00000000000E+00 -0.00000000000E+00 -0.45593999997E+02  0.45594000000E+02  0.51100000000E-03 0. -1.
    9900012    2    1    2    0    0 -0.17085757639E+02 -0.23726431519E+02  0.12722164272E+02  0.59301950848E+02  0.50000012439E+02 0.  0.
         12    1    1    2    0    0  0.17085757639E+02  0.23726431519E+02 -0.12722164272E+02  0.31886049152E+02  0.00000000000E+00 0. -1.
         11    1    3    3    0    0 -0.67732878365E+01 -0.26695333957E+02  0.61568449985E+01  0.28221003239E+02  0.51100000000E-03 0.  1.
        -11    1    3    3    0    0  0.55517458223E+01  0.96335314912E+01 -0.28334680735E+01  0.11474116622E+02  0.51100000000E-03 0. -1.
         12    1    3    3    0    0 -0.15864215625E+02 -0.66646290535E+01  0.93987873465E+01  0.19606830988E+02  0.00000000000E+00 0. -1.
</event>
<event>
 7    1  0.7755875E-012  0.5930192E+02  0.7816164E-02  0.1266605E+00
        -11   -1    0    0    0    0  0.00000000000E+00  0.00000000000E+00  0.45593999997E+02  0.45594000000E+02  0.51100000000E-03 0.  1.
         11   -1    0    0    0    0 -0.00000000000E+00 -0.00000000000E+00 -0.45593999997E+02  0.45594000000E+02  0.51100000000E-03 0. -1.
    9900012    2    1    2    0    0 -0.29749398921E+02  0.10878680781E+02  0.36536805020E+01  0.59301924467E+02  0.49999964325E+02 0.  0.
         12    1    1    2    0    0  0.29749398921E+02 -0.10878680781E+02 -0.36536805020E+01  0.31886075533E+02  0.00000000000E+00 0. -1.
         11    1    3    3    0    0  0.97199966320E+01 -0.71521164723E+01  0.53844220911E+01  0.13214503626E+02  0.51100000000E-03 0. -1.
        -11    1    3    3    0    0 -0.29817925051E+02  0.20281781788E+02 -0.24909967167E+01  0.36147813098E+02  0.51100000000E-03 0.  1.
         12    1    3    3    0    0 -0.96514705016E+01 -0.22509845351E+01  0.76025512770E+00  0.99396077427E+01  0.00000000000E+00 0. -1.
</event>
<event>
 7    1  0.7755875E-012  0.5930196E+02  0.7816164E-02  0.1266605E+00
        -11   -1    0    0    0    0  0.00000000000E+00  0.00000000000E+00  0.45593999997E+02  0.45594000000E+02  0.51100000000E-03 0.  1.
         11   -1    0    0    0    0 -0.00000000000E+00 -0.00000000000E+00 -0.45593999997E+02  0.45594000000E+02  0.51100000000E-03 0. -1.
    9900012    2    1    2    0    0 -0.27342000802E+02  0.16333229182E+02 -0.15362546650E+01  0.59301961335E+02  0.50000031564E+02 0.  0.
         12    1    1    2    0    0  0.27342000802E+02 -0.16333229182E+02  0.15362546650E+01  0.31886038665E+02  0.00000000000E+00 0. -1.
         11    1    3    3    0    0 -0.24188292407E+02  0.23130014766E+01 -0.17059108973E+02  0.29688999050E+02  0.51100000000E-03 0. -1.
        -11    1    3    3    0    0  0.38603561693E+01  0.25927063137E+01  0.15522988561E+02  0.16204556455E+02  0.51100000000E-03 0.  1.
        -12    1    3    3    0    0 -0.70140645645E+01  0.11427521391E+02 -0.13425251715E-03  0.13408405829E+02  0.00000000000E+00 0.  1.
</event>
<event>
 7    1  0.7755875E-012  0.5930194E+02  0.7816164E-02  0.1266605E+00
        -11   -1    0    0    0    0  0.00000000000E+00  0.00000000000E+00  0.45593999997E+02  0.45594000000E+02  0.51100000000E-03 0. -1.
         11   -1    0    0    0    0 -0.00000000000E+00 -0.00000000000E+00 -0.45593999997E+02  0.45594000000E+02  0.51100000000E-03 0.  1.
    9900012    2    1    2    0    0 -0.16661398544E+02  0.18092144110E+02 -0.20292685935E+02  0.59301937490E+02  0.49999988076E+02 0.  0.
         12    1    1    2    0    0  0.16661398544E+02 -0.18092144110E+02  0.20292685935E+02  0.31886062510E+02  0.00000000000E+00 0. -1.
         11    1    3    3    0    0 -0.48442219539E+01  0.82188649874E+01  0.58587411550E+01  0.11195582888E+02  0.51100000000E-03 0. -1.
        -11    1    3    3    0    0  0.10645305507E+02  0.13333555882E+02 -0.15317188395E+02  0.22928639349E+02  0.51100000000E-03 0.  1.
        -12    1    3    3    0    0 -0.22462482098E+02 -0.34602767595E+01 -0.10834238695E+02  0.25177715253E+02  0.00000000000E+00 0.  1.
</event>
<event>
 7    1  0.7755875E-012  0.5930193E+02  0.7816164E-02  0.1266605E+00
        -11   -1    0    0    0    0  0.00000000000E+00  0.00000000000E+00  0.45593999997E+02  0.45594000000E+02  0.51100000000E-03 0.  1.
         11   -1    0    0    0    0 -0.00000000000E+00 -0.00000000000E+00 -0.45593999997E+02  0.45594000000E+02  0.51100000000E-03 0. -1.
    9900012    2    1    2    0    0 -0.20140025249E+02  0.22319586511E+02  0.10627177847E+02  0.59301929875E+02  0.49999974188E+02 0.  0.
         12    1    1    2    0    0  0.20140025249E+02 -0.22319586511E+02 -0.10627177847E+02  0.31886070125E+02  0.00000000000E+00 0. -1.
         11    1    3    3    0    0 -0.20635860683E+02  0.29001688205E+02 -0.56206839954E+01  0.36035104463E+02  0.51100000000E-03 0. -1.
        -11    1    3    3    0    0 -0.44187943133E+01 -0.96851911196E+01  0.85566905090E+01  0.13658170556E+02  0.51100000000E-03 0.  1.
        -12    1    3    3    0    0  0.49146297475E+01  0.30030894260E+01  0.76911713331E+01  0.96086548554E+01  0.00000000000E+00 0.  1.
</event>
<event>
 7    1  0.7755875E-012  0.5930199E+02  0.7816164E-02  0.1266605E+00
        -11   -1    0    0    0    0  0.00000000000E+00  0.00000000000E+00  0.45593999997E+02  0.45594000000E+02  0.51100000000E-03 0.  1.
         11   -1    0    0    0    0 -0.00000000000E+00 -0.00000000000E+00 -0.45593999997E+02  0.45594000000E+02  0.51100000000E-03 0. -1.
    9900012    2    1    2    0    0  0.15653169991E+01 -0.30634886761E+01  0.31699882436E+02  0.59301988543E+02  0.50000081186E+02 0.  0.
         12    1    1    2    0    0 -0.15653169991E+01  0.30634886761E+01 -0.31699882436E+02  0.31886011457E+02  0.00000000000E+00 0. -1.
         11    1    3    3    0    0  0.82251242383E+01 -0.73550245333E+01 -0.29143077397E+01  0.11412372430E+02  0.51100000000E-03 0. -1.
        -11    1    3    3    0    0  0.24670226216E+01  0.16984666121E+02  0.21303539655E+02  0.27357007986E+02  0.51100000000E-03 0.  1.
        -12    1    3    3    0    0 -0.91268298608E+01 -0.12693130264E+02  0.13310650521E+02  0.20532608127E+02  0.00000000000E+00 0.  1.
</event>
<event>
 7    1  0.7755875E-012  0.5930198E+02  0.7816164E-02  0.1266605E+00
        -11   -1    0    0    0    0  0.00000000000E+00  0.00000000000E+00  0.45593999997E+02  0.45594000000E+02  0.51100000000E-03 0.  1.
         11   -1    0    0    0    0 -0.00000000000E+00 -0.00000000000E+00 -0.45593999997E+02  0.45594000000E+02  0.51100000000E-03 0. -1.
    9900012    2    1    2    0    0  0.10381309823E+02 -0.53922728217E+01  0.29662602189E+02  0.59301981615E+02  0.50000068550E+02 0.  0.
         12    1    1    2    0    0 -0.10381309823E+02  0.53922728217E+01 -0.29662602189E+02  0.31886018385E+02  0.00000000000E+00 0. -1.
         11    1    3    3    0    0 -0.13363759255E+02 -0.48339871395E+01 -0.26326053361E+01  0.14452961780E+02  0.51100000000E-03 0.  1.
        -11    1    3    3    0    0  0.25469403595E+02 -0.63081797170E+00  0.33957823947E+02  0.42452588358E+02  0.51100000000E-03 0. -1.
         12    1    3    3    0    0 -0.17243345178E+01  0.72532289497E-01 -0.16626164213E+01  0.23964314776E+01  0.00000000000E+00 0. -1.
</event>
<event>
 7    1  0.7755875E-012  0.5930194E+02  0.7816164E-02  0.1266605E+00
        -11   -1    0    0    0    0  0.00000000000E+00  0.00000000000E+00  0.45593999997E+02  0.45594000000E+02  0.51100000000E-03 0.  1.
         11   -1    0    0    0    0 -0.00000000000E+00 -0.00000000000E+00 -0.45593999997E+02  0.45594000000E+02  0.51100000000E-03 0. -1.
    9900012    2    1    2    0    0 -0.30765580164E+02  0.13073708090E+01  0.82758917826E+01  0.59301944645E+02  0.50000001126E+02 0.  0.
         12    1    1    2    0    0  0.30765580164E+02 -0.13073708090E+01 -0.82758917826E+01  0.31886055355E+02  0.00000000000E+00 0. -1.
         11    1    3    3    0    0  0.28676992029E+01  0.16250306762E+02  0.76820457008E+01  0.18201922838E+02  0.51100000000E-03 0. -1.
        -11    1    3    3    0    0 -0.26054277735E+02 -0.87789546806E+01  0.82318049683E+01  0.28699443320E+02  0.51100000000E-03 0.  1.
         12    1    3    3    0    0 -0.75790016319E+01 -0.61639812726E+01 -0.76379588866E+01  0.12400578487E+02  0.00000000000E+00 0. -1.
</event>
<event>
 7    1  0.7755875E-012  0.5930190E+02  0.7816164E-02  0.1266605E+00
        -11   -1    0    0    0    0  0.00000000000E+00  0.00000000000E+00  0.45593999997E+02  0.45594000000E+02  0.51100000000E-03 0.  1.
         11   -1    0    0    0    0 -0.00000000000E+00 -0.00000000000E+00 -0.45593999997E+02  0.45594000000E+02  0.51100000000E-03 0. -1.
    9900012    2    1    2    0    0  0.40055206360E+01  0.20649282905E+02  0.23964270353E+02  0.59301900621E+02  0.49999920836E+02 0.  0.
         12    1    1    2    0    0 -0.40055206360E+01 -0.20649282905E+02 -0.23964270353E+02  0.31886099379E+02  0.00000000000E+00 0. -1.
         11    1    3    3    0    0 -0.91792555779E+01  0.11993560262E+02 -0.11711185003E+02  0.19111673792E+02  0.51100000000E-03 0. -1.
        -11    1    3    3    0    0  0.13566225650E+02  0.99665068742E+01  0.34503779695E+02  0.38391204086E+02  0.51100000000E-03 0.  1.
         12    1    3    3    0    0 -0.38144943640E+00 -0.13107842312E+01  0.11716756612E+01  0.17990227426E+01  0.00000000000E+00 0. -1.
</event>
<event>
 7    1  0.7755875E-012  0.5930196E+02  0.7816164E-02  0.1266605E+00
        -11   -1    0    0    0    0  0.00000000000E+00  0.00000000000E+00  0.45593999997E+02  0.45594000000E+02  0.51100000000E-03 0.  1.
         11   -1    0    0    0    0 -0.00000000000E+00 -0.00000000000E+00 -0.45593999997E+02  0.45594000000E+02  0.51100000000E-03 0. -1.
    9900012    2    1    2    0    0  0.12027027675E+02 -0.21162074284E+02  0.20597008176E+02  0.59301960288E+02  0.50000029655E+02 0.  0.
         12    1    1    2    0    0 -0.12027027675E+02  0.21162074284E+02 -0.20597008176E+02  0.31886039712E+02  0.00000000000E+00 0. -1.
         11    1    3    3    0    0 -0.27319042335E+01  0.13602065423E+02  0.89462342171E-01  0.13873986027E+02  0.51100000000E-03 0. -1.
        -11    1    3    3    0    0  0.11632685890E+02 -0.34228178591E+02  0.21553040895E+02  0.42088254451E+02  0.51100000000E-03 0.  1.
        -12    1    3    3    0    0  0.31262460186E+01 -0.53596111619E+00 -0.10454950613E+01  0.33397198101E+01  0.00000000000E+00 0.  1.
</event>
<event>
 7    1  0.7755875E-012  0.5930193E+02  0.7816164E-02  0.1266605E+00
        -11   -1    0    0    0    0  0.00000000000E+00  0.00000000000E+00  0.45593999997E+02  0.45594000000E+02  0.51100000000E-03 0. -1.
         11   -1    0    0    0    0 -0.00000000000E+00 -0.00000000000E+00 -0.45593999997E+02  0.45594000000E+02  0.51100000000E-03 0.  1.
    9900012    2    1    2    0    0 -0.81072167718E+01  0.23057260475E+01 -0.30751875643E+02  0.59301934204E+02  0.49999982084E+02 0.  0.
         12    1    1    2    0    0  0.81072167718E+01 -0.23057260475E+01  0.30751875643E+02  0.31886065796E+02  0.00000000000E+00 0. -1.
         11    1    3    3    0    0  0.98679176145E+00  0.11737812397E+02 -0.96031364586E+01  0.15197704694E+02  0.51100000000E-03 0. -1.
        -11    1    3    3    0    0  0.11984627930E+01 -0.88123801450E+01  0.87507236030E+01  0.12476759224E+02  0.51100000000E-03 0.  1.
        -12    1    3    3    0    0 -0.10292471326E+02 -0.61970620457E+00 -0.29899462787E+02  0.31627470287E+02  0.00000000000E+00 0.  1.
</event>
<event>
 7    1  0.7755875E-012  0.5930194E+02  0.7816164E-02  0.1266605E+00
        -11   -1    0    0    0    0  0.00000000000E+00  0.00000000000E+00  0.45593999997E+02  0.45594000000E+02  0.51100000000E-03 0.  1.
         11   -1    0    0    0    0 -0.00000000000E+00 -0.00000000000E+00 -0.45593999997E+02  0.45594000000E+02  0.51100000000E-03 0. -1.
    9900012    2    1    2    0    0  0.22563614861E+01 -0.29514558500E+02  0.11854130949E+02  0.59301941116E+02  0.49999994689E+02 0.  0.
         12    1    1    2    0    0 -0.22563614861E+01  0.29514558500E+02 -0.11854130949E+02  0.31886058884E+02  0.00000000000E+00 0. -1.
         11    1    3    3    0    0  0.49326639615E-01 -0.38602365217E+02  0.37296274050E+01  0.38782149944E+02  0.51100000000E-03 0. -1.
        -11    1    3    3    0    0 -0.18632109557E+01  0.92767443678E+01  0.11735840545E+02  0.15075128348E+02  0.51100000000E-03 0.  1.
         12    1    3    3    0    0  0.40702458022E+01 -0.18893765170E+00 -0.36113370018E+01  0.54446628240E+01  0.00000000000E+00 0. -1.
</event>
<event>
 7    1  0.7755875E-012  0.5930194E+02  0.7816164E-02  0.1266605E+00
        -11   -1    0    0    0    0  0.00000000000E+00  0.00000000000E+00  0.45593999997E+02  0.45594000000E+02  0.51100000000E-03 0.  1.
         11   -1    0    0    0    0 -0.00000000000E+00 -0.00000000000E+00 -0.45593999997E+02  0.45594000000E+02  0.51100000000E-03 0. -1.
    9900012    2    1    2    0    0  0.19147217092E+02 -0.11897392893E+02  0.22551202905E+02  0.59301942977E+02  0.49999998084E+02 0.  0.
         12    1    1    2    0    0 -0.19147217092E+02  0.11897392893E+02 -0.22551202905E+02  0.31886057023E+02  0.00000000000E+00 0. -1.
         11    1    3    3    0    0  0.12073994828E+02  0.17190849576E+02  0.78289958543E+01  0.22418738515E+02  0.51100000000E-03 0. -1.
        -11    1    3    3    0    0 -0.24488110199E+01 -0.84345140676E+01  0.10606410571E+02  0.13770753372E+02  0.51100000000E-03 0.  1.
         12    1    3    3    0    0  0.95220332832E+01 -0.20653728401E+02  0.41157964799E+01  0.23112451090E+02  0.00000000000E+00 0. -1.
</event>
<event>
 7    1  0.7755875E-012  0.5930192E+02  0.7816164E-02  0.1266605E+00
        -11   -1    0    0    0    0  0.00000000000E+00  0.00000000000E+00  0.45593999997E+02  0.45594000000E+02  0.51100000000E-03 0.  1.
         11   -1    0    0    0    0 -0.00000000000E+00 -0.00000000000E+00 -0.45593999997E+02  0.45594000000E+02  0.51100000000E-03 0. -1.
    9900012    2    1    2    0    0 -0.15015868430E+00 -0.16029231081E+02  0.27563809769E+02  0.59301915172E+02  0.49999947374E+02 0.  0.
         12    1    1    2    0    0  0.15015868430E+00  0.16029231081E+02 -0.27563809769E+02  0.31886084828E+02  0.00000000000E+00 0. -1.
         11    1    3    3    0    0 -0.69337607687E+01  0.90376408593E+01  0.96413681743E+01  0.14923537491E+02  0.51100000000E-03 0. -1.
        -11    1    3    3    0    0  0.14126722005E+02 -0.96967590157E+01  0.20963330581E+02  0.27074944863E+02  0.51100000000E-03 0.  1.
        -12    1    3    3    0    0 -0.73431199207E+01 -0.15370112925E+02 -0.30408889865E+01  0.17303432819E+02  0.00000000000E+00 0.  1.
</event>
<event>
 7    1  0.7755875E-012  0.5930196E+02  0.7816164E-02  0.1266605E+00
        -11   -1    0    0    0    0  0.00000000000E+00  0.00000000000E+00  0.45593999997E+02  0.45594000000E+02  0.51100000000E-03 0. -1.
         11   -1    0    0    0    0 -0.00000000000E+00 -0.00000000000E+00 -0.45593999997E+02  0.45594000000E+02  0.51100000000E-03 0.  1.
    9900012    2    1    2    0    0  0.67180151397E+00 -0.14907615944E+02 -0.28178561916E+02  0.59301957880E+02  0.50000025264E+02 0.  0.
         12    1    1    2    0    0 -0.67180151397E+00  0.14907615944E+02  0.28178561916E+02  0.31886042120E+02  0.00000000000E+00 0. -1.
         11    1    3    3    0    0  0.39007122538E+01  0.14232432566E+02 -0.11865655586E+02  0.18935983617E+02  0.51100000000E-03 0. -1.
        -11    1    3    3    0    0 -0.31779517685E+01 -0.29283141849E+02 -0.60100236942E+01  0.30061971976E+02  0.51100000000E-03 0.  1.
         12    1    3    3    0    0 -0.50958971324E-01  0.14309333989E+00 -0.10302882636E+02  0.10304002287E+02  0.00000000000E+00 0. -1.
</event>
<event>
 7    1  0.7755875E-012  0.5930194E+02  0.7816164E-02  0.1266605E+00
        -11   -1    0    0    0    0  0.00000000000E+00  0.00000000000E+00  0.45593999997E+02  0.45594000000E+02  0.51100000000E-03 0. -1.
         11   -1    0    0    0    0 -0.00000000000E+00 -0.00000000000E+00 -0.45593999997E+02  0.45594000000E+02  0.51100000000E-03 0.  1.
    9900012    2    1    2    0    0 -0.13670018303E+02 -0.15664211378E+02 -0.24176099657E+02  0.59301941712E+02  0.49999995777E+02 0.  0.
         12    1    1    2    0    0  0.13670018303E+02  0.15664211378E+02  0.24176099657E+02  0.31886058288E+02  0.00000000000E+00 0. -1.
         11    1    3    3    0    0  0.15697398952E+02 -0.22481433120E+01 -0.93685224136E+01  0.18418243529E+02  0.51100000000E-03 0. -1.
        -11    1    3    3    0    0 -0.11751370635E+02 -0.50467081360E+01 -0.16982636305E+02  0.21259678054E+02  0.51100000000E-03 0.  1.
         12    1    3    3    0    0 -0.17616046619E+02 -0.83693599297E+01  0.21750590615E+01  0.19624020130E+02  0.00000000000E+00 0. -1.
</event>
<event>
 7    1  0.7755875E-012  0.5930195E+02  0.7816164E-02  0.1266605E+00
        -11   -1    0    0    0    0  0.00000000000E+00  0.00000000000E+00  0.45593999997E+02  0.45594000000E+02  0.51100000000E-03 0.  1.
         11   -1    0    0    0    0 -0.00000000000E+00 -0.00000000000E+00 -0.45593999997E+02  0.45594000000E+02  0.51100000000E-03 0. -1.
    9900012    2    1    2    0    0 -0.75656155376E+00 -0.41343441474E+01  0.31607829579E+02  0.59301951678E+02  0.50000013952E+02 0.  0.
         12    1    1    2    0    0  0.75656155376E+00  0.41343441474E+01 -0.31607829579E+02  0.31886048322E+02  0.00000000000E+00 0. -1.
         11    1    3    3    0    0 -0.55459460187E+01  0.44140663982E+01  0.26794948884E+02  0.27716615691E+02  0.51100000000E-03 0.  1.
        -11    1    3    3    0    0  0.15319433562E+02  0.24171074715E+01  0.52580614440E+01  0.16376039314E+02  0.51100000000E-03 0. -1.
        -12    1    3    3    0    0 -0.10530049097E+02 -0.10965518017E+02 -0.44518074897E+00  0.15209296673E+02  0.00000000000E+00 0.  1.
</event>
<event>
 7    1  0.7755875E-012  0.5930195E+02  0.7816164E-02  0.1266605E+00
        -11   -1    0    0    0    0  0.00000000000E+00  0.00000000000E+00  0.45593999997E+02  0.45594000000E+02  0.51100000000E-03 0. -1.
         11   -1    0    0    0    0 -0.00000000000E+00 -0.00000000000E+00 -0.45593999997E+02  0.45594000000E+02  0.51100000000E-03 0.  1.
    9900012    2    1    2    0    0 -0.65124996194E+01  0.15654269137E+02 -0.27004658913E+02  0.59301946677E+02  0.50000004831E+02 0.  0.
         12    1    1    2    0    0  0.65124996194E+01 -0.15654269137E+02  0.27004658913E+02  0.31886053323E+02  0.00000000000E+00 0. -1.
         11    1    3    3    0    0  0.32643190211E+01 -0.34178517558E+01  0.12344138621E+02  0.13217989554E+02  0.51100000000E-03 0. -1.
        -11    1    3    3    0    0 -0.45586766995E+01  0.13532612631E+01 -0.40577945796E+01  0.62512835808E+01  0.51100000000E-03 0.  1.
         12    1    3    3    0    0 -0.52181419410E+01  0.17718859630E+02 -0.35291002955E+02  0.39832673542E+02  0.00000000000E+00 0. -1.
</event>
<event>
 7    1  0.7755875E-012  0.5930193E+02  0.7816164E-02  0.1266605E+00
        -11   -1    0    0    0    0  0.00000000000E+00  0.00000000000E+00  0.45593999997E+02  0.45594000000E+02  0.51100000000E-03 0.  1.
         11   -1    0    0    0    0 -0.00000000000E+00 -0.00000000000E+00 -0.45593999997E+02  0.45594000000E+02  0.51100000000E-03 0. -1.
    9900012    2    1    2    0    0  0.28015857027E+02 -0.14196687929E+02 -0.55033864216E+01  0.59301930076E+02  0.49999974555E+02 0.  0.
         12    1    1    2    0    0 -0.28015857027E+02  0.14196687929E+02  0.55033864216E+01  0.31886069924E+02  0.00000000000E+00 0. -1.
         11    1    3    3    0    0  0.76169878008E+01  0.49906317627E+01 -0.18166839950E+02  0.20321392240E+02  0.51100000000E-03 0. -1.
        -11    1    3    3    0    0  0.19503945927E+02 -0.10969307167E+02 -0.16645613958E+01  0.22438813946E+02  0.51100000000E-03 0.  1.
         12    1    3    3    0    0  0.89492329937E+00 -0.82180125252E+01  0.14328014924E+02  0.16541723890E+02  0.00000000000E+00 0. -1.
</event>
<event>
 7    1  0.7755875E-012  0.5930194E+02  0.7816164E-02  0.1266605E+00
        -11   -1    0    0    0    0  0.00000000000E+00  0.00000000000E+00  0.45593999997E+02  0.45594000000E+02  0.51100000000E-03 0.  1.
         11   -1    0    0    0    0 -0.00000000000E+00 -0.00000000000E+00 -0.45593999997E+02  0.45594000000E+02  0.51100000000E-03 0. -1.
    9900012    2    1    2    0    0  0.13057411863E+02  0.11953015960E+02  0.26520750739E+02  0.59301940117E+02  0.49999992868E+02 0.  0.
         12    1    1    2    0    0 -0.13057411863E+02 -0.11953015960E+02 -0.26520750739E+02  0.31886059883E+02  0.00000000000E+00 0. -1.
         11    1    3    3    0    0  0.98907601349E+01  0.24408824304E+02  0.14171868466E+02  0.29907519055E+02  0.51100000000E-03 0. -1.
        -11    1    3    3    0    0  0.12337860668E+02 -0.86670661004E+01  0.22650534320E+01  0.15247009804E+02  0.51100000000E-03 0.  1.
         12    1    3    3    0    0 -0.91712089400E+01 -0.37887422433E+01  0.10083828841E+02  0.14147411258E+02  0.00000000000E+00 0. -1.
</event>
<event>
 7    1  0.7755875E-012  0.5930194E+02  0.7816164E-02  0.1266605E+00
        -11   -1    0    0    0    0  0.00000000000E+00  0.00000000000E+00  0.45593999997E+02  0.45594000000E+02  0.51100000000E-03 0.  1.
         11   -1    0    0    0    0 -0.00000000000E+00 -0.00000000000E+00 -0.45593999997E+02  0.45594000000E+02  0.51100000000E-03 0. -1.
    9900012    2    1    2    0    0  0.31351021405E+02  0.42192805700E+01  0.40040071067E+01  0.59301938083E+02  0.49999989158E+02 0.  0.
         12    1    1    2    0    0 -0.31351021405E+02 -0.42192805700E+01 -0.40040071067E+01  0.31886061917E+02  0.00000000000E+00 0. -1.
         11    1    3    3    0    0  0.18081576694E+02  0.12478215432E+02  0.18133388961E+02  0.28486296207E+02  0.51100000000E-03 0.  1.
        -11    1    3    3    0    0  0.17673903159E+02 -0.12085792336E+02 -0.12340822868E+02  0.24712934641E+02  0.51100000000E-03 0. -1.
         12    1    3    3    0    0 -0.44044584480E+01  0.38268574739E+01 -0.17885589872E+01  0.61027072350E+01  0.00000000000E+00 0. -1.
</event>
<event>
 7    1  0.7755875E-012  0.5930188E+02  0.7816164E-02  0.1266605E+00
        -11   -1    0    0    0    0  0.00000000000E+00  0.00000000000E+00  0.45593999997E+02  0.45594000000E+02  0.51100000000E-03 0. -1.
         11   -1    0    0    0    0 -0.00000000000E+00 -0.00000000000E+00 -0.45593999997E+02  0.45594000000E+02  0.51100000000E-03 0.  1.
    9900012    2    1    2    0    0  0.21511746131E+01 -0.50400656332E+01 -0.31411697472E+02  0.59301881518E+02  0.49999885997E+02 0.  0.
         12    1    1    2    0    0 -0.21511746131E+01  0.50400656332E+01  0.31411697472E+02  0.31886118482E+02  0.00000000000E+00 0. -1.
         11    1    3    3    0    0 -0.29633203135E+01 -0.14148028139E+02 -0.98027512839E+01  0.17465448763E+02  0.51100000000E-03 0. -1.
        -11    1    3    3    0    0 -0.87494321832E+00  0.14466805515E+02  0.39679363937E+01  0.15026593324E+02  0.51100000000E-03 0.  1.
        -12    1    3    3    0    0  0.59894381450E+01 -0.53588430098E+01 -0.25576882582E+02  0.26809839431E+02  0.00000000000E+00 0.  1.
</event>
<event>
 7    1  0.7755875E-012  0.5930194E+02  0.7816164E-02  0.1266605E+00
        -11   -1    0    0    0    0  0.00000000000E+00  0.00000000000E+00  0.45593999997E+02  0.45594000000E+02  0.51100000000E-03 0. -1.
         11   -1    0    0    0    0 -0.00000000000E+00 -0.00000000000E+00 -0.45593999997E+02  0.45594000000E+02  0.51100000000E-03 0.  1.
    9900012    2    1    2    0    0 -0.62057824719E+01  0.25644425048E+02 -0.17904543641E+02  0.59301937918E+02  0.49999988857E+02 0.  0.
         12    1    1    2    0    0  0.62057824719E+01 -0.25644425048E+02  0.17904543641E+02  0.31886062082E+02  0.00000000000E+00 0. -1.
         11    1    3    3    0    0  0.42300715257E+01 -0.10137977029E+02 -0.93740351690E+01  0.14441074024E+02  0.51100000000E-03 0. -1.
        -11    1    3    3    0    0  0.36386363311E+01  0.23677818715E+02 -0.10572724491E+02  0.26185134654E+02  0.51100000000E-03 0.  1.
         12    1    3    3    0    0 -0.14074490329E+02  0.12104583362E+02  0.20422160188E+01  0.18675729240E+02  0.00000000000E+00 0. -1.
</event>
<event>
 7    1  0.7755875E-012  0.5930195E+02  0.7816164E-02  0.1266605E+00
        -11   -1    0    0    0    0  0.00000000000E+00  0.00000000000E+00  0.45593999997E+02  0.45594000000E+02  0.51100000000E-03 0.  1.
         11   -1    0    0    0    0 -0.00000000000E+00 -0.00000000000E+00 -0.45593999997E+02  0.45594000000E+02  0.51100000000E-03 0. -1.
    9900012    2    1    2    0    0 -0.24041179698E+02  0.20637675509E+02 -0.35816632546E+01  0.59301948451E+02  0.50000008067E+02 0.  0.
         12    1    1    2    0    0  0.24041179698E+02 -0.20637675509E+02  0.35816632546E+01  0.31886051549E+02  0.00000000000E+00 0. -1.
         11    1    3    3    0    0 -0.25861611143E+01 -0.14485120378E+01 -0.37300279000E+01  0.47644018332E+01  0.51100000000E-03 0. -1.
        -11    1    3    3    0    0  0.11598814392E+02  0.14315925010E+02  0.73335771763E+01  0.19830773022E+02  0.51100000000E-03 0.  1.
        -12    1    3    3    0    0 -0.33053832976E+02  0.77702625374E+01 -0.71852125310E+01  0.34706773596E+02  0.00000000000E+00 0.  1.
</event>
<event>
 7    1  0.7755875E-012  0.5930195E+02  0.7816164E-02  0.1266605E+00
        -11   -1    0    0    0    0  0.00000000000E+00  0.00000000000E+00  0.45593999997E+02  0.45594000000E+02  0.51100000000E-03 0.  1.
         11   -1    0    0    0    0 -0.00000000000E+00 -0.00000000000E+00 -0.45593999997E+02  0.45594000000E+02  0.51100000000E-03 0. -1.
    9900012    2    1    2    0    0 -0.27288320304E+02 -0.37485922876E+01  0.16062865880E+02  0.59301952433E+02  0.50000015330E+02 0.  0.
         12    1    1    2    0    0  0.27288320304E+02  0.37485922876E+01 -0.16062865880E+02  0.31886047567E+02  0.00000000000E+00 0. -1.
         11    1    3    3    0    0 -0.12781203082E+02  0.11390431831E+02 -0.76369708067E+01  0.18746317315E+02  0.51100000000E-03 0. -1.
        -11    1    3    3    0    0  0.38836883268E+01 -0.70604928843E+01  0.17928321344E+02  0.19655999116E+02  0.51100000000E-03 0.  1.
        -12    1    3    3    0    0 -0.18390805549E+02 -0.80785312347E+01  0.57715153423E+01  0.20899636002E+02  0.00000000000E+00 0.  1.
</event>
<event>
 7    1  0.7755875E-012  0.5930193E+02  0.7816164E-02  0.1266605E+00
        -11   -1    0    0    0    0  0.00000000000E+00  0.00000000000E+00  0.45593999997E+02  0.45594000000E+02  0.51100000000E-03 0.  1.
         11   -1    0    0    0    0 -0.00000000000E+00 -0.00000000000E+00 -0.45593999997E+02  0.45594000000E+02  0.51100000000E-03 0. -1.
    9900012    2    1    2    0    0  0.12431076899E+02 -0.88535791356E+01  0.27996501387E+02  0.59301927393E+02  0.49999969662E+02 0.  0.
         12    1    1    2    0    0 -0.12431076899E+02  0.88535791356E+01 -0.27996501387E+02  0.31886072607E+02  0.00000000000E+00 0. -1.
         11    1    3    3    0    0 -0.65911352970E+01  0.13092044789E+02  0.26194395499E+02  0.30016513073E+02  0.51100000000E-03 0. -1.
        -11    1    3    3    0    0  0.63791661036E+01 -0.93943428292E+01 -0.20621001513E+00  0.11357374705E+02  0.51100000000E-03 0.  1.
         12    1    3    3    0    0  0.12643046093E+02 -0.12551281095E+02  0.20083159033E+01  0.17928039614E+02  0.00000000000E+00 0. -1.
</event>
<event>
 7    1  0.7899622E-012  0.5930196E+02  0.7816164E-02  0.1266605E+00
        -11   -1    0    0    0    0  0.00000000000E+00  0.00000000000E+00  0.45593999997E+02  0.45594000000E+02  0.51100000000E-03 0.  1.
         11   -1    0    0    0    0 -0.00000000000E+00 -0.00000000000E+00 -0.45593999997E+02  0.45594000000E+02  0.51100000000E-03 0. -1.
    9900012    2    1    2    0    0  0.26480323227E+02  0.55415592211E+00  0.17754018117E+02  0.59301956560E+02  0.50000022855E+02 0.  0.
         12    1    1    2    0    0 -0.26480323227E+02 -0.55415592211E+00 -0.17754018117E+02  0.31886043440E+02  0.00000000000E+00 0. -1.
         11    1    3    3    0    0 -0.35330905894E+01 -0.86710650734E+01 -0.57192952395E+01  0.10971801899E+02  0.51100000000E-03 0. -1.
        -11    1    3    3    0    0  0.13703374420E+02  0.17335359984E+02  0.19963716783E+02  0.29779979253E+02  0.51100000000E-03 0.  1.
        -12    1    3    3    0    0  0.16310039396E+02 -0.81101389886E+01  0.35095965735E+01  0.18550175407E+02  0.00000000000E+00 0.  1.
</event>
<event>
 7    1  0.7755875E-012  0.5930195E+02  0.7816164E-02  0.1266605E+00
        -11   -1    0    0    0    0  0.00000000000E+00  0.00000000000E+00  0.45593999997E+02  0.45594000000E+02  0.51100000000E-03 0.  1.
         11   -1    0    0    0    0 -0.00000000000E+00 -0.00000000000E+00 -0.45593999997E+02  0.45594000000E+02  0.51100000000E-03 0. -1.
    9900012    2    1    2    0    0  0.15242789092E+00  0.25922833709E+02 -0.18566196973E+02  0.59301949574E+02  0.50000010115E+02 0.  0.
         12    1    1    2    0    0 -0.15242789092E+00 -0.25922833709E+02  0.18566196973E+02  0.31886050426E+02  0.00000000000E+00 0. -1.
         11    1    3    3    0    0 -0.75196579069E+01  0.32077373989E+01 -0.65934498502E+01  0.10502781320E+02  0.51100000000E-03 0. -1.
        -11    1    3    3    0    0  0.15608784557E+00  0.21798743522E+02  0.11137870078E+02  0.24479822971E+02  0.51100000000E-03 0.  1.
        -12    1    3    3    0    0  0.75159979523E+01  0.91635278838E+00 -0.23110617200E+02  0.24319345284E+02  0.00000000000E+00 0.  1.
</event>
<event>
 7    1  0.7755875E-012  0.5930196E+02  0.7816164E-02  0.1266605E+00
        -11   -1    0    0    0    0  0.00000000000E+00  0.00000000000E+00  0.45593999997E+02  0.45594000000E+02  0.51100000000E-03 0. -1.
         11   -1    0    0    0    0 -0.00000000000E+00 -0.00000000000E+00 -0.45593999997E+02  0.45594000000E+02  0.51100000000E-03 0.  1.
    9900012    2    1    2    0    0  0.15710995445E+01 -0.28303948819E+02 -0.14599236337E+02  0.59301959572E+02  0.50000028350E+02 0.  0.
         12    1    1    2    0    0 -0.15710995445E+01  0.28303948819E+02  0.14599236337E+02  0.31886040428E+02  0.00000000000E+00 0. -1.
         11    1    3    3    0    0 -0.70820164441E+01  0.20197843475E+01 -0.27706133486E+01  0.78683406328E+01  0.51100000000E-03 0. -1.
        -11    1    3    3    0    0  0.23450075073E+02 -0.16283770679E+02 -0.12164803831E+02  0.31033041439E+02  0.51100000000E-03 0.  1.
        -12    1    3    3    0    0 -0.14796959085E+02 -0.14039962487E+02  0.33618084273E+00  0.20400577500E+02  0.00000000000E+00 0.  1.
</event>
<event>
 7    1  0.7755875E-012  0.5930194E+02  0.7816164E-02  0.1266605E+00
        -11   -1    0    0    0    0  0.00000000000E+00  0.00000000000E+00  0.45593999997E+02  0.45594000000E+02  0.51100000000E-03 0.  1.
         11   -1    0    0    0    0 -0.00000000000E+00 -0.00000000000E+00 -0.45593999997E+02  0.45594000000E+02  0.51100000000E-03 0. -1.
    9900012    2    1    2    0    0 -0.23982092353E+01 -0.29351733161E+02  0.12224787570E+02  0.59301935987E+02  0.49999985336E+02 0.  0.
         12    1    1    2    0    0  0.23982092353E+01  0.29351733161E+02 -0.12224787570E+02  0.31886064013E+02  0.00000000000E+00 0. -1.
         11    1    3    3    0    0  0.25972634061E+01  0.74285460928E+01 -0.20049143349E+01  0.81208839423E+01  0.51100000000E-03 0. -1.
        -11    1    3    3    0    0  0.43836162932E+01 -0.34277904923E+02  0.74410061227E+00  0.34565076938E+02  0.51100000000E-03 0.  1.
        -12    1    3    3    0    0 -0.93790889345E+01 -0.25023743300E+01  0.13485601293E+02  0.16615975107E+02  0.00000000000E+00 0.  1.
</event>
<event>
 7    1  0.7755875E-012  0.5930194E+02  0.7816164E-02  0.1266605E+00
        -11   -1    0    0    0    0  0.00000000000E+00  0.00000000000E+00  0.45593999997E+02  0.45594000000E+02  0.51100000000E-03 0. -1.
         11   -1    0    0    0    0 -0.00000000000E+00 -0.00000000000E+00 -0.45593999997E+02  0.45594000000E+02  0.51100000000E-03 0.  1.
    9900012    2    1    2    0    0  0.13939441837E+02  0.58757928766E+01 -0.28069335782E+02  0.59301943613E+02  0.49999999244E+02 0.  0.
         12    1    1    2    0    0 -0.13939441837E+02 -0.58757928766E+01  0.28069335782E+02  0.31886056387E+02  0.00000000000E+00 0. -1.
         11    1    3    3    0    0  0.22392606824E+02  0.89719075145E+01  0.36523301680E+01  0.24398022066E+02  0.51100000000E-03 0.  1.
        -11    1    3    3    0    0 -0.13534786161E+01 -0.62027894803E+01 -0.10039927913E+02  0.11878832201E+02  0.51100000000E-03 0. -1.
         12    1    3    3    0    0 -0.70996863703E+01  0.31066748424E+01 -0.21681738036E+02  0.23025089346E+02  0.00000000000E+00 0. -1.
</event>
<event>
 7    1  0.7755875E-012  0.5930195E+02  0.7816164E-02  0.1266605E+00
        -11   -1    0    0    0    0  0.00000000000E+00  0.00000000000E+00  0.45593999997E+02  0.45594000000E+02  0.51100000000E-03 0. -1.
         11   -1    0    0    0    0 -0.00000000000E+00 -0.00000000000E+00 -0.45593999997E+02  0.45594000000E+02  0.51100000000E-03 0.  1.
    9900012    2    1    2    0    0  0.10191721433E+02  0.23182967204E+02 -0.19375223089E+02  0.59301946248E+02  0.50000004049E+02 0.  0.
         12    1    1    2    0    0 -0.10191721433E+02 -0.23182967204E+02  0.19375223089E+02  0.31886053752E+02  0.00000000000E+00 0. -1.
         11    1    3    3    0    0  0.13000484920E+02  0.77021926959E+01  0.73190735308E+01  0.16790033296E+02  0.51100000000E-03 0. -1.
        -11    1    3    3    0    0  0.99886959235E+01  0.78347135572E+01 -0.24295965401E+02  0.27412601442E+02  0.51100000000E-03 0.  1.
        -12    1    3    3    0    0 -0.12797459411E+02  0.76460609511E+01 -0.23983312188E+01  0.15099311510E+02  0.00000000000E+00 0.  1.
</event>
<event>
 7    1  0.7755875E-012  0.5930192E+02  0.7816164E-02  0.1266605E+00
        -11   -1    0    0    0    0  0.00000000000E+00  0.00000000000E+00  0.45593999997E+02  0.45594000000E+02  0.51100000000E-03 0.  1.
         11   -1    0    0    0    0 -0.00000000000E+00 -0.00000000000E+00 -0.45593999997E+02  0.45594000000E+02  0.51100000000E-03 0. -1.
    9900012    2    1    2    0    0  0.18561246465E+02 -0.41206393671E+01  0.25597310777E+02  0.59301923757E+02  0.49999963031E+02 0.  0.
         12    1    1    2    0    0 -0.18561246465E+02  0.41206393671E+01 -0.25597310777E+02  0.31886076243E+02  0.00000000000E+00 0. -1.
         11    1    3    3    0    0 -0.56737890839E+01  0.11799646206E+02  0.39238998056E+01  0.13668230431E+02  0.51100000000E-03 0. -1.
        -11    1    3    3    0    0  0.23457393186E+02 -0.59266957115E+01  0.29208107661E+01  0.24370189842E+02  0.51100000000E-03 0.  1.
        -12    1    3    3    0    0  0.77764236311E+00 -0.99935898617E+01  0.18752600206E+02  0.21263503485E+02  0.00000000000E+00 0.  1.
</event>
<event>
 7    1  0.7755875E-012  0.5930202E+02  0.7816164E-02  0.1266605E+00
        -11   -1    0    0    0    0  0.00000000000E+00  0.00000000000E+00  0.45593999997E+02  0.45594000000E+02  0.51100000000E-03 0.  1.
         11   -1    0    0    0    0 -0.00000000000E+00 -0.00000000000E+00 -0.45593999997E+02  0.45594000000E+02  0.51100000000E-03 0. -1.
    9900012    2    1    2    0    0  0.12456001834E+02  0.16826906711E+02  0.24050347791E+02  0.59302015618E+02  0.50000130564E+02 0.  0.
         12    1    1    2    0    0 -0.12456001834E+02 -0.16826906711E+02 -0.24050347791E+02  0.31885984382E+02  0.00000000000E+00 0. -1.
         11    1    3    3    0    0  0.28016966930E+02  0.12220073439E+02  0.22646720426E+02  0.38041484949E+02  0.51100000000E-03 0.  1.
        -11    1    3    3    0    0 -0.10796606368E+02  0.95015712181E+01  0.10636811153E+01  0.14421441761E+02  0.51100000000E-03 0. -1.
        -12    1    3    3    0    0 -0.47643587284E+01 -0.48947379459E+01  0.33994624981E+00  0.68390889090E+01  0.00000000000E+00 0.  1.
</event>
<event>
 7    1  0.7755875E-012  0.5930194E+02  0.7816164E-02  0.1266605E+00
        -11   -1    0    0    0    0  0.00000000000E+00  0.00000000000E+00  0.45593999997E+02  0.45594000000E+02  0.51100000000E-03 0. -1.
         11   -1    0    0    0    0 -0.00000000000E+00 -0.00000000000E+00 -0.45593999997E+02  0.45594000000E+02  0.51100000000E-03 0.  1.
    9900012    2    1    2    0    0  0.14171810606E+02 -0.79001339877E+00 -0.28552699604E+02  0.59301937345E+02  0.49999987811E+02 0.  0.
         12    1    1    2    0    0 -0.14171810606E+02  0.79001339877E+00  0.28552699604E+02  0.31886062655E+02  0.00000000000E+00 0. -1.
         11    1    3    3    0    0  0.20963461226E+01 -0.66091926860E+01 -0.24732738595E+01  0.73616016512E+01  0.51100000000E-03 0. -1.
        -11    1    3    3    0    0  0.65418529876E+01  0.24090270127E+02 -0.96829509328E+01  0.26774922863E+02  0.51100000000E-03 0.  1.
        -12    1    3    3    0    0  0.55336114954E+01 -0.18271090840E+02 -0.16396474811E+02  0.25165412830E+02  0.00000000000E+00 0.  1.
</event>
<event>
 7    1  0.7755875E-012  0.5930224E+02  0.7816164E-02  0.1266604E+00
        -11   -1    0    0    0    0  0.00000000000E+00  0.00000000000E+00  0.45593999997E+02  0.45594000000E+02  0.51100000000E-03 0. -1.
         11   -1    0    0    0    0 -0.00000000000E+00 -0.00000000000E+00 -0.45593999997E+02  0.45594000000E+02  0.51100000000E-03 0.  1.
    9900012    2    1    2    0    0  0.62035255984E+01  0.22160181353E+02 -0.22071345966E+02  0.59302240166E+02  0.50000540082E+02 0.  0.
         12    1    1    2    0    0 -0.62035255984E+01 -0.22160181353E+02  0.22071345966E+02  0.31885759834E+02  0.00000000000E+00 0. -1.
         11    1    3    3    0    0 -0.11380947812E+02  0.15948906395E+01 -0.11793642396E+02  0.16466925957E+02  0.51100000000E-03 0. -1.
        -11    1    3    3    0    0  0.33386042479E+01 -0.59902122635E+01  0.55262761494E+01  0.88073066046E+01  0.51100000000E-03 0.  1.
        -12    1    3    3    0    0  0.14245869162E+02  0.26555502977E+02 -0.15803979719E+02  0.34028007604E+02  0.00000000000E+00 0.  1.
</event>
<event>
 7    1  0.7755875E-012  0.5930194E+02  0.7816164E-02  0.1266605E+00
        -11   -1    0    0    0    0  0.00000000000E+00  0.00000000000E+00  0.45593999997E+02  0.45594000000E+02  0.51100000000E-03 0.  1.
         11   -1    0    0    0    0 -0.00000000000E+00 -0.00000000000E+00 -0.45593999997E+02  0.45594000000E+02  0.51100000000E-03 0. -1.
    9900012    2    1    2    0    0 -0.27423623683E+02 -0.26253542206E+01  0.16055313713E+02  0.59301941619E+02  0.49999995606E+02 0.  0.
         12    1    1    2    0    0  0.27423623683E+02  0.26253542206E+01 -0.16055313713E+02  0.31886058381E+02  0.00000000000E+00 0. -1.
         11    1    3    3    0    0 -0.66434626064E+01 -0.13288115247E+02  0.24744510117E+01  0.15060959806E+02  0.51100000000E-03 0. -1.
        -11    1    3    3    0    0 -0.13157869620E+01  0.20310238737E+02  0.73759894502E+01  0.21648148039E+02  0.51100000000E-03 0.  1.
         12    1    3    3    0    0 -0.19464374114E+02 -0.96474777113E+01  0.62048732510E+01  0.22592833774E+02  0.00000000000E+00 0. -1.
</event>
<event>
 7    1  0.7755875E-012  0.5930201E+02  0.7816164E-02  0.1266605E+00
        -11   -1    0    0    0    0  0.00000000000E+00  0.00000000000E+00  0.45593999997E+02  0.45594000000E+02  0.51100000000E-03 0. -1.
         11   -1    0    0    0    0 -0.00000000000E+00 -0.00000000000E+00 -0.45593999997E+02  0.45594000000E+02  0.51100000000E-03 0.  1.
    9900012    2    1    2    0    0 -0.28966048599E+02  0.13191157582E+02  0.19178140196E+01  0.59302005890E+02  0.50000112821E+02 0.  0.
         12    1    1    2    0    0  0.28966048599E+02 -0.13191157582E+02 -0.19178140196E+01  0.31885994110E+02  0.00000000000E+00 0. -1.
         11    1    3    3    0    0  0.68090327974E+01 -0.26417349793E+01  0.95854891695E+01  0.12050862800E+02  0.51100000000E-03 0. -1.
        -11    1    3    3    0    0 -0.24862636593E+02  0.16755776694E+02 -0.15534328199E+02  0.33767174946E+02  0.51100000000E-03 0.  1.
        -12    1    3    3    0    0 -0.10912444804E+02 -0.92288413248E+00  0.78666530495E+01  0.13483968144E+02  0.00000000000E+00 0.  1.
</event>
<event>
 7    1  0.7755875E-012  0.5930195E+02  0.7816164E-02  0.1266605E+00
        -11   -1    0    0    0    0  0.00000000000E+00  0.00000000000E+00  0.45593999997E+02  0.45594000000E+02  0.51100000000E-03 0.  1.
         11   -1    0    0    0    0 -0.00000000000E+00 -0.00000000000E+00 -0.45593999997E+02  0.45594000000E+02  0.51100000000E-03 0. -1.
    9900012    2    1    2    0    0 -0.17670178893E+02  0.17546707835E+02  0.19914772749E+02  0.59301947381E+02  0.50000006116E+02 0.  0.
         12    1    1    2    0    0  0.17670178893E+02 -0.17546707835E+02 -0.19914772749E+02  0.31886052619E+02  0.00000000000E+00 0. -1.
         11    1    3    3    0    0 -0.21016131757E+02  0.10141648637E+02  0.16684353906E+02  0.28686207428E+02  0.51100000000E-03 0. -1.
        -11    1    3    3    0    0  0.74869697292E+01 -0.69336282314E+01  0.99460975603E+01  0.14249728879E+02  0.51100000000E-03 0.  1.
         12    1    3    3    0    0 -0.41410168659E+01  0.14338687429E+02 -0.67156787166E+01  0.16366011074E+02  0.00000000000E+00 0. -1.
</event>
<event>
 7    1  0.7755875E-012  0.5930214E+02  0.7816164E-02  0.1266604E+00
        -11   -1    0    0    0    0  0.00000000000E+00  0.00000000000E+00  0.45593999997E+02  0.45594000000E+02  0.51100000000E-03 0.  1.
         11   -1    0    0    0    0 -0.00000000000E+00 -0.00000000000E+00 -0.45593999997E+02  0.45594000000E+02  0.51100000000E-03 0. -1.
    9900012    2    1    2    0    0 -0.13597169791E+02  0.15855438609E+02  0.24092123113E+02  0.59302135484E+02  0.50000349169E+02 0.  0.
         12    1    1    2    0    0  0.13597169791E+02 -0.15855438609E+02 -0.24092123113E+02  0.31885864516E+02  0.00000000000E+00 0. -1.
         11    1    3    3    0    0 -0.34915834009E+01  0.13955408353E+02 -0.41222816830E+01  0.14964550895E+02  0.51100000000E-03 0. -1.
        -11    1    3    3    0    0  0.11625611575E+02 -0.15926848594E+00  0.14388222700E+02  0.18498680052E+02  0.51100000000E-03 0.  1.
        -12    1    3    3    0    0 -0.21731197965E+02  0.20592987420E+01  0.13826182097E+02  0.25838904537E+02  0.00000000000E+00 0.  1.
</event>
<event>
 7    1  0.7755875E-012  0.5930198E+02  0.7816164E-02  0.1266605E+00
        -11   -1    0    0    0    0  0.00000000000E+00  0.00000000000E+00  0.45593999997E+02  0.45594000000E+02  0.51100000000E-03 0. -1.
         11   -1    0    0    0    0 -0.00000000000E+00 -0.00000000000E+00 -0.45593999997E+02  0.45594000000E+02  0.51100000000E-03 0.  1.
    9900012    2    1    2    0    0 -0.23851921753E+02  0.15528667131E+02 -0.14375830125E+02  0.59301981654E+02  0.50000068622E+02 0.  0.
         12    1    1    2    0    0  0.23851921753E+02 -0.15528667131E+02  0.14375830125E+02  0.31886018346E+02  0.00000000000E+00 0. -1.
         11    1    3    3    0    0  0.46835909368E+01 -0.17059726458E+01  0.12183378802E+00  0.49861017303E+01  0.51100000000E-03 0. -1.
        -11    1    3    3    0    0 -0.11077985877E+02  0.27123940754E+02  0.43944261785E+00  0.29302270273E+02  0.51100000000E-03 0.  1.
        -12    1    3    3    0    0 -0.17457526813E+02 -0.98893009774E+01 -0.14937106531E+02  0.25013609651E+02  0.00000000000E+00 0.  1.
</event>
<event>
 7    1  0.7755875E-012  0.5930196E+02  0.7816164E-02  0.1266605E+00
        -11   -1    0    0    0    0  0.00000000000E+00  0.00000000000E+00  0.45593999997E+02  0.45594000000E+02  0.51100000000E-03 0.  1.
         11   -1    0    0    0    0 -0.00000000000E+00 -0.00000000000E+00 -0.45593999997E+02  0.45594000000E+02  0.51100000000E-03 0. -1.
    9900012    2    1    2    0    0 -0.27722212693E+02  0.39092684560E+01  0.15261590948E+02  0.59301958936E+02  0.50000027190E+02 0.  0.
         12    1    1    2    0    0  0.27722212693E+02 -0.39092684560E+01 -0.15261590948E+02  0.31886041064E+02  0.00000000000E+00 0. -1.
         11    1    3    3    0    0 -0.14263169619E+02 -0.75258207137E+01 -0.12122413727E+02  0.20174957245E+02  0.51100000000E-03 0. -1.
        -11    1    3    3    0    0 -0.70876725828E+01 -0.84140100092E+00  0.23788172255E+02  0.24835865150E+02  0.51100000000E-03 0.  1.
        -12    1    3    3    0    0 -0.63713704916E+01  0.12276490171E+02  0.35958324205E+01  0.14291136541E+02  0.00000000000E+00 0.  1.
</event>
<event>
 7    1  0.7755875E-012  0.5930194E+02  0.7816164E-02  0.1266605E+00
        -11   -1    0    0    0    0  0.00000000000E+00  0.00000000000E+00  0.45593999997E+02  0.45594000000E+02  0.51100000000E-03 0.  1.
         11   -1    0    0    0    0 -0.00000000000E+00 -0.00000000000E+00 -0.45593999997E+02  0.45594000000E+02  0.51100000000E-03 0. -1.
    9900012    2    1    2    0    0  0.23643384869E+01 -0.18089062314E+02  0.26151796136E+02  0.59301941714E+02  0.49999995780E+02 0.  0.
         12    1    1    2    0    0 -0.23643384869E+01  0.18089062314E+02 -0.26151796136E+02  0.31886058286E+02  0.00000000000E+00 0. -1.
         11    1    3    3    0    0 -0.18209381820E+00  0.10129237245E+02  0.82954013093E+01  0.13093826349E+02  0.51100000000E-03 0. -1.
        -11    1    3    3    0    0  0.16652339887E+02 -0.19704922258E+02  0.13723086511E+02  0.29221695512E+02  0.51100000000E-03 0.  1.
        -12    1    3    3    0    0 -0.14105907582E+02 -0.85133773010E+01  0.41333083153E+01  0.16986419853E+02  0.00000000000E+00 0.  1.
</event>
<event>
 7    1  0.7755875E-012  0.5930199E+02  0.7816164E-02  0.1266605E+00
        -11   -1    0    0    0    0  0.00000000000E+00  0.00000000000E+00  0.45593999997E+02  0.45594000000E+02  0.51100000000E-03 0. -1.
         11   -1    0    0    0    0 -0.00000000000E+00 -0.00000000000E+00 -0.45593999997E+02  0.45594000000E+02  0.51100000000E-03 0.  1.
    9900012    2    1    2    0    0 -0.22557658258E+02 -0.18198708107E+02 -0.13291979543E+02  0.59301989854E+02  0.50000083576E+02 0.  0.
         12    1    1    2    0    0  0.22557658258E+02  0.18198708107E+02  0.13291979543E+02  0.31886010146E+02  0.00000000000E+00 0. -1.
         11    1    3    3    0    0 -0.64392837686E+01 -0.13575982466E+02  0.18105859844E+01  0.15134394512E+02  0.51100000000E-03 0. -1.
        -11    1    3    3    0    0 -0.12695582473E+02 -0.14808817543E+02 -0.23492209908E+02  0.30534616716E+02  0.51100000000E-03 0.  1.
        -12    1    3    3    0    0 -0.34227920160E+01  0.10186091902E+02  0.83896443800E+01  0.13632978627E+02  0.00000000000E+00 0.  1.
</event>
<event>
 7    1  0.7755875E-012  0.5930196E+02  0.7816164E-02  0.1266605E+00
        -11   -1    0    0    0    0  0.00000000000E+00  0.00000000000E+00  0.45593999997E+02  0.45594000000E+02  0.51100000000E-03 0.  1.
         11   -1    0    0    0    0 -0.00000000000E+00 -0.00000000000E+00 -0.45593999997E+02  0.45594000000E+02  0.51100000000E-03 0. -1.
    9900012    2    1    2    0    0 -0.15088349167E+02  0.27762464079E+02  0.42786657682E+01  0.59301958021E+02  0.50000025520E+02 0.  0.
         12    1    1    2    0    0  0.15088349167E+02 -0.27762464079E+02 -0.42786657682E+01  0.31886041979E+02  0.00000000000E+00 0. -1.
         11    1    3    3    0    0 -0.66972727267E+01 -0.93144759969E+01 -0.88484433048E+01  0.14488197757E+02  0.51100000000E-03 0. -1.
        -11    1    3    3    0    0 -0.14063999331E+02  0.32598478995E+02  0.12128710625E+02  0.37517496341E+02  0.51100000000E-03 0.  1.
         12    1    3    3    0    0  0.56729228902E+01  0.44784610809E+01  0.99839844813E+00  0.72962639229E+01  0.00000000000E+00 0. -1.
</event>
<event>
 7    1  0.7755875E-012  0.5930194E+02  0.7816164E-02  0.1266605E+00
        -11   -1    0    0    0    0  0.00000000000E+00  0.00000000000E+00  0.45593999997E+02  0.45594000000E+02  0.51100000000E-03 0. -1.
         11   -1    0    0    0    0 -0.00000000000E+00 -0.00000000000E+00 -0.45593999997E+02  0.45594000000E+02  0.51100000000E-03 0.  1.
    9900012    2    1    2    0    0  0.80198486641E+01  0.28523744280E+02  0.11781288564E+02  0.59301941595E+02  0.49999995564E+02 0.  0.
         12    1    1    2    0    0 -0.80198486641E+01 -0.28523744280E+02 -0.11781288564E+02  0.31886058405E+02  0.00000000000E+00 0. -1.
         11    1    3    3    0    0 -0.12293462681E+02  0.11260416726E+02  0.10679220556E+02  0.19798281781E+02  0.51100000000E-03 0. -1.
        -11    1    3    3    0    0  0.21209693138E+02  0.11012603387E+01 -0.56312847388E+01  0.21972146582E+02  0.51100000000E-03 0.  1.
        -12    1    3    3    0    0 -0.89638179272E+00  0.16162067215E+02  0.67333527470E+01  0.17531513232E+02  0.00000000000E+00 0.  1.
</event>
<event>
 7    1  0.7755875E-012  0.5930192E+02  0.7816164E-02  0.1266605E+00
        -11   -1    0    0    0    0  0.00000000000E+00  0.00000000000E+00  0.45593999997E+02  0.45594000000E+02  0.51100000000E-03 0. -1.
         11   -1    0    0    0    0 -0.00000000000E+00 -0.00000000000E+00 -0.45593999997E+02  0.45594000000E+02  0.51100000000E-03 0.  1.
    9900012    2    1    2    0    0 -0.18180215368E+02  0.48109938039E+01 -0.25749872362E+02  0.59301924373E+02  0.49999964155E+02 0.  0.
         12    1    1    2    0    0  0.18180215368E+02 -0.48109938039E+01  0.25749872362E+02  0.31886075627E+02  0.00000000000E+00 0. -1.
         11    1    3    3    0    0  0.46338424477E+01  0.21831715967E+01 -0.18607781874E+01  0.54498834643E+01  0.51100000000E-03 0. -1.
        -11    1    3    3    0    0 -0.27171841742E+02  0.14709699388E+02 -0.26547097117E+02  0.40736133902E+02  0.51100000000E-03 0.  1.
        -12    1    3    3    0    0  0.43577839260E+01 -0.12081877181E+02  0.26580029418E+01  0.13115907006E+02  0.00000000000E+00 0.  1.
</event>
<event>
 7    1  0.7755875E-012  0.5930192E+02  0.7816164E-02  0.1266605E+00
        -11   -1    0    0    0    0  0.00000000000E+00  0.00000000000E+00  0.45593999997E+02  0.45594000000E+02  0.51100000000E-03 0.  1.
         11   -1    0    0    0    0 -0.00000000000E+00 -0.00000000000E+00 -0.45593999997E+02  0.45594000000E+02  0.51100000000E-03 0. -1.
    9900012    2    1    2    0    0 -0.29542999506E+02 -0.36166109988E+01  0.11439111607E+02  0.59301922014E+02  0.49999959853E+02 0.  0.
         12    1    1    2    0    0  0.29542999506E+02  0.36166109988E+01 -0.11439111607E+02  0.31886077986E+02  0.00000000000E+00 0. -1.
         11    1    3    3    0    0  0.91631293934E+01 -0.40125390791E+01 -0.61226278333E+01  0.11728170445E+02  0.51100000000E-03 0. -1.
        -11    1    3    3    0    0 -0.39149061640E+02  0.26341048281E+01  0.11184260368E+02  0.40800431564E+02  0.51100000000E-03 0.  1.
        -12    1    3    3    0    0  0.44293274054E+00 -0.22381767479E+01  0.63774790730E+01  0.67733200053E+01  0.00000000000E+00 0.  1.
</event>
<event>
 7    1  0.7755875E-012  0.5930213E+02  0.7816164E-02  0.1266604E+00
        -11   -1    0    0    0    0  0.00000000000E+00  0.00000000000E+00  0.45593999997E+02  0.45594000000E+02  0.51100000000E-03 0.  1.
         11   -1    0    0    0    0 -0.00000000000E+00 -0.00000000000E+00 -0.45593999997E+02  0.45594000000E+02  0.51100000000E-03 0. -1.
    9900012    2    1    2    0    0 -0.25200160165E+02  0.19377262983E+02 -0.24864868248E+01  0.59302125231E+02  0.50000330471E+02 0.  0.
         12    1    1    2    0    0  0.25200160165E+02 -0.19377262983E+02  0.24864868248E+01  0.31885874769E+02  0.00000000000E+00 0. -1.
         11    1    3    3    0    0  0.11994785567E+02 -0.28206734823E+01  0.45792768674E+00  0.12330481650E+02  0.51100000000E-03 0. -1.
        -11    1    3    3    0    0 -0.39127493121E+02  0.21276881034E+02 -0.37228626887E+01  0.44693691852E+02  0.51100000000E-03 0.  1.
        -12    1    3    3    0    0  0.19325473897E+01  0.92105543120E+00  0.77844817712E+00  0.22779517302E+01  0.00000000000E+00 0.  1.
</event>
<event>
 7    1  0.7755875E-012  0.5930194E+02  0.7816164E-02  0.1266605E+00
        -11   -1    0    0    0    0  0.00000000000E+00  0.00000000000E+00  0.45593999997E+02  0.45594000000E+02  0.51100000000E-03 0.  1.
         11   -1    0    0    0    0 -0.00000000000E+00 -0.00000000000E+00 -0.45593999997E+02  0.45594000000E+02  0.51100000000E-03 0. -1.
    9900012    2    1    2    0    0  0.21626462214E+02 -0.14361177212E+02  0.18514139047E+02  0.59301943119E+02  0.49999998342E+02 0.  0.
         12    1    1    2    0    0 -0.21626462214E+02  0.14361177212E+02 -0.18514139047E+02  0.31886056881E+02  0.00000000000E+00 0. -1.
         11    1    3    3    0    0  0.17016320917E+02 -0.19497185049E+02 -0.81135358728E+00  0.25891189568E+02  0.51100000000E-03 0. -1.
        -11    1    3    3    0    0  0.12659865900E+02  0.87064925346E+01  0.19216748702E+02  0.24604037226E+02  0.51100000000E-03 0.  1.
         12    1    3    3    0    0 -0.80497246034E+01 -0.35704846980E+01  0.10874393184E+00  0.88067163240E+01  0.00000000000E+00 0. -1.
</event>
<event>
 7    1  0.7755875E-012  0.5930195E+02  0.7816164E-02  0.1266605E+00
        -11   -1    0    0    0    0  0.00000000000E+00  0.00000000000E+00  0.45593999997E+02  0.45594000000E+02  0.51100000000E-03 0.  1.
         11   -1    0    0    0    0 -0.00000000000E+00 -0.00000000000E+00 -0.45593999997E+02  0.45594000000E+02  0.51100000000E-03 0. -1.
    9900012    2    1    2    0    0  0.15454694118E+02 -0.22748981405E+02  0.16135561937E+02  0.59301951573E+02  0.50000013761E+02 0.  0.
         12    1    1    2    0    0 -0.15454694118E+02  0.22748981405E+02 -0.16135561937E+02  0.31886048427E+02  0.00000000000E+00 0. -1.
         11    1    3    3    0    0  0.18178228100E+02 -0.35963586596E+02  0.11282958923E+02  0.41846537491E+02  0.51100000000E-03 0. -1.
        -11    1    3    3    0    0 -0.54989373060E+01  0.61278633931E+01  0.53653825793E+01  0.98273267852E+01  0.51100000000E-03 0.  1.
        -12    1    3    3    0    0  0.27754033247E+01  0.70867417976E+01 -0.51277956501E+00  0.76280872965E+01  0.00000000000E+00 0.  1.
</event>
<event>
 7    1  0.7755875E-012  0.5930186E+02  0.7816164E-02  0.1266605E+00
        -11   -1    0    0    0    0  0.00000000000E+00  0.00000000000E+00  0.45593999997E+02  0.45594000000E+02  0.51100000000E-03 0.  1.
         11   -1    0    0    0    0 -0.00000000000E+00 -0.00000000000E+00 -0.45593999997E+02  0.45594000000E+02  0.51100000000E-03 0. -1.
    9900012    2    1    2    0    0 -0.14752826244E+02  0.22865198289E+02  0.16621153638E+02  0.59301860014E+02  0.49999846778E+02 0.  0.
         12    1    1    2    0    0  0.14752826244E+02 -0.22865198289E+02 -0.16621153638E+02  0.31886139986E+02  0.00000000000E+00 0. -1.
         11    1    3    3    0    0  0.26740436703E+01  0.11271767832E+02 -0.17295630992E+01  0.11713011927E+02  0.51100000000E-03 0. -1.
        -11    1    3    3    0    0 -0.25918167373E+02  0.29118517033E+01  0.22813564672E+02  0.34650959779E+02  0.51100000000E-03 0.  1.
        -12    1    3    3    0    0  0.84912974589E+01  0.86815787531E+01 -0.44628479345E+01  0.12937888308E+02  0.00000000000E+00 0.  1.
</event>
<event>
 7    1  0.7755875E-012  0.5930195E+02  0.7816164E-02  0.1266605E+00
        -11   -1    0    0    0    0  0.00000000000E+00  0.00000000000E+00  0.45593999997E+02  0.45594000000E+02  0.51100000000E-03 0.  1.
         11   -1    0    0    0    0 -0.00000000000E+00 -0.00000000000E+00 -0.45593999997E+02  0.45594000000E+02  0.51100000000E-03 0. -1.
    9900012    2    1    2    0    0 -0.16036072857E+02 -0.24110448614E+02  0.13351050706E+02  0.59301954150E+02  0.50000018460E+02 0.  0.
         12    1    1    2    0    0  0.16036072857E+02  0.24110448614E+02 -0.13351050706E+02  0.31886045850E+02  0.00000000000E+00 0. -1.
         11    1    3    3    0    0  0.11172480758E+02  0.78207807014E+01  0.77715613492E+01  0.15696690834E+02  0.51100000000E-03 0. -1.
        -11    1    3    3    0    0 -0.26906130065E+01 -0.17165977851E+01  0.33554880099E+01  0.46309185214E+01  0.51100000000E-03 0.  1.
         12    1    3    3    0    0 -0.24517940609E+02 -0.30214631530E+02  0.22240013465E+01  0.38974344794E+02  0.00000000000E+00 0. -1.
</event>
<event>
 7    1  0.7755875E-012  0.5930195E+02  0.7816164E-02  0.1266605E+00
        -11   -1    0    0    0    0  0.00000000000E+00  0.00000000000E+00  0.45593999997E+02  0.45594000000E+02  0.51100000000E-03 0. -1.
         11   -1    0    0    0    0 -0.00000000000E+00 -0.00000000000E+00 -0.45593999997E+02  0.45594000000E+02  0.51100000000E-03 0.  1.
    9900012    2    1    2    0    0 -0.19459685496E+02 -0.25057223407E+02 -0.31900184827E+01  0.59301952544E+02  0.50000015532E+02 0.  0.
         12    1    1    2    0    0  0.19459685496E+02  0.25057223407E+02  0.31900184827E+01  0.31886047456E+02  0.00000000000E+00 0. -1.
         11    1    3    3    0    0  0.23187325121E+01  0.12708385260E+02 -0.23642575469E+01  0.13132756389E+02  0.51100000000E-03 0. -1.
        -11    1    3    3    0    0 -0.44712646827E+01 -0.39491453668E+01  0.49408538430E+01  0.77459663019E+01  0.51100000000E-03 0.  1.
         12    1    3    3    0    0 -0.17307153325E+02 -0.33816463300E+02 -0.57666147788E+01  0.38423229853E+02  0.00000000000E+00 0. -1.
</event>
<event>
 7    1  0.7755875E-012  0.5930204E+02  0.7816164E-02  0.1266604E+00
        -11   -1    0    0    0    0  0.00000000000E+00  0.00000000000E+00  0.45593999997E+02  0.45594000000E+02  0.51100000000E-03 0.  1.
         11   -1    0    0    0    0 -0.00000000000E+00 -0.00000000000E+00 -0.45593999997E+02  0.45594000000E+02  0.51100000000E-03 0. -1.
    9900012    2    1    2    0    0 -0.11326849669E+01  0.12191808793E+02  0.29441323957E+02  0.59302035482E+02  0.50000166791E+02 0.  0.
         12    1    1    2    0    0  0.11326849669E+01 -0.12191808793E+02 -0.29441323957E+02  0.31885964518E+02  0.00000000000E+00 0. -1.
         11    1    3    3    0    0  0.38190047108E+01  0.63920811301E+01 -0.53685667119E+01  0.91795973199E+01  0.51100000000E-03 0. -1.
        -11    1    3    3    0    0 -0.18647935053E+02 -0.41032090690E+01  0.19991013305E+02  0.27644573059E+02  0.51100000000E-03 0.  1.
        -12    1    3    3    0    0  0.13696245375E+02  0.99029367319E+01  0.14818877364E+02  0.22477865103E+02  0.00000000000E+00 0.  1.
</event>
<event>
 7    1  0.7755875E-012  0.5930192E+02  0.7816164E-02  0.1266605E+00
        -11   -1    0    0    0    0  0.00000000000E+00  0.00000000000E+00  0.45593999997E+02  0.45594000000E+02  0.51100000000E-03 0.  1.
         11   -1    0    0    0    0 -0.00000000000E+00 -0.00000000000E+00 -0.45593999997E+02  0.45594000000E+02  0.51100000000E-03 0. -1.
    9900012    2    1    2    0    0 -0.13499748188E+02 -0.25657177882E+02 -0.13273581944E+02  0.59301922229E+02  0.49999960243E+02 0.  0.
         12    1    1    2    0    0  0.13499748188E+02  0.25657177882E+02  0.13273581944E+02  0.31886077771E+02  0.00000000000E+00 0. -1.
         11    1    3    3    0    0  0.11576928716E+02 -0.15189463986E+02 -0.13726321295E+02  0.23519289769E+02  0.51100000000E-03 0. -1.
        -11    1    3    3    0    0 -0.28202755727E+02 -0.76894142473E+01 -0.41933303650E+01  0.29531450047E+02  0.51100000000E-03 0.  1.
         12    1    3    3    0    0  0.31260788232E+01 -0.27782996493E+01  0.46460697163E+01  0.62511824128E+01  0.00000000000E+00 0. -1.
</event>
<event>
 7    1  0.7755875E-012  0.5930195E+02  0.7816164E-02  0.1266605E+00
        -11   -1    0    0    0    0  0.00000000000E+00  0.00000000000E+00  0.45593999997E+02  0.45594000000E+02  0.51100000000E-03 0. -1.
         11   -1    0    0    0    0 -0.00000000000E+00 -0.00000000000E+00 -0.45593999997E+02  0.45594000000E+02  0.51100000000E-03 0.  1.
    9900012    2    1    2    0    0 -0.11262841429E+02 -0.29200257315E+02  0.61003069024E+01  0.59301947115E+02  0.50000005630E+02 0.  0.
         12    1    1    2    0    0  0.11262841429E+02  0.29200257315E+02 -0.61003069024E+01  0.31886052885E+02  0.00000000000E+00 0. -1.
         11    1    3    3    0    0  0.31266735281E+01 -0.30722748699E+01  0.19780890841E+02  0.20260765113E+02  0.51100000000E-03 0. -1.
        -11    1    3    3    0    0 -0.19536007714E+02 -0.19397953752E+02 -0.13262370075E+02  0.30558577641E+02  0.51100000000E-03 0.  1.
        -12    1    3    3    0    0  0.51464927575E+01 -0.67300286923E+01 -0.41821386407E+00  0.84826043606E+01  0.00000000000E+00 0.  1.
</event>
<event>
 7    1  0.7755875E-012  0.5930194E+02  0.7816164E-02  0.1266605E+00
        -11   -1    0    0    0    0  0.00000000000E+00  0.00000000000E+00  0.45593999997E+02  0.45594000000E+02  0.51100000000E-03 0.  1.
         11   -1    0    0    0    0 -0.00000000000E+00 -0.00000000000E+00 -0.45593999997E+02  0.45594000000E+02  0.51100000000E-03 0. -1.
    9900012    2    1    2    0    0  0.10063776036E+02 -0.23463846353E+02  0.19102070107E+02  0.59301941037E+02  0.49999994547E+02 0.  0.
         12    1    1    2    0    0 -0.10063776036E+02  0.23463846353E+02 -0.19102070107E+02  0.31886058963E+02  0.00000000000E+00 0. -1.
         11    1    3    3    0    0  0.20929888987E+02 -0.69567066755E+01  0.48503836459E+01  0.22582786421E+02  0.51100000000E-03 0. -1.
        -11    1    3    3    0    0 -0.37592937162E+01  0.54265683821E+01  0.11815307650E+02  0.13534453398E+02  0.51100000000E-03 0.  1.
         12    1    3    3    0    0 -0.71068192344E+01 -0.21933708060E+02  0.24363788110E+01  0.23184701219E+02  0.00000000000E+00 0. -1.
</event>
<event>
 7    1  0.7755875E-012  0.5930195E+02  0.7816164E-02  0.1266605E+00
        -11   -1    0    0    0    0  0.00000000000E+00  0.00000000000E+00  0.45593999997E+02  0.45594000000E+02  0.51100000000E-03 0. -1.
         11   -1    0    0    0    0 -0.00000000000E+00 -0.00000000000E+00 -0.45593999997E+02  0.45594000000E+02  0.51100000000E-03 0.  1.
    9900012    2    1    2    0    0  0.54225635104E+01 -0.31342139290E+02 -0.22329528035E+01  0.59301953388E+02  0.50000017071E+02 0.  0.
         12    1    1    2    0    0 -0.54225635104E+01  0.31342139290E+02  0.22329528035E+01  0.31886046612E+02  0.00000000000E+00 0. -1.
         11    1    3    3    0    0  0.18548878793E+02 -0.10349262960E+02 -0.12807961152E+02  0.24803467851E+02  0.51100000000E-03 0. -1.
        -11    1    3    3    0    0 -0.59902219673E+01 -0.22944791713E+02  0.29877719650E+01  0.23901318113E+02  0.51100000000E-03 0.  1.
         12    1    3    3    0    0 -0.71360933157E+01  0.19519153824E+01  0.75872363840E+01  0.10597167424E+02  0.00000000000E+00 0. -1.
</event>
<event>
 7    1  0.7755875E-012  0.5930197E+02  0.7816164E-02  0.1266605E+00
        -11   -1    0    0    0    0  0.00000000000E+00  0.00000000000E+00  0.45593999997E+02  0.45594000000E+02  0.51100000000E-03 0.  1.
         11   -1    0    0    0    0 -0.00000000000E+00 -0.00000000000E+00 -0.45593999997E+02  0.45594000000E+02  0.51100000000E-03 0. -1.
    9900012    2    1    2    0    0 -0.29500068654E+02  0.17012247863E+01 -0.11982088231E+02  0.59301973990E+02  0.50000054643E+02 0.  0.
         12    1    1    2    0    0  0.29500068654E+02 -0.17012247863E+01  0.11982088231E+02  0.31886026010E+02  0.00000000000E+00 0. -1.
         11    1    3    3    0    0 -0.13649848237E+02  0.26156347032E+01 -0.11216511712E+02  0.17859732278E+02  0.51100000000E-03 0. -1.
        -11    1    3    3    0    0  0.38707880881E+00 -0.17843659076E+02  0.12933763316E+01  0.17894659031E+02  0.51100000000E-03 0.  1.
        -12    1    3    3    0    0 -0.16237299226E+02  0.16929249159E+02 -0.20589528500E+01  0.23547582680E+02  0.00000000000E+00 0.  1.
</event>
<event>
 7    1  0.7755875E-012  0.5930193E+02  0.7816164E-02  0.1266605E+00
        -11   -1    0    0    0    0  0.00000000000E+00  0.00000000000E+00  0.45593999997E+02  0.45594000000E+02  0.51100000000E-03 0.  1.
         11   -1    0    0    0    0 -0.00000000000E+00 -0.00000000000E+00 -0.45593999997E+02  0.45594000000E+02  0.51100000000E-03 0. -1.
    9900012    2    1    2    0    0 -0.26510833159E+02 -0.55514793375E+01  0.16824922504E+02  0.59301933845E+02  0.49999981428E+02 0.  0.
         12    1    1    2    0    0  0.26510833159E+02  0.55514793375E+01 -0.16824922504E+02  0.31886066155E+02  0.00000000000E+00 0. -1.
         11    1    3    3    0    0 -0.10673367845E+02  0.89274493996E+01 -0.14357231238E+02  0.19993754600E+02  0.51100000000E-03 0. -1.
        -11    1    3    3    0    0 -0.16370972588E+02 -0.15587949712E+02  0.30255953147E+02  0.37767917877E+02  0.51100000000E-03 0.  1.
        -12    1    3    3    0    0  0.53350727375E+00  0.11090209754E+01  0.92620059520E+00  0.15402613666E+01  0.00000000000E+00 0.  1.
</event>
<event>
 7    1  0.7755875E-012  0.5930196E+02  0.7816164E-02  0.1266605E+00
        -11   -1    0    0    0    0  0.00000000000E+00  0.00000000000E+00  0.45593999997E+02  0.45594000000E+02  0.51100000000E-03 0.  1.
         11   -1    0    0    0    0 -0.00000000000E+00 -0.00000000000E+00 -0.45593999997E+02  0.45594000000E+02  0.51100000000E-03 0. -1.
    9900012    2    1    2    0    0  0.20433200837E+02 -0.21284922742E+02  0.12089508308E+02  0.59301955346E+02  0.50000020641E+02 0.  0.
         12    1    1    2    0    0 -0.20433200837E+02  0.21284922742E+02 -0.12089508308E+02  0.31886044654E+02  0.00000000000E+00 0. -1.
         11    1    3    3    0    0 -0.78674581617E+01 -0.72066731655E+01 -0.25551534006E+01  0.10970954617E+02  0.51100000000E-03 0. -1.
        -11    1    3    3    0    0  0.18881007998E+02 -0.21737616824E+02  0.20004444387E+02  0.35059866567E+02  0.51100000000E-03 0.  1.
         12    1    3    3    0    0  0.94196510003E+01  0.76593672472E+01 -0.53597826782E+01  0.13271134162E+02  0.00000000000E+00 0. -1.
</event>
<event>
 7    1  0.7755875E-012  0.5930193E+02  0.7816164E-02  0.1266605E+00
        -11   -1    0    0    0    0  0.00000000000E+00  0.00000000000E+00  0.45593999997E+02  0.45594000000E+02  0.51100000000E-03 0. -1.
         11   -1    0    0    0    0 -0.00000000000E+00 -0.00000000000E+00 -0.45593999997E+02  0.45594000000E+02  0.51100000000E-03 0.  1.
    9900012    2    1    2    0    0 -0.94066225629E+01  0.83076096122E+01 -0.29312461523E+02  0.59301932101E+02  0.49999978249E+02 0.  0.
         12    1    1    2    0    0  0.94066225629E+01 -0.83076096122E+01  0.29312461523E+02  0.31886067899E+02  0.00000000000E+00 0. -1.
         11    1    3    3    0    0  0.39312432889E+01 -0.13476172029E+02 -0.12412693518E+02  0.18738645815E+02  0.51100000000E-03 0. -1.
        -11    1    3    3    0    0 -0.19433129577E+02  0.94286636094E+01 -0.15762613586E+02  0.26739600033E+02  0.51100000000E-03 0.  1.
         12    1    3    3    0    0  0.60952637248E+01  0.12355118032E+02 -0.11371544192E+01  0.13823686253E+02  0.00000000000E+00 0. -1.
</event>
<event>
 7    1  0.7755875E-012  0.5930194E+02  0.7816164E-02  0.1266605E+00
        -11   -1    0    0    0    0  0.00000000000E+00  0.00000000000E+00  0.45593999997E+02  0.45594000000E+02  0.51100000000E-03 0.  1.
         11   -1    0    0    0    0 -0.00000000000E+00 -0.00000000000E+00 -0.45593999997E+02  0.45594000000E+02  0.51100000000E-03 0. -1.
    9900012    2    1    2    0    0 -0.10890800679E+02  0.24113936485E+02  0.17794075783E+02  0.59301943405E+02  0.49999998864E+02 0.  0.
         12    1    1    2    0    0  0.10890800679E+02 -0.24113936485E+02 -0.17794075783E+02  0.31886056595E+02  0.00000000000E+00 0. -1.
         11    1    3    3    0    0  0.85503836231E+01  0.18978196776E+01  0.11321573535E+02  0.14313937516E+02  0.51100000000E-03 0. -1.
        -11    1    3    3    0    0 -0.24990780855E+02  0.38109779915E+01  0.30665739143E+01  0.25465006515E+02  0.51100000000E-03 0.  1.
         12    1    3    3    0    0  0.55495965529E+01  0.18405138816E+02  0.34059283334E+01  0.19522999374E+02  0.00000000000E+00 0. -1.
</event>
<event>
 7    1  0.1134329E-011  0.5930197E+02  0.7816164E-02  0.1266605E+00
        -11   -1    0    0    0    0  0.00000000000E+00  0.00000000000E+00  0.45593999997E+02  0.45594000000E+02  0.51100000000E-03 0. -1.
         11   -1    0    0    0    0 -0.00000000000E+00 -0.00000000000E+00 -0.45593999997E+02  0.45594000000E+02  0.51100000000E-03 0.  1.
    9900012    2    1    2    0    0  0.31170526965E+02  0.23070179523E+01  0.63083380112E+01  0.59301965258E+02  0.50000038719E+02 0.  0.
         12    1    1    2    0    0 -0.31170526965E+02 -0.23070179523E+01 -0.63083380112E+01  0.31886034742E+02  0.00000000000E+00 0. -1.
         11    1    3    3    0    0 -0.49059219638E+00  0.30436107200E-01  0.18722511652E+02  0.18728962862E+02  0.51100000000E-03 0. -1.
        -11    1    3    3    0    0  0.29955406256E+02  0.14727531932E+01 -0.20749952707E+01  0.30063282781E+02  0.51100000000E-03 0.  1.
         12    1    3    3    0    0  0.17057129059E+01  0.80382865188E+00 -0.10339178370E+02  0.10509719615E+02  0.00000000000E+00 0. -1.
</event>
<event>
 7    1  0.7755875E-012  0.5930195E+02  0.7816164E-02  0.1266605E+00
        -11   -1    0    0    0    0  0.00000000000E+00  0.00000000000E+00  0.45593999997E+02  0.45594000000E+02  0.51100000000E-03 0. -1.
         11   -1    0    0    0    0 -0.00000000000E+00 -0.00000000000E+00 -0.45593999997E+02  0.45594000000E+02  0.51100000000E-03 0.  1.
    9900012    2    1    2    0    0  0.91461236150E+01  0.29268715597E+02 -0.87413221997E+01  0.59301952837E+02  0.50000016065E+02 0.  0.
         12    1    1    2    0    0 -0.91461236150E+01 -0.29268715597E+02  0.87413221997E+01  0.31886047163E+02  0.00000000000E+00 0. -1.
         11    1    3    3    0    0 -0.86230099049E+01  0.11648329201E+02 -0.22762369673E+02  0.26984539025E+02  0.51100000000E-03 0. -1.
        -11    1    3    3    0    0  0.13489259766E+02  0.18352366936E+02  0.65898184388E+01  0.23710656012E+02  0.51100000000E-03 0.  1.
         12    1    3    3    0    0  0.42798737535E+01 -0.73198053943E+00  0.74312290348E+01  0.86067577998E+01  0.00000000000E+00 0. -1.
</event>
<event>
 7    1  0.7755875E-012  0.5930194E+02  0.7816164E-02  0.1266605E+00
        -11   -1    0    0    0    0  0.00000000000E+00  0.00000000000E+00  0.45593999997E+02  0.45594000000E+02  0.51100000000E-03 0.  1.
         11   -1    0    0    0    0 -0.00000000000E+00 -0.00000000000E+00 -0.45593999997E+02  0.45594000000E+02  0.51100000000E-03 0. -1.
    9900012    2    1    2    0    0  0.20136668555E+02 -0.10211816207E+02  0.22515636679E+02  0.59301944963E+02  0.50000001707E+02 0.  0.
         12    1    1    2    0    0 -0.20136668555E+02  0.10211816207E+02 -0.22515636679E+02  0.31886055037E+02  0.00000000000E+00 0. -1.
         11    1    3    3    0    0  0.37036319956E+01 -0.17334198594E+02  0.82762213410E+01  0.19562391746E+02  0.51100000000E-03 0.  1.
        -11    1    3    3    0    0  0.82151156551E+01  0.80810144829E+01  0.24192454133E+02  0.26796749011E+02  0.51100000000E-03 0. -1.
        -12    1    3    3    0    0  0.82179209045E+01 -0.95863209511E+00 -0.99530387951E+01  0.12942804207E+02  0.00000000000E+00 0.  1.
</event>
<event>
 7    1  0.7755875E-012  0.5930195E+02  0.7816164E-02  0.1266605E+00
        -11   -1    0    0    0    0  0.00000000000E+00  0.00000000000E+00  0.45593999997E+02  0.45594000000E+02  0.51100000000E-03 0.  1.
         11   -1    0    0    0    0 -0.00000000000E+00 -0.00000000000E+00 -0.45593999997E+02  0.45594000000E+02  0.51100000000E-03 0. -1.
    9900012    2    1    2    0    0  0.26692335980E+02  0.13855645036E+02  0.10595319335E+02  0.59301945191E+02  0.50000002122E+02 0.  0.
         12    1    1    2    0    0 -0.26692335980E+02 -0.13855645036E+02 -0.10595319335E+02  0.31886054809E+02  0.00000000000E+00 0. -1.
         11    1    3    3    0    0  0.92106796122E+01 -0.13178969885E+02  0.89934115751E+01  0.18422902002E+02  0.51100000000E-03 0. -1.
        -11    1    3    3    0    0 -0.31347559811E+01  0.17700950073E+02  0.29102858573E+01  0.18210439110E+02  0.51100000000E-03 0.  1.
         12    1    3    3    0    0  0.20616412349E+02  0.93336648488E+01 -0.13083780979E+01  0.22668604079E+02  0.00000000000E+00 0. -1.
</event>
<event>
 7    1  0.7755875E-012  0.5930197E+02  0.7816164E-02  0.1266605E+00
        -11   -1    0    0    0    0  0.00000000000E+00  0.00000000000E+00  0.45593999997E+02  0.45594000000E+02  0.51100000000E-03 0. -1.
         11   -1    0    0    0    0 -0.00000000000E+00 -0.00000000000E+00 -0.45593999997E+02  0.45594000000E+02  0.51100000000E-03 0.  1.
    9900012    2    1    2    0    0  0.23889148943E+02 -0.20532885433E+02 -0.49424953433E+01  0.59301967295E+02  0.50000042434E+02 0.  0.
         12    1    1    2    0    0 -0.23889148943E+02  0.20532885433E+02  0.49424953433E+01  0.31886032705E+02  0.00000000000E+00 0. -1.
         11    1    3    3    0    0 -0.35262188687E+01  0.18447028008E+01 -0.49803245550E+01  0.63750122249E+01  0.51100000000E-03 0. -1.
        -11    1    3    3    0    0  0.19475326356E+02 -0.31696555282E+02  0.83523159542E+01  0.38127695124E+02  0.51100000000E-03 0.  1.
        -12    1    3    3    0    0  0.79400414559E+01  0.93189670479E+01 -0.83144867424E+01  0.14799259946E+02  0.00000000000E+00 0.  1.
</event>
<event>
 7    1  0.7755875E-012  0.5930182E+02  0.7816164E-02  0.1266605E+00
        -11   -1    0    0    0    0  0.00000000000E+00  0.00000000000E+00  0.45593999997E+02  0.45594000000E+02  0.51100000000E-03 0.  1.
         11   -1    0    0    0    0 -0.00000000000E+00 -0.00000000000E+00 -0.45593999997E+02  0.45594000000E+02  0.51100000000E-03 0. -1.
    9900012    2    1    2    0    0 -0.12328467931E+02 -0.20187301707E+02  0.21382470719E+02  0.59301822339E+02  0.49999778069E+02 0.  0.
         12    1    1    2    0    0  0.12328467931E+02  0.20187301707E+02 -0.21382470719E+02  0.31886177661E+02  0.00000000000E+00 0. -1.
         11    1    3    3    0    0  0.43080847461E+01 -0.98070625990E+01 -0.63165824568E+01  0.12435324089E+02  0.51100000000E-03 0. -1.
        -11    1    3    3    0    0 -0.19377143057E+02 -0.19864857820E+02  0.18343107647E+02  0.33264934205E+02  0.51100000000E-03 0.  1.
        -12    1    3    3    0    0  0.27405903796E+01  0.94846187120E+01  0.93559455289E+01  0.13601564045E+02  0.00000000000E+00 0.  1.
</event>
<event>
 7    1  0.7755875E-012  0.5930196E+02  0.7816164E-02  0.1266605E+00
        -11   -1    0    0    0    0  0.00000000000E+00  0.00000000000E+00  0.45593999997E+02  0.45594000000E+02  0.51100000000E-03 0. -1.
         11   -1    0    0    0    0 -0.00000000000E+00 -0.00000000000E+00 -0.45593999997E+02  0.45594000000E+02  0.51100000000E-03 0.  1.
    9900012    2    1    2    0    0  0.86040014927E+01  0.15781876262E+02 -0.26336730835E+02  0.59301955229E+02  0.50000020429E+02 0.  0.
         12    1    1    2    0    0 -0.86040014927E+01 -0.15781876262E+02  0.26336730835E+02  0.31886044771E+02  0.00000000000E+00 0. -1.
         11    1    3    3    0    0 -0.97473248508E+01  0.95779707151E+01 -0.46007470875E+01  0.14419248898E+02  0.51100000000E-03 0. -1.
        -11    1    3    3    0    0  0.98707145430E+01  0.15134310389E+00 -0.30001134130E+02  0.31583571041E+02  0.51100000000E-03 0.  1.
        -12    1    3    3    0    0  0.84806118005E+01  0.60525624426E+01  0.82651503823E+01  0.13299135290E+02  0.00000000000E+00 0.  1.
</event>
<event>
 7    1  0.7755875E-012  0.5930194E+02  0.7816164E-02  0.1266605E+00
        -11   -1    0    0    0    0  0.00000000000E+00  0.00000000000E+00  0.45593999997E+02  0.45594000000E+02  0.51100000000E-03 0.  1.
         11   -1    0    0    0    0 -0.00000000000E+00 -0.00000000000E+00 -0.45593999997E+02  0.45594000000E+02  0.51100000000E-03 0. -1.
    9900012    2    1    2    0    0 -0.10589304719E+02 -0.56513767036E+01  0.29540638153E+02  0.59301941360E+02  0.49999995135E+02 0.  0.
         12    1    1    2    0    0  0.10589304719E+02  0.56513767036E+01 -0.29540638153E+02  0.31886058640E+02  0.00000000000E+00 0. -1.
         11    1    3    3    0    0 -0.75090872314E+01 -0.18844861937E+02  0.38280224701E+01  0.20643860317E+02  0.51100000000E-03 0. -1.
        -11    1    3    3    0    0  0.95185157067E+01  0.29096903406E+01  0.18199682563E+02  0.20743598646E+02  0.51100000000E-03 0.  1.
        -12    1    3    3    0    0 -0.12598733194E+02  0.10283794893E+02  0.75129331201E+01  0.17914482397E+02  0.00000000000E+00 0.  1.
</event>
<event>
 7    1  0.7755875E-012  0.5930195E+02  0.7816164E-02  0.1266605E+00
        -11   -1    0    0    0    0  0.00000000000E+00  0.00000000000E+00  0.45593999997E+02  0.45594000000E+02  0.51100000000E-03 0.  1.
         11   -1    0    0    0    0 -0.00000000000E+00 -0.00000000000E+00 -0.45593999997E+02  0.45594000000E+02  0.51100000000E-03 0. -1.
    9900012    2    1    2    0    0  0.10644720927E+02 -0.12310946660E+02  0.27419899328E+02  0.59301947087E+02  0.50000005578E+02 0.  0.
         12    1    1    2    0    0 -0.10644720927E+02  0.12310946660E+02 -0.27419899328E+02  0.31886052913E+02  0.00000000000E+00 0. -1.
         11    1    3    3    0    0  0.13853468193E+02 -0.74016178884E+01 -0.62368072597E+01  0.16899712820E+02  0.51100000000E-03 0. -1.
        -11    1    3    3    0    0 -0.92115953096E+01 -0.98045568008E+01  0.81130915943E+01  0.15710031117E+02  0.51100000000E-03 0.  1.
         12    1    3    3    0    0  0.60028480433E+01  0.48952280292E+01  0.25543614993E+02  0.26692203150E+02  0.00000000000E+00 0. -1.
</event>
<event>
 7    1  0.7755875E-012  0.5930195E+02  0.7816164E-02  0.1266605E+00
        -11   -1    0    0    0    0  0.00000000000E+00  0.00000000000E+00  0.45593999997E+02  0.45594000000E+02  0.51100000000E-03 0.  1.
         11   -1    0    0    0    0 -0.00000000000E+00 -0.00000000000E+00 -0.45593999997E+02  0.45594000000E+02  0.51100000000E-03 0. -1.
    9900012    2    1    2    0    0  0.25575696185E+02 -0.15722342762E+02 -0.10743003879E+02  0.59301946158E+02  0.50000003885E+02 0.  0.
         12    1    1    2    0    0 -0.25575696185E+02  0.15722342762E+02  0.10743003879E+02  0.31886053842E+02  0.00000000000E+00 0. -1.
         11    1    3    3    0    0  0.12443391624E+02 -0.22592668472E+02  0.88459506337E+01  0.27267517428E+02  0.51100000000E-03 0. -1.
        -11    1    3    3    0    0  0.14281907562E+02 -0.36386906191E+01 -0.10545435944E+02  0.18122339047E+02  0.51100000000E-03 0.  1.
         12    1    3    3    0    0 -0.11496030014E+01  0.10509016329E+02 -0.90435185689E+01  0.13912089684E+02  0.00000000000E+00 0. -1.
</event>
<event>
 7    1  0.7755875E-012  0.5930195E+02  0.7816164E-02  0.1266605E+00
        -11   -1    0    0    0    0  0.00000000000E+00  0.00000000000E+00  0.45593999997E+02  0.45594000000E+02  0.51100000000E-03 0.  1.
         11   -1    0    0    0    0 -0.00000000000E+00 -0.00000000000E+00 -0.45593999997E+02  0.45594000000E+02  0.51100000000E-03 0. -1.
    9900012    2    1    2    0    0 -0.29917653832E+02  0.84334540750E+01  0.71085284594E+01  0.59301947637E+02  0.50000006582E+02 0.  0.
         12    1    1    2    0    0  0.29917653832E+02 -0.84334540750E+01 -0.71085284594E+01  0.31886052363E+02  0.00000000000E+00 0. -1.
         11    1    3    3    0    0  0.48687863706E+00 -0.16214073134E+02  0.26551622125E+00  0.16223554405E+02  0.51100000000E-03 0. -1.
        -11    1    3    3    0    0 -0.86133284841E+01  0.17432630475E+02  0.48326350568E+01  0.20035977508E+02  0.51100000000E-03 0.  1.
         12    1    3    3    0    0 -0.21791203985E+02  0.72148967335E+01  0.20103771813E+01  0.23042415724E+02  0.00000000000E+00 0. -1.
</event>
<event>
 7    1  0.7755875E-012  0.5930194E+02  0.7816164E-02  0.1266605E+00
        -11   -1    0    0    0    0  0.00000000000E+00  0.00000000000E+00  0.45593999997E+02  0.45594000000E+02  0.51100000000E-03 0. -1.
         11   -1    0    0    0    0 -0.00000000000E+00 -0.00000000000E+00 -0.45593999997E+02  0.45594000000E+02  0.51100000000E-03 0.  1.
    9900012    2    1    2    0    0  0.63398946984E+01 -0.31131060910E+02 -0.27172828167E+01  0.59301939659E+02  0.49999992033E+02 0.  0.
         12    1    1    2    0    0 -0.63398946984E+01  0.31131060910E+02  0.27172828167E+01  0.31886060341E+02  0.00000000000E+00 0. -1.
         11    1    3    3    0    0 -0.78185137046E+01 -0.16642090667E+02 -0.45024184183E+00  0.18392690295E+02  0.51100000000E-03 0. -1.
        -11    1    3    3    0    0  0.63431909322E+01 -0.16298112832E+01  0.15972824026E+02  0.17263356094E+02  0.51100000000E-03 0.  1.
        -12    1    3    3    0    0  0.78152174708E+01 -0.12859158960E+02 -0.18239865001E+02  0.23645893269E+02  0.00000000000E+00 0.  1.
</event>
<event>
 7    1  0.7755875E-012  0.5930193E+02  0.7816164E-02  0.1266605E+00
        -11   -1    0    0    0    0  0.00000000000E+00  0.00000000000E+00  0.45593999997E+02  0.45594000000E+02  0.51100000000E-03 0. -1.
         11   -1    0    0    0    0 -0.00000000000E+00 -0.00000000000E+00 -0.45593999997E+02  0.45594000000E+02  0.51100000000E-03 0.  1.
    9900012    2    1    2    0    0  0.24535820202E+02  0.18051671042E+02  0.94261479152E+01  0.59301928356E+02  0.49999971418E+02 0.  0.
         12    1    1    2    0    0 -0.24535820202E+02 -0.18051671042E+02 -0.94261479152E+01  0.31886071644E+02  0.00000000000E+00 0. -1.
         11    1    3    3    0    0  0.52064244200E+01  0.58234159006E+01  0.56439304979E+01  0.96370628160E+01  0.51100000000E-03 0. -1.
        -11    1    3    3    0    0  0.12176729737E+02 -0.16164255093E+02  0.18380396813E+01  0.20320784432E+02  0.51100000000E-03 0.  1.
        -12    1    3    3    0    0  0.71526660444E+01  0.28392510235E+02  0.19441777360E+01  0.29344081108E+02  0.00000000000E+00 0.  1.
</event>
<event>
 7    1  0.7755875E-012  0.5930201E+02  0.7816164E-02  0.1266605E+00
        -11   -1    0    0    0    0  0.00000000000E+00  0.00000000000E+00  0.45593999997E+02  0.45594000000E+02  0.51100000000E-03 0. -1.
         11   -1    0    0    0    0 -0.00000000000E+00 -0.00000000000E+00 -0.45593999997E+02  0.45594000000E+02  0.51100000000E-03 0.  1.
    9900012    2    1    2    0    0  0.26687873021E+02 -0.17383681246E+02  0.15104771408E+01  0.59302008072E+02  0.50000116802E+02 0.  0.
         12    1    1    2    0    0 -0.26687873021E+02  0.17383681246E+02 -0.15104771408E+01  0.31885991928E+02  0.00000000000E+00 0. -1.
         11    1    3    3    0    0 -0.43346008085E+01 -0.17097870846E+02  0.18526710877E+01  0.17735792682E+02  0.51100000000E-03 0. -1.
        -11    1    3    3    0    0  0.21874095176E+02 -0.13104476313E+02  0.22808744638E+01  0.25600893105E+02  0.51100000000E-03 0.  1.
         12    1    3    3    0    0  0.91483786530E+01  0.12818665913E+02 -0.26230684107E+01  0.15965322285E+02  0.00000000000E+00 0. -1.
</event>
<event>
 7    1  0.7755875E-012  0.5930197E+02  0.7816164E-02  0.1266605E+00
        -11   -1    0    0    0    0  0.00000000000E+00  0.00000000000E+00  0.45593999997E+02  0.45594000000E+02  0.51100000000E-03 0.  1.
         11   -1    0    0    0    0 -0.00000000000E+00 -0.00000000000E+00 -0.45593999997E+02  0.45594000000E+02  0.51100000000E-03 0. -1.
    9900012    2    1    2    0    0  0.25185984365E+01  0.31194850365E+02  0.61038424466E+01  0.59301969831E+02  0.50000047058E+02 0.  0.
         12    1    1    2    0    0 -0.25185984365E+01 -0.31194850365E+02 -0.61038424466E+01  0.31886030169E+02  0.00000000000E+00 0. -1.
         11    1    3    3    0    0  0.11969385919E+02 -0.25096174546E+01  0.17249345160E+01  0.12350699510E+02  0.51100000000E-03 0.  1.
        -11    1    3    3    0    0 -0.63131890561E+01  0.26097034026E+02 -0.11388834978E+02  0.29165340791E+02  0.51100000000E-03 0. -1.
        -12    1    3    3    0    0 -0.31375984261E+01  0.76074337932E+01  0.15767742909E+02  0.17785929530E+02  0.00000000000E+00 0.  1.
</event>
<event>
 7    1  0.7755875E-012  0.5930195E+02  0.7816164E-02  0.1266605E+00
        -11   -1    0    0    0    0  0.00000000000E+00  0.00000000000E+00  0.45593999997E+02  0.45594000000E+02  0.51100000000E-03 0. -1.
         11   -1    0    0    0    0 -0.00000000000E+00 -0.00000000000E+00 -0.45593999997E+02  0.45594000000E+02  0.51100000000E-03 0.  1.
    9900012    2    1    2    0    0 -0.15028349019E+02 -0.16338488126E+02 -0.22889355831E+02  0.59301951658E+02  0.50000013916E+02 0.  0.
         12    1    1    2    0    0  0.15028349019E+02  0.16338488126E+02  0.22889355831E+02  0.31886048342E+02  0.00000000000E+00 0. -1.
         11    1    3    3    0    0 -0.11804056807E+02  0.10725216712E+02 -0.23920838099E+02  0.28750174369E+02  0.51100000000E-03 0. -1.
        -11    1    3    3    0    0 -0.73415172187E+01 -0.19137013567E+02 -0.30653886453E+01  0.20724858772E+02  0.51100000000E-03 0.  1.
         12    1    3    3    0    0  0.41172250073E+01 -0.79266912708E+01  0.40968709128E+01  0.98269185170E+01  0.00000000000E+00 0. -1.
</event>
<event>
 7    1  0.7755875E-012  0.5930192E+02  0.7816164E-02  0.1266605E+00
        -11   -1    0    0    0    0  0.00000000000E+00  0.00000000000E+00  0.45593999997E+02  0.45594000000E+02  0.51100000000E-03 0. -1.
         11   -1    0    0    0    0 -0.00000000000E+00 -0.00000000000E+00 -0.45593999997E+02  0.45594000000E+02  0.51100000000E-03 0.  1.
    9900012    2    1    2    0    0  0.17186611591E+02 -0.16229463285E+02 -0.21399699854E+02  0.59301917608E+02  0.49999951816E+02 0.  0.
         12    1    1    2    0    0 -0.17186611591E+02  0.16229463285E+02  0.21399699854E+02  0.31886082392E+02  0.00000000000E+00 0. -1.
         11    1    3    3    0    0  0.78614113328E+01  0.60132798058E+01 -0.25476271364E+02  0.27331332295E+02  0.51100000000E-03 0.  1.
        -11    1    3    3    0    0  0.14938673167E+02 -0.93254861011E+01  0.27514676289E+01  0.17824119091E+02  0.51100000000E-03 0. -1.
         12    1    3    3    0    0 -0.56134729087E+01 -0.12917256990E+02  0.13251038813E+01  0.14146466221E+02  0.00000000000E+00 0. -1.
</event>
<event>
 7    1  0.7755875E-012  0.5930192E+02  0.7816164E-02  0.1266605E+00
        -11   -1    0    0    0    0  0.00000000000E+00  0.00000000000E+00  0.45593999997E+02  0.45594000000E+02  0.51100000000E-03 0.  1.
         11   -1    0    0    0    0 -0.00000000000E+00 -0.00000000000E+00 -0.45593999997E+02  0.45594000000E+02  0.51100000000E-03 0. -1.
    9900012    2    1    2    0    0  0.15223442909E+02 -0.27968451740E+02  0.16536093563E+01  0.59301922620E+02  0.49999960958E+02 0.  0.
         12    1    1    2    0    0 -0.15223442909E+02  0.27968451740E+02 -0.16536093563E+01  0.31886077380E+02  0.00000000000E+00 0. -1.
         11    1    3    3    0    0 -0.12335880212E+02  0.52553605143E+00 -0.34425297169E+01  0.12818000619E+02  0.51100000000E-03 0. -1.
        -11    1    3    3    0    0  0.98414086478E+01 -0.85577313488E+01  0.13252013023E+02  0.18593115377E+02  0.51100000000E-03 0.  1.
         12    1    3    3    0    0  0.17717914474E+02 -0.19936256443E+02 -0.81558739492E+01  0.27890806624E+02  0.00000000000E+00 0. -1.
</event>
<event>
 7    1  0.7755875E-012  0.5930212E+02  0.7816164E-02  0.1266604E+00
        -11   -1    0    0    0    0  0.00000000000E+00  0.00000000000E+00  0.45593999997E+02  0.45594000000E+02  0.51100000000E-03 0.  1.
         11   -1    0    0    0    0 -0.00000000000E+00 -0.00000000000E+00 -0.45593999997E+02  0.45594000000E+02  0.51100000000E-03 0. -1.
    9900012    2    1    2    0    0 -0.87015692100E-02 -0.85062483280E+00  0.31874531707E+02  0.59302118957E+02  0.50000319028E+02 0.  0.
         12    1    1    2    0    0  0.87015692100E-02  0.85062483280E+00 -0.31874531707E+02  0.31885881043E+02  0.00000000000E+00 0. -1.
         11    1    3    3    0    0  0.10695010412E+02  0.15726253373E+01 -0.80773221543E+00  0.10840148973E+02  0.51100000000E-03 0. -1.
        -11    1    3    3    0    0 -0.13412381639E+02  0.12455029718E+02  0.26312100758E+02  0.32052244743E+02  0.51100000000E-03 0.  1.
        -12    1    3    3    0    0  0.27086696576E+01 -0.14878279888E+02  0.63701631645E+01  0.16409725241E+02  0.00000000000E+00 0.  1.
</event>
<event>
 7    1  0.7755875E-012  0.5930195E+02  0.7816164E-02  0.1266605E+00
        -11   -1    0    0    0    0  0.00000000000E+00  0.00000000000E+00  0.45593999997E+02  0.45594000000E+02  0.51100000000E-03 0. -1.
         11   -1    0    0    0    0 -0.00000000000E+00 -0.00000000000E+00 -0.45593999997E+02  0.45594000000E+02  0.51100000000E-03 0.  1.
    9900012    2    1    2    0    0  0.15528953564E+01  0.26481089644E+02 -0.17693519338E+02  0.59301949456E+02  0.50000009900E+02 0.  0.
         12    1    1    2    0    0 -0.15528953564E+01 -0.26481089644E+02  0.17693519338E+02  0.31886050544E+02  0.00000000000E+00 0. -1.
         11    1    3    3    0    0  0.11877056654E+02  0.25594637353E+01 -0.18712758921E+02  0.22311043814E+02  0.51100000000E-03 0. -1.
        -11    1    3    3    0    0  0.45045338227E+01  0.18740288344E+02  0.65211724475E+01  0.20347356647E+02  0.51100000000E-03 0.  1.
        -12    1    3    3    0    0 -0.14828695120E+02  0.51813375645E+01 -0.55019328651E+01  0.16643548996E+02  0.00000000000E+00 0.  1.
</event>
<event>
 7    1  0.7755875E-012  0.5930204E+02  0.7816164E-02  0.1266604E+00
        -11   -1    0    0    0    0  0.00000000000E+00  0.00000000000E+00  0.45593999997E+02  0.45594000000E+02  0.51100000000E-03 0. -1.
         11   -1    0    0    0    0 -0.00000000000E+00 -0.00000000000E+00 -0.45593999997E+02  0.45594000000E+02  0.51100000000E-03 0.  1.
    9900012    2    1    2    0    0 -0.12256651278E+02  0.19066158390E+02 -0.22427008481E+02  0.59302037482E+02  0.50000170437E+02 0.  0.
         12    1    1    2    0    0  0.12256651278E+02 -0.19066158390E+02  0.22427008481E+02  0.31885962518E+02  0.00000000000E+00 0. -1.
         11    1    3    3    0    0  0.21449807736E+01  0.14174823800E+02  0.13574462169E+02  0.19743165798E+02  0.51100000000E-03 0. -1.
        -11    1    3    3    0    0 -0.57759969140E+01  0.34125154631E+01 -0.22418057155E+02  0.23400356600E+02  0.51100000000E-03 0.  1.
         12    1    3    3    0    0 -0.86256351378E+01  0.14788191277E+01 -0.13583413495E+02  0.16158515084E+02  0.00000000000E+00 0. -1.
</event>
<event>
 7    1  0.7755875E-012  0.5930193E+02  0.7816164E-02  0.1266605E+00
        -11   -1    0    0    0    0  0.00000000000E+00  0.00000000000E+00  0.45593999997E+02  0.45594000000E+02  0.51100000000E-03 0.  1.
         11   -1    0    0    0    0 -0.00000000000E+00 -0.00000000000E+00 -0.45593999997E+02  0.45594000000E+02  0.51100000000E-03 0. -1.
    9900012    2    1    2    0    0  0.25860355123E+02  0.14261988707E+02  0.12023268461E+02  0.59301932926E+02  0.49999979753E+02 0.  0.
         12    1    1    2    0    0 -0.25860355123E+02 -0.14261988707E+02 -0.12023268461E+02  0.31886067074E+02  0.00000000000E+00 0. -1.
         11    1    3    3    0    0  0.19542747503E+01 -0.97580645684E+01  0.54191880504E+01  0.11331664190E+02  0.51100000000E-03 0. -1.
        -11    1    3    3    0    0  0.19847681655E+02  0.31600262960E+02  0.10146042284E+02  0.38671039041E+02  0.51100000000E-03 0.  1.
         12    1    3    3    0    0  0.40583987174E+01 -0.75802096846E+01 -0.35419618736E+01  0.92992296953E+01  0.00000000000E+00 0. -1.
</event>
<event>
 7    1  0.7755875E-012  0.5930194E+02  0.7816164E-02  0.1266605E+00
        -11   -1    0    0    0    0  0.00000000000E+00  0.00000000000E+00  0.45593999997E+02  0.45594000000E+02  0.51100000000E-03 0. -1.
         11   -1    0    0    0    0 -0.00000000000E+00 -0.00000000000E+00 -0.45593999997E+02  0.45594000000E+02  0.51100000000E-03 0.  1.
    9900012    2    1    2    0    0 -0.26476938224E+02 -0.86733046395E+01 -0.15506984758E+02  0.59301936471E+02  0.49999986219E+02 0.  0.
         12    1    1    2    0    0  0.26476938224E+02  0.86733046395E+01  0.15506984758E+02  0.31886063529E+02  0.00000000000E+00 0. -1.
         11    1    3    3    0    0 -0.11952394688E+01  0.39692165879E+01  0.22980030716E+00  0.41516365630E+01  0.51100000000E-03 0. -1.
        -11    1    3    3    0    0 -0.99802888241E+01  0.19124166356E+01 -0.28648718450E+02  0.30397575093E+02  0.51100000000E-03 0.  1.
        -12    1    3    3    0    0 -0.15301409931E+02 -0.14554937863E+02  0.12911933385E+02  0.24752724816E+02  0.00000000000E+00 0.  1.
</event>
<event>
 7    1  0.7755875E-012  0.5930195E+02  0.7816164E-02  0.1266605E+00
        -11   -1    0    0    0    0  0.00000000000E+00  0.00000000000E+00  0.45593999997E+02  0.45594000000E+02  0.51100000000E-03 0. -1.
         11   -1    0    0    0    0 -0.00000000000E+00 -0.00000000000E+00 -0.45593999997E+02  0.45594000000E+02  0.51100000000E-03 0.  1.
    9900012    2    1    2    0    0  0.17524165332E+02 -0.17588301670E+02 -0.20006889759E+02  0.59301947186E+02  0.50000005760E+02 0.  0.
         12    1    1    2    0    0 -0.17524165332E+02  0.17588301670E+02  0.20006889759E+02  0.31886052814E+02  0.00000000000E+00 0. -1.
         11    1    3    3    0    0 -0.40029436165E+01 -0.32537322318E+01 -0.59221517280E+01  0.78538024156E+01  0.51100000000E-03 0. -1.
        -11    1    3    3    0    0  0.10398164342E+02 -0.15945618274E+02  0.12370149918E+02  0.22702536710E+02  0.51100000000E-03 0.  1.
        -12    1    3    3    0    0  0.11128944606E+02  0.16110488356E+01 -0.26454887949E+02  0.28745608061E+02  0.00000000000E+00 0.  1.
</event>
<event>
 7    1  0.7755875E-012  0.5930195E+02  0.7816164E-02  0.1266605E+00
        -11   -1    0    0    0    0  0.00000000000E+00  0.00000000000E+00  0.45593999997E+02  0.45594000000E+02  0.51100000000E-03 0.  1.
         11   -1    0    0    0    0 -0.00000000000E+00 -0.00000000000E+00 -0.45593999997E+02  0.45594000000E+02  0.51100000000E-03 0. -1.
    9900012    2    1    2    0    0  0.10882155998E+02 -0.28597153894E+02  0.89722714944E+01  0.59301949982E+02  0.50000010859E+02 0.  0.
         12    1    1    2    0    0 -0.10882155998E+02  0.28597153894E+02 -0.89722714944E+01  0.31886050018E+02  0.00000000000E+00 0. -1.
         11    1    3    3    0    0  0.30752465687E+01  0.12957922388E+02  0.50909454426E+01  0.14257721411E+02  0.51100000000E-03 0. -1.
        -11    1    3    3    0    0  0.33027229758E+01 -0.99947181770E+01  0.75496152845E+01  0.12953727714E+02  0.51100000000E-03 0.  1.
         12    1    3    3    0    0  0.45041864539E+01 -0.31560358105E+02 -0.36682892326E+01  0.32090500856E+02  0.00000000000E+00 0. -1.
</event>
<event>
 7    1  0.7755875E-012  0.5930200E+02  0.7816164E-02  0.1266605E+00
        -11   -1    0    0    0    0  0.00000000000E+00  0.00000000000E+00  0.45593999997E+02  0.45594000000E+02  0.51100000000E-03 0.  1.
         11   -1    0    0    0    0 -0.00000000000E+00 -0.00000000000E+00 -0.45593999997E+02  0.45594000000E+02  0.51100000000E-03 0. -1.
    9900012    2    1    2    0    0 -0.18581282107E+02  0.19711583178E+02  0.16819815336E+02  0.59302003951E+02  0.50000109285E+02 0.  0.
         12    1    1    2    0    0  0.18581282107E+02 -0.19711583178E+02 -0.16819815336E+02  0.31885996049E+02  0.00000000000E+00 0. -1.
         11    1    3    3    0    0 -0.14282362123E+02  0.73014446006E+00  0.20002333240E+02  0.24588865652E+02  0.51100000000E-03 0.  1.
        -11    1    3    3    0    0  0.76323064096E+01  0.48061214663E+01 -0.11322399806E+02  0.14475760509E+02  0.51100000000E-03 0. -1.
        -12    1    3    3    0    0 -0.11931226394E+02  0.14175317251E+02  0.81398819016E+01  0.20237377790E+02  0.00000000000E+00 0.  1.
</event>
<event>
 7    1  0.7755875E-012  0.5930196E+02  0.7816164E-02  0.1266605E+00
        -11   -1    0    0    0    0  0.00000000000E+00  0.00000000000E+00  0.45593999997E+02  0.45594000000E+02  0.51100000000E-03 0.  1.
         11   -1    0    0    0    0 -0.00000000000E+00 -0.00000000000E+00 -0.45593999997E+02  0.45594000000E+02  0.51100000000E-03 0. -1.
    9900012    2    1    2    0    0 -0.10796247598E+02  0.25727382309E+02 -0.15435752902E+02  0.59301958691E+02  0.50000026743E+02 0.  0.
         12    1    1    2    0    0  0.10796247598E+02 -0.25727382309E+02  0.15435752902E+02  0.31886041309E+02  0.00000000000E+00 0. -1.
         11    1    3    3    0    0 -0.28011517143E+01 -0.71779706762E+01  0.81873270337E+00  0.77485506681E+01  0.51100000000E-03 0. -1.
        -11    1    3    3    0    0 -0.12411053402E+02  0.26843005332E+02 -0.25916269978E+02  0.39322184980E+02  0.51100000000E-03 0.  1.
        -12    1    3    3    0    0  0.44159575180E+01  0.60623476535E+01  0.96617843721E+01  0.12231223043E+02  0.00000000000E+00 0.  1.
</event>
<event>
 7    1  0.7755875E-012  0.5930194E+02  0.7816164E-02  0.1266605E+00
        -11   -1    0    0    0    0  0.00000000000E+00  0.00000000000E+00  0.45593999997E+02  0.45594000000E+02  0.51100000000E-03 0. -1.
         11   -1    0    0    0    0 -0.00000000000E+00 -0.00000000000E+00 -0.45593999997E+02  0.45594000000E+02  0.51100000000E-03 0.  1.
    9900012    2    1    2    0    0  0.49845588678E+00 -0.28537536876E+02  0.14215530590E+02  0.59301940676E+02  0.49999993888E+02 0.  0.
         12    1    1    2    0    0 -0.49845588678E+00  0.28537536876E+02 -0.14215530590E+02  0.31886059324E+02  0.00000000000E+00 0. -1.
         11    1    3    3    0    0 -0.55859483023E+01 -0.35106535044E+02  0.14261960311E+02  0.38302416809E+02  0.51100000000E-03 0.  1.
        -11    1    3    3    0    0  0.12017697754E+02  0.71980303698E+01 -0.30242169720E+01  0.14331175425E+02  0.51100000000E-03 0. -1.
         12    1    3    3    0    0 -0.59332935645E+01 -0.62903220120E+00  0.29777872518E+01  0.66683484424E+01  0.00000000000E+00 0. -1.
</event>
<event>
 7    1  0.7755875E-012  0.5930195E+02  0.7816164E-02  0.1266605E+00
        -11   -1    0    0    0    0  0.00000000000E+00  0.00000000000E+00  0.45593999997E+02  0.45594000000E+02  0.51100000000E-03 0.  1.
         11   -1    0    0    0    0 -0.00000000000E+00 -0.00000000000E+00 -0.45593999997E+02  0.45594000000E+02  0.51100000000E-03 0. -1.
    9900012    2    1    2    0    0  0.13572387881E+02 -0.15021776858E+02  0.24634460960E+02  0.59301950393E+02  0.50000011608E+02 0.  0.
         12    1    1    2    0    0 -0.13572387881E+02  0.15021776858E+02 -0.24634460960E+02  0.31886049607E+02  0.00000000000E+00 0. -1.
         11    1    3    3    0    0  0.18843068119E+02 -0.25416317637E+02  0.62301921709E+01  0.32246948897E+02  0.51100000000E-03 0.  1.
        -11    1    3    3    0    0 -0.69331514030E+01  0.10750965014E+02  0.53101811686E+01  0.13850987742E+02  0.51100000000E-03 0. -1.
        -12    1    3    3    0    0  0.16624711653E+01 -0.35642423522E+00  0.13094087620E+02  0.13204013754E+02  0.00000000000E+00 0.  1.
</event>
<event>
 7    1  0.7755875E-012  0.5930194E+02  0.7816164E-02  0.1266605E+00
        -11   -1    0    0    0    0  0.00000000000E+00  0.00000000000E+00  0.45593999997E+02  0.45594000000E+02  0.51100000000E-03 0.  1.
         11   -1    0    0    0    0 -0.00000000000E+00 -0.00000000000E+00 -0.45593999997E+02  0.45594000000E+02  0.51100000000E-03 0. -1.
    9900012    2    1    2    0    0  0.45180744232E+01 -0.31507019895E+02 -0.19014663660E+01  0.59301939197E+02  0.49999991190E+02 0.  0.
         12    1    1    2    0    0 -0.45180744232E+01  0.31507019895E+02  0.19014663660E+01  0.31886060803E+02  0.00000000000E+00 0. -1.
         11    1    3    3    0    0 -0.34494444277E+01 -0.13460099815E+02 -0.20904809153E+02  0.25101474057E+02  0.51100000000E-03 0. -1.
        -11    1    3    3    0    0  0.14869512564E+02 -0.13745354822E+02  0.12600355106E+02  0.23849656856E+02  0.51100000000E-03 0.  1.
         12    1    3    3    0    0 -0.69019937134E+01 -0.43015652588E+01  0.64029876804E+01  0.10350808284E+02  0.00000000000E+00 0. -1.
</event>
<event>
 7    1  0.7755875E-012  0.5930192E+02  0.7816164E-02  0.1266605E+00
        -11   -1    0    0    0    0  0.00000000000E+00  0.00000000000E+00  0.45593999997E+02  0.45594000000E+02  0.51100000000E-03 0.  1.
         11   -1    0    0    0    0 -0.00000000000E+00 -0.00000000000E+00 -0.45593999997E+02  0.45594000000E+02  0.51100000000E-03 0. -1.
    9900012    2    1    2    0    0  0.25023388929E+00  0.31795664814E+02  0.23864127555E+01  0.59301923355E+02  0.49999962298E+02 0.  0.
         12    1    1    2    0    0 -0.25023388929E+00 -0.31795664814E+02 -0.23864127555E+01  0.31886076645E+02  0.00000000000E+00 0. -1.
         11    1    3    3    0    0 -0.27113103643E+01  0.28406852583E+01  0.13537607517E+02  0.14095655862E+02  0.51100000000E-03 0. -1.
        -11    1    3    3    0    0 -0.94878741103E+01  0.27115355565E+02 -0.51979779170E+00  0.28732080547E+02  0.51100000000E-03 0.  1.
         12    1    3    3    0    0  0.12449418364E+02  0.18396239909E+01 -0.10631396970E+02  0.16474186947E+02  0.00000000000E+00 0. -1.
</event>
<event>
 7    1  0.7755875E-012  0.5930191E+02  0.7816164E-02  0.1266605E+00
        -11   -1    0    0    0    0  0.00000000000E+00  0.00000000000E+00  0.45593999997E+02  0.45594000000E+02  0.51100000000E-03 0.  1.
         11   -1    0    0    0    0 -0.00000000000E+00 -0.00000000000E+00 -0.45593999997E+02  0.45594000000E+02  0.51100000000E-03 0. -1.
    9900012    2    1    2    0    0 -0.22796850858E+02 -0.18574182989E+02  0.12329879766E+02  0.59301911845E+02  0.49999941307E+02 0.  0.
         12    1    1    2    0    0  0.22796850858E+02  0.18574182989E+02 -0.12329879766E+02  0.31886088155E+02  0.00000000000E+00 0. -1.
         11    1    3    3    0    0 -0.46549615552E+01  0.10089320658E+02  0.71582127810E+01  0.13217528850E+02  0.51100000000E-03 0. -1.
        -11    1    3    3    0    0 -0.43709371246E+00 -0.24988792936E+02  0.10684321316E+02  0.27180609735E+02  0.51100000000E-03 0.  1.
         12    1    3    3    0    0 -0.17704795591E+02 -0.36747107100E+01 -0.55126543307E+01  0.18903773261E+02  0.00000000000E+00 0. -1.
</event>
<event>
 7    1  0.7755875E-012  0.5930193E+02  0.7816164E-02  0.1266605E+00
        -11   -1    0    0    0    0  0.00000000000E+00  0.00000000000E+00  0.45593999997E+02  0.45594000000E+02  0.51100000000E-03 0.  1.
         11   -1    0    0    0    0 -0.00000000000E+00 -0.00000000000E+00 -0.45593999997E+02  0.45594000000E+02  0.51100000000E-03 0. -1.
    9900012    2    1    2    0    0  0.23339382595E+01 -0.91215491347E+01  0.30464267059E+02  0.59301929469E+02  0.49999973449E+02 0.  0.
         12    1    1    2    0    0 -0.23339382595E+01  0.91215491347E+01 -0.30464267059E+02  0.31886070531E+02  0.00000000000E+00 0. -1.
         11    1    3    3    0    0 -0.15901273523E+02  0.58020723351E+01  0.22024777648E+02  0.27777785617E+02  0.51100000000E-03 0. -1.
        -11    1    3    3    0    0  0.10518713561E+02 -0.80911833890E+01  0.14428838593E+02  0.19603621273E+02  0.51100000000E-03 0.  1.
         12    1    3    3    0    0  0.77164982217E+01 -0.68324380807E+01 -0.59893491823E+01  0.11920522579E+02  0.00000000000E+00 0. -1.
</event>
<event>
 7    1  0.7755875E-012  0.5930193E+02  0.7816164E-02  0.1266605E+00
        -11   -1    0    0    0    0  0.00000000000E+00  0.00000000000E+00  0.45593999997E+02  0.45594000000E+02  0.51100000000E-03 0.  1.
         11   -1    0    0    0    0 -0.00000000000E+00 -0.00000000000E+00 -0.45593999997E+02  0.45594000000E+02  0.51100000000E-03 0. -1.
    9900012    2    1    2    0    0 -0.58662280039E+01 -0.31000619397E+02  0.46119900438E+01  0.59301929591E+02  0.49999973670E+02 0.  0.
         12    1    1    2    0    0  0.58662280039E+01  0.31000619397E+02 -0.46119900438E+01  0.31886070409E+02  0.00000000000E+00 0. -1.
         11    1    3    3    0    0  0.21197437562E+01 -0.70648577970E+01 -0.11260245138E+02  0.13461004796E+02  0.51100000000E-03 0. -1.
        -11    1    3    3    0    0 -0.19846996212E+02 -0.78163933793E+01  0.14476798187E+02  0.25779390026E+02  0.51100000000E-03 0.  1.
        -12    1    3    3    0    0  0.11861024452E+02 -0.16119368221E+02  0.13954369956E+01  0.20061534769E+02  0.00000000000E+00 0.  1.
</event>
<event>
 7    1  0.7755875E-012  0.5930192E+02  0.7816164E-02  0.1266605E+00
        -11   -1    0    0    0    0  0.00000000000E+00  0.00000000000E+00  0.45593999997E+02  0.45594000000E+02  0.51100000000E-03 0.  1.
         11   -1    0    0    0    0 -0.00000000000E+00 -0.00000000000E+00 -0.45593999997E+02  0.45594000000E+02  0.51100000000E-03 0. -1.
    9900012    2    1    2    0    0  0.29930606687E+02 -0.91087520583E+01  0.61572412745E+01  0.59301918384E+02  0.49999953232E+02 0.  0.
         12    1    1    2    0    0 -0.29930606687E+02  0.91087520583E+01 -0.61572412745E+01  0.31886081616E+02  0.00000000000E+00 0. -1.
         11    1    3    3    0    0  0.33656969678E+02 -0.13390605202E+02 -0.24199041232E+01  0.36303661686E+02  0.51100000000E-03 0.  1.
        -11    1    3    3    0    0 -0.77687301833E+01  0.28891821158E+01 -0.43653300484E+01  0.93678518696E+01  0.51100000000E-03 0. -1.
         12    1    3    3    0    0  0.40423671919E+01  0.13926710278E+01  0.12942475446E+02  0.13630404828E+02  0.00000000000E+00 0. -1.
</event>
<event>
 7    1  0.7755875E-012  0.5930195E+02  0.7816164E-02  0.1266605E+00
        -11   -1    0    0    0    0  0.00000000000E+00  0.00000000000E+00  0.45593999997E+02  0.45594000000E+02  0.51100000000E-03 0. -1.
         11   -1    0    0    0    0 -0.00000000000E+00 -0.00000000000E+00 -0.45593999997E+02  0.45594000000E+02  0.51100000000E-03 0.  1.
    9900012    2    1    2    0    0  0.27586939768E+02  0.52303504989E+01 -0.15110409008E+02  0.59301948622E+02  0.50000008378E+02 0.  0.
         12    1    1    2    0    0 -0.27586939768E+02 -0.52303504989E+01  0.15110409008E+02  0.31886051378E+02  0.00000000000E+00 0. -1.
         11    1    3    3    0    0  0.40063941703E+01  0.79365867211E+01  0.12343432560E+02  0.15211868086E+02  0.51100000000E-03 0. -1.
        -11    1    3    3    0    0  0.11751356363E+02 -0.13908061842E+02 -0.14407764813E+02  0.23218790833E+02  0.51100000000E-03 0.  1.
        -12    1    3    3    0    0  0.11829189235E+02  0.11201825620E+02 -0.13046076755E+02  0.20871289703E+02  0.00000000000E+00 0.  1.
</event>
<event>
 7    1  0.7755875E-012  0.5930190E+02  0.7816164E-02  0.1266605E+00
        -11   -1    0    0    0    0  0.00000000000E+00  0.00000000000E+00  0.45593999997E+02  0.45594000000E+02  0.51100000000E-03 0.  1.
         11   -1    0    0    0    0 -0.00000000000E+00 -0.00000000000E+00 -0.45593999997E+02  0.45594000000E+02  0.51100000000E-03 0. -1.
    9900012    2    1    2    0    0 -0.71736108258E+01  0.54697652969E+01  0.30583397057E+02  0.59301902713E+02  0.49999924652E+02 0.  0.
         12    1    1    2    0    0  0.71736108258E+01 -0.54697652969E+01 -0.30583397057E+02  0.31886097287E+02  0.00000000000E+00 0. -1.
         11    1    3    3    0    0  0.72168744270E+01  0.46923217406E+01 -0.41290043751E+01  0.95472423874E+01  0.51100000000E-03 0. -1.
        -11    1    3    3    0    0 -0.18541912821E+02  0.90907930030E+01  0.34795553404E+02  0.40462026462E+02  0.51100000000E-03 0.  1.
        -12    1    3    3    0    0  0.41514275679E+01 -0.83133494467E+01 -0.83151972048E-01  0.92926338637E+01  0.00000000000E+00 0.  1.
</event>
<event>
 7    1  0.7755875E-012  0.5930192E+02  0.7816164E-02  0.1266605E+00
        -11   -1    0    0    0    0  0.00000000000E+00  0.00000000000E+00  0.45593999997E+02  0.45594000000E+02  0.51100000000E-03 0.  1.
         11   -1    0    0    0    0 -0.00000000000E+00 -0.00000000000E+00 -0.45593999997E+02  0.45594000000E+02  0.51100000000E-03 0. -1.
    9900012    2    1    2    0    0  0.19934249920E+02 -0.24347083737E+02  0.51543282740E+01  0.59301923001E+02  0.49999961653E+02 0.  0.
         12    1    1    2    0    0 -0.19934249920E+02  0.24347083737E+02 -0.51543282740E+01  0.31886076999E+02  0.00000000000E+00 0. -1.
         11    1    3    3    0    0  0.14968702696E+02 -0.29923468985E+02 -0.62693225138E+01  0.34040864583E+02  0.51100000000E-03 0. -1.
        -11    1    3    3    0    0 -0.26219708536E+01  0.12992009679E+01  0.15407690734E+02  0.15683098811E+02  0.51100000000E-03 0.  1.
         12    1    3    3    0    0  0.75875180779E+01  0.42771842797E+01 -0.39840399461E+01  0.95779596072E+01  0.00000000000E+00 0. -1.
</event>
<event>
 7    1  0.7755875E-012  0.5930194E+02  0.7816164E-02  0.1266605E+00
        -11   -1    0    0    0    0  0.00000000000E+00  0.00000000000E+00  0.45593999997E+02  0.45594000000E+02  0.51100000000E-03 0.  1.
         11   -1    0    0    0    0 -0.00000000000E+00 -0.00000000000E+00 -0.45593999997E+02  0.45594000000E+02  0.51100000000E-03 0. -1.
    9900012    2    1    2    0    0  0.31064840125E+02 -0.55970308106E+01  0.45133148265E+01  0.59301936326E+02  0.49999985954E+02 0.  0.
         12    1    1    2    0    0 -0.31064840125E+02  0.55970308106E+01 -0.45133148265E+01  0.31886063674E+02  0.00000000000E+00 0. -1.
         11    1    3    3    0    0  0.17821224103E+02 -0.13442829023E+02 -0.88752711170E+01  0.24022408671E+02  0.51100000000E-03 0. -1.
        -11    1    3    3    0    0  0.21196114292E+02  0.67396302790E+01  0.15337470249E+02  0.27017325391E+02  0.51100000000E-03 0.  1.
        -12    1    3    3    0    0 -0.79524982701E+01  0.11061679330E+01 -0.19488843053E+01  0.82622022650E+01  0.00000000000E+00 0.  1.
</event>
<event>
 7    1  0.7755875E-012  0.5930193E+02  0.7816164E-02  0.1266605E+00
        -11   -1    0    0    0    0  0.00000000000E+00  0.00000000000E+00  0.45593999997E+02  0.45594000000E+02  0.51100000000E-03 0.  1.
         11   -1    0    0    0    0 -0.00000000000E+00 -0.00000000000E+00 -0.45593999997E+02  0.45594000000E+02  0.51100000000E-03 0. -1.
    9900012    2    1    2    0    0 -0.29872151890E+02 -0.68675098666E+01 -0.87871106788E+01  0.59301929932E+02  0.49999974293E+02 0.  0.
         12    1    1    2    0    0  0.29872151890E+02  0.68675098666E+01  0.87871106788E+01  0.31886070068E+02  0.00000000000E+00 0. -1.
         11    1    3    3    0    0 -0.19786191095E+01  0.68717227375E+01 -0.20015692136E+02  0.21254727448E+02  0.51100000000E-03 0. -1.
        -11    1    3    3    0    0 -0.26822398142E+02 -0.47565607192E+01  0.74320333517E+01  0.28236519474E+02  0.51100000000E-03 0.  1.
         12    1    3    3    0    0 -0.10711346379E+01 -0.89826718849E+01  0.37965481056E+01  0.98106830100E+01  0.00000000000E+00 0. -1.
</event>
<event>
 7    1  0.7755875E-012  0.5930201E+02  0.7816164E-02  0.1266605E+00
        -11   -1    0    0    0    0  0.00000000000E+00  0.00000000000E+00  0.45593999997E+02  0.45594000000E+02  0.51100000000E-03 0.  1.
         11   -1    0    0    0    0 -0.00000000000E+00 -0.00000000000E+00 -0.45593999997E+02  0.45594000000E+02  0.51100000000E-03 0. -1.
    9900012    2    1    2    0    0 -0.84322373705E+01  0.29284023831E+02  0.93840108366E+01  0.59302010315E+02  0.50000120891E+02 0.  0.
         12    1    1    2    0    0  0.84322373705E+01 -0.29284023831E+02 -0.93840108366E+01  0.31885989685E+02  0.00000000000E+00 0. -1.
         11    1    3    3    0    0 -0.94512143110E+01  0.22760663259E+02 -0.15480021899E+02  0.29103338678E+02  0.51100000000E-03 0. -1.
        -11    1    3    3    0    0 -0.14376589348E+01  0.37804625823E+01  0.26025292874E+02  0.26337703582E+02  0.51100000000E-03 0.  1.
         12    1    3    3    0    0  0.24566358752E+01  0.27428979905E+01 -0.11612601384E+01  0.38609680546E+01  0.00000000000E+00 0. -1.
</event>
<event>
 7    1  0.7755875E-012  0.5930193E+02  0.7816164E-02  0.1266605E+00
        -11   -1    0    0    0    0  0.00000000000E+00  0.00000000000E+00  0.45593999997E+02  0.45594000000E+02  0.51100000000E-03 0.  1.
         11   -1    0    0    0    0 -0.00000000000E+00 -0.00000000000E+00 -0.45593999997E+02  0.45594000000E+02  0.51100000000E-03 0. -1.
    9900012    2    1    2    0    0  0.15283819651E+02  0.21133041033E+02  0.18344506059E+02  0.59301929860E+02  0.49999974162E+02 0.  0.
         12    1    1    2    0    0 -0.15283819651E+02 -0.21133041033E+02 -0.18344506059E+02  0.31886070140E+02  0.00000000000E+00 0. -1.
         11    1    3    3    0    0  0.28069414173E+02  0.11393557796E+02 -0.26126358461E+01  0.30406101980E+02  0.51100000000E-03 0. -1.
        -11    1    3    3    0    0 -0.30280441141E+00 -0.19346034042E+01  0.14235510633E+00  0.19633252610E+01  0.51100000000E-03 0.  1.
         12    1    3    3    0    0 -0.12482790111E+02  0.11674086641E+02  0.20814786799E+02  0.26932502619E+02  0.00000000000E+00 0. -1.
</event>
<event>
 7    1  0.7755875E-012  0.5930195E+02  0.7816164E-02  0.1266605E+00
        -11   -1    0    0    0    0  0.00000000000E+00  0.00000000000E+00  0.45593999997E+02  0.45594000000E+02  0.51100000000E-03 0. -1.
         11   -1    0    0    0    0 -0.00000000000E+00 -0.00000000000E+00 -0.45593999997E+02  0.45594000000E+02  0.51100000000E-03 0.  1.
    9900012    2    1    2    0    0  0.61445709107E+01  0.29451227550E+02 -0.10563607076E+02  0.59301947402E+02  0.50000006153E+02 0.  0.
         12    1    1    2    0    0 -0.61445709107E+01 -0.29451227550E+02  0.10563607076E+02  0.31886052598E+02  0.00000000000E+00 0. -1.
         11    1    3    3    0    0 -0.70855205417E+00  0.15465627941E+02  0.34700532899E+01  0.15865968729E+02  0.51100000000E-03 0.  1.
        -11    1    3    3    0    0 -0.34518847360E+01 -0.55110627044E+01  0.92885641871E+01  0.11338639481E+02  0.51100000000E-03 0. -1.
        -12    1    3    3    0    0  0.10305007701E+02  0.19496662313E+02 -0.23322224553E+02  0.32097339191E+02  0.00000000000E+00 0.  1.
</event>
<event>
 7    1  0.7755875E-012  0.5930197E+02  0.7816164E-02  0.1266605E+00
        -11   -1    0    0    0    0  0.00000000000E+00  0.00000000000E+00  0.45593999997E+02  0.45594000000E+02  0.51100000000E-03 0. -1.
         11   -1    0    0    0    0 -0.00000000000E+00 -0.00000000000E+00 -0.45593999997E+02  0.45594000000E+02  0.51100000000E-03 0.  1.
    9900012    2    1    2    0    0 -0.50945154535E+01 -0.30153436334E+02  0.90296900886E+01  0.59301966795E+02  0.50000041521E+02 0.  0.
         12    1    1    2    0    0  0.50945154535E+01  0.30153436334E+02 -0.90296900886E+01  0.31886033205E+02  0.00000000000E+00 0. -1.
         11    1    3    3    0    0 -0.18465136215E+02  0.30609661319E+01  0.16952476705E+01  0.18793739224E+02  0.51100000000E-03 0. -1.
        -11    1    3    3    0    0  0.99971697281E+01 -0.19884472183E+02 -0.40929991201E+01  0.22629367614E+02  0.51100000000E-03 0.  1.
         12    1    3    3    0    0  0.33734510330E+01 -0.13329930283E+02  0.11427441538E+02  0.17878859956E+02  0.00000000000E+00 0. -1.
</event>
<event>
 7    1  0.7755875E-012  0.5930194E+02  0.7816164E-02  0.1266605E+00
        -11   -1    0    0    0    0  0.00000000000E+00  0.00000000000E+00  0.45593999997E+02  0.45594000000E+02  0.51100000000E-03 0.  1.
         11   -1    0    0    0    0 -0.00000000000E+00 -0.00000000000E+00 -0.45593999997E+02  0.45594000000E+02  0.51100000000E-03 0. -1.
    9900012    2    1    2    0    0  0.17826075670E+01 -0.92042131731E+01  0.30476634949E+02  0.59301944934E+02  0.50000001652E+02 0.  0.
         12    1    1    2    0    0 -0.17826075670E+01  0.92042131731E+01 -0.30476634949E+02  0.31886055066E+02  0.00000000000E+00 0. -1.
         11    1    3    3    0    0 -0.16198751532E+01 -0.21582058901E+02 -0.23826193971E+01  0.21773519178E+02  0.51100000000E-03 0. -1.
        -11    1    3    3    0    0  0.66362442426E+01  0.17870746889E+01  0.15245448115E+02  0.16722950161E+02  0.51100000000E-03 0.  1.
         12    1    3    3    0    0 -0.32337615225E+01  0.10590771039E+02  0.17613806231E+02  0.20805475595E+02  0.00000000000E+00 0. -1.
</event>
<event>
 7    1  0.7755875E-012  0.5930193E+02  0.7816164E-02  0.1266605E+00
        -11   -1    0    0    0    0  0.00000000000E+00  0.00000000000E+00  0.45593999997E+02  0.45594000000E+02  0.51100000000E-03 0.  1.
         11   -1    0    0    0    0 -0.00000000000E+00 -0.00000000000E+00 -0.45593999997E+02  0.45594000000E+02  0.51100000000E-03 0. -1.
    9900012    2    1    2    0    0  0.16763086601E+02  0.27026216519E+02 -0.23030599118E+01  0.59301928798E+02  0.49999972225E+02 0.  0.
         12    1    1    2    0    0 -0.16763086601E+02 -0.27026216519E+02  0.23030599118E+01  0.31886071202E+02  0.00000000000E+00 0. -1.
         11    1    3    3    0    0 -0.40998507883E+01 -0.37473486668E+01  0.92162351022E+01  0.10760594232E+02  0.51100000000E-03 0. -1.
        -11    1    3    3    0    0  0.24411877391E+02  0.32244634548E+02 -0.47014384996E+01  0.40715595773E+02  0.51100000000E-03 0.  1.
        -12    1    3    3    0    0 -0.35489400021E+01 -0.14710693619E+01 -0.68178565144E+01  0.78257387930E+01  0.00000000000E+00 0.  1.
</event>
<event>
 7    1  0.7755875E-012  0.5930195E+02  0.7816164E-02  0.1266605E+00
        -11   -1    0    0    0    0  0.00000000000E+00  0.00000000000E+00  0.45593999997E+02  0.45594000000E+02  0.51100000000E-03 0.  1.
         11   -1    0    0    0    0 -0.00000000000E+00 -0.00000000000E+00 -0.45593999997E+02  0.45594000000E+02  0.51100000000E-03 0. -1.
    9900012    2    1    2    0    0 -0.25899760903E+02 -0.95895556687E+01  0.15936218531E+02  0.59301948915E+02  0.50000008913E+02 0.  0.
         12    1    1    2    0    0  0.25899760903E+02  0.95895556687E+01 -0.15936218531E+02  0.31886051085E+02  0.00000000000E+00 0. -1.
         11    1    3    3    0    0 -0.69011360197E+01  0.18359599779E+02  0.78551030759E+01  0.21128256601E+02  0.51100000000E-03 0. -1.
        -11    1    3    3    0    0 -0.17132989846E+02 -0.16276886525E+02 -0.38321924753E+00  0.23635211724E+02  0.51100000000E-03 0.  1.
         12    1    3    3    0    0 -0.18656350374E+01 -0.11672268922E+02  0.84643347029E+01  0.14538480589E+02  0.00000000000E+00 0. -1.
</event>
<event>
 7    1  0.7755875E-012  0.5930200E+02  0.7816164E-02  0.1266605E+00
        -11   -1    0    0    0    0  0.00000000000E+00  0.00000000000E+00  0.45593999997E+02  0.45594000000E+02  0.51100000000E-03 0. -1.
         11   -1    0    0    0    0 -0.00000000000E+00 -0.00000000000E+00 -0.45593999997E+02  0.45594000000E+02  0.51100000000E-03 0.  1.
    9900012    2    1    2    0    0  0.19230896122E+02  0.23975175279E+02 -0.84900222645E+01  0.59302001923E+02  0.50000105588E+02 0.  0.
         12    1    1    2    0    0 -0.19230896122E+02 -0.23975175279E+02  0.84900222645E+01  0.31885998077E+02  0.00000000000E+00 0. -1.
         11    1    3    3    0    0 -0.64495029601E+01  0.26212873273E+01  0.85888846248E+01  0.11056046990E+02  0.51100000000E-03 0. -1.
        -11    1    3    3    0    0  0.18440367805E+02  0.28456554494E+02 -0.84904713186E+01  0.34955840169E+02  0.51100000000E-03 0.  1.
        -12    1    3    3    0    0  0.72400312767E+01 -0.71026665424E+01 -0.85884355708E+01  0.13290114764E+02  0.00000000000E+00 0.  1.
</event>
<event>
 7    1  0.7755875E-012  0.5930195E+02  0.7816164E-02  0.1266605E+00
        -11   -1    0    0    0    0  0.00000000000E+00  0.00000000000E+00  0.45593999997E+02  0.45594000000E+02  0.51100000000E-03 0. -1.
         11   -1    0    0    0    0 -0.00000000000E+00 -0.00000000000E+00 -0.45593999997E+02  0.45594000000E+02  0.51100000000E-03 0.  1.
    9900012    2    1    2    0    0  0.23086615121E+01 -0.19483643642E+02 -0.25135198694E+02  0.59301945040E+02  0.50000001846E+02 0.  0.
         12    1    1    2    0    0 -0.23086615121E+01  0.19483643642E+02  0.25135198694E+02  0.31886054960E+02  0.00000000000E+00 0. -1.
         11    1    3    3    0    0  0.71611311847E+01  0.15001715859E+02 -0.88919400811E+01  0.18852052335E+02  0.51100000000E-03 0. -1.
        -11    1    3    3    0    0 -0.63529746905E+01 -0.13539938061E+02 -0.11640319605E+02  0.18952236039E+02  0.51100000000E-03 0.  1.
         12    1    3    3    0    0  0.15005050179E+01 -0.20945421440E+02 -0.46029390075E+01  0.21497656666E+02  0.00000000000E+00 0. -1.
</event>
<event>
 7    1  0.7755875E-012  0.5930194E+02  0.7816164E-02  0.1266605E+00
        -11   -1    0    0    0    0  0.00000000000E+00  0.00000000000E+00  0.45593999997E+02  0.45594000000E+02  0.51100000000E-03 0.  1.
         11   -1    0    0    0    0 -0.00000000000E+00 -0.00000000000E+00 -0.45593999997E+02  0.45594000000E+02  0.51100000000E-03 0. -1.
    9900012    2    1    2    0    0  0.27305547243E+02  0.37652942484E+01  0.16029682017E+02  0.59301936326E+02  0.49999985954E+02 0.  0.
         12    1    1    2    0    0 -0.27305547243E+02 -0.37652942484E+01 -0.16029682017E+02  0.31886063674E+02  0.00000000000E+00 0. -1.
         11    1    3    3    0    0  0.47679044074E+01  0.96821679022E+01 -0.64947138475E+01  0.12595975387E+02  0.51100000000E-03 0. -1.
        -11    1    3    3    0    0  0.12847866229E+02 -0.16897564799E+02  0.17645060357E+01  0.21300442357E+02  0.51100000000E-03 0.  1.
        -12    1    3    3    0    0  0.96897766065E+01  0.10980691145E+02  0.20759889829E+02  0.25405518582E+02  0.00000000000E+00 0.  1.
</event>
<event>
 7    1  0.7755875E-012  0.5930194E+02  0.7816164E-02  0.1266605E+00
        -11   -1    0    0    0    0  0.00000000000E+00  0.00000000000E+00  0.45593999997E+02  0.45594000000E+02  0.51100000000E-03 0. -1.
         11   -1    0    0    0    0 -0.00000000000E+00 -0.00000000000E+00 -0.45593999997E+02  0.45594000000E+02  0.51100000000E-03 0.  1.
    9900012    2    1    2    0    0  0.14616923064E+02  0.28338028533E+02 -0.15102918446E+00  0.59301935476E+02  0.49999984405E+02 0.  0.
         12    1    1    2    0    0 -0.14616923064E+02 -0.28338028533E+02  0.15102918446E+00  0.31886064524E+02  0.00000000000E+00 0. -1.
         11    1    3    3    0    0  0.57875432159E+01 -0.95202669319E+01 -0.11403831675E+02  0.15942977014E+02  0.51100000000E-03 0. -1.
        -11    1    3    3    0    0  0.12375580812E+02  0.19718790201E+02  0.47105230278E+01  0.23752362301E+02  0.51100000000E-03 0.  1.
         12    1    3    3    0    0 -0.35462009637E+01  0.18139505264E+02  0.65422794623E+01  0.19606596162E+02  0.00000000000E+00 0. -1.
</event>
<event>
 7    1  0.7755875E-012  0.5930197E+02  0.7816164E-02  0.1266605E+00
        -11   -1    0    0    0    0  0.00000000000E+00  0.00000000000E+00  0.45593999997E+02  0.45594000000E+02  0.51100000000E-03 0.  1.
         11   -1    0    0    0    0 -0.00000000000E+00 -0.00000000000E+00 -0.45593999997E+02  0.45594000000E+02  0.51100000000E-03 0. -1.
    9900012    2    1    2    0    0 -0.14651210162E+02 -0.19046075000E+02  0.20959679771E+02  0.59301966878E+02  0.50000041673E+02 0.  0.
         12    1    1    2    0    0  0.14651210162E+02  0.19046075000E+02 -0.20959679771E+02  0.31886033122E+02  0.00000000000E+00 0. -1.
         11    1    3    3    0    0  0.16608145102E+00  0.42363257617E+00 -0.19500410803E+01  0.20024255502E+01  0.51100000000E-03 0. -1.
        -11    1    3    3    0    0 -0.65881608530E+01 -0.10221036272E+02  0.36762301153E+02  0.38721314960E+02  0.51100000000E-03 0.  1.
        -12    1    3    3    0    0 -0.82291307601E+01 -0.92486713050E+01 -0.13852580301E+02  0.18578226368E+02  0.00000000000E+00 0.  1.
</event>
<event>
 7    1  0.7755875E-012  0.5930194E+02  0.7816164E-02  0.1266605E+00
        -11   -1    0    0    0    0  0.00000000000E+00  0.00000000000E+00  0.45593999997E+02  0.45594000000E+02  0.51100000000E-03 0.  1.
         11   -1    0    0    0    0 -0.00000000000E+00 -0.00000000000E+00 -0.45593999997E+02  0.45594000000E+02  0.51100000000E-03 0. -1.
    9900012    2    1    2    0    0 -0.31033167456E+02 -0.57061401115E+01  0.45938621808E+01  0.59301935849E+02  0.49999985084E+02 0.  0.
         12    1    1    2    0    0  0.31033167456E+02  0.57061401115E+01 -0.45938621808E+01  0.31886064151E+02  0.00000000000E+00 0. -1.
         11    1    3    3    0    0 -0.23450409919E+01 -0.62559084632E+01 -0.79476517759E+01  0.10382715298E+02  0.51100000000E-03 0. -1.
        -11    1    3    3    0    0  0.31395023512E+01  0.12135900018E+02  0.76806515089E+01  0.14701324843E+02  0.51100000000E-03 0.  1.
        -12    1    3    3    0    0 -0.31827628815E+02 -0.11586131667E+02  0.48608624478E+01  0.34217895708E+02  0.00000000000E+00 0.  1.
</event>
<event>
 7    1  0.7755875E-012  0.5930194E+02  0.7816164E-02  0.1266605E+00
        -11   -1    0    0    0    0  0.00000000000E+00  0.00000000000E+00  0.45593999997E+02  0.45594000000E+02  0.51100000000E-03 0. -1.
         11   -1    0    0    0    0 -0.00000000000E+00 -0.00000000000E+00 -0.45593999997E+02  0.45594000000E+02  0.51100000000E-03 0.  1.
    9900012    2    1    2    0    0 -0.31227479638E+02  0.63844564006E+01  0.89665978600E+00  0.59301940870E+02  0.49999994241E+02 0.  0.
         12    1    1    2    0    0  0.31227479638E+02 -0.63844564006E+01 -0.89665978600E+00  0.31886059130E+02  0.00000000000E+00 0. -1.
         11    1    3    3    0    0 -0.32108706331E+02  0.62987369977E+01  0.94562046695E+01  0.34059696374E+02  0.51100000000E-03 0. -1.
        -11    1    3    3    0    0 -0.54908890756E+01 -0.10192180779E+02 -0.31744327391E+01  0.12004475638E+02  0.51100000000E-03 0.  1.
         12    1    3    3    0    0  0.63721157692E+01  0.10277900182E+02 -0.53851121444E+01  0.13237768858E+02  0.00000000000E+00 0. -1.
</event>
<event>
 7    1  0.7755875E-012  0.5930193E+02  0.7816164E-02  0.1266605E+00
        -11   -1    0    0    0    0  0.00000000000E+00  0.00000000000E+00  0.45593999997E+02  0.45594000000E+02  0.51100000000E-03 0.  1.
         11   -1    0    0    0    0 -0.00000000000E+00 -0.00000000000E+00 -0.45593999997E+02  0.45594000000E+02  0.51100000000E-03 0. -1.
    9900012    2    1    2    0    0  0.73777750599E+01  0.29921862927E+02 -0.81836277689E+01  0.59301933931E+02  0.49999981586E+02 0.  0.
         12    1    1    2    0    0 -0.73777750599E+01 -0.29921862927E+02  0.81836277689E+01  0.31886066069E+02  0.00000000000E+00 0. -1.
         11    1    3    3    0    0  0.72625284483E+01 -0.31107913944E+01 -0.10671414989E+01  0.79724609626E+01  0.51100000000E-03 0. -1.
        -11    1    3    3    0    0  0.11258283321E+02  0.21395915612E+02  0.11446338047E+02  0.26749818750E+02  0.51100000000E-03 0.  1.
        -12    1    3    3    0    0 -0.11143036709E+02  0.11636738710E+02 -0.18562824317E+02  0.24579654219E+02  0.00000000000E+00 0.  1.
</event>
<event>
 7    1  0.7755875E-012  0.5930194E+02  0.7816164E-02  0.1266605E+00
        -11   -1    0    0    0    0  0.00000000000E+00  0.00000000000E+00  0.45593999997E+02  0.45594000000E+02  0.51100000000E-03 0.  1.
         11   -1    0    0    0    0 -0.00000000000E+00 -0.00000000000E+00 -0.45593999997E+02  0.45594000000E+02  0.51100000000E-03 0. -1.
    9900012    2    1    2    0    0  0.61592249875E+01  0.79419642847E+01  0.30260699105E+02  0.59301940985E+02  0.49999994451E+02 0.  0.
         12    1    1    2    0    0 -0.61592249875E+01 -0.79419642847E+01 -0.30260699105E+02  0.31886059015E+02  0.00000000000E+00 0. -1.
         11    1    3    3    0    0 -0.75658812578E+01  0.32158481797E+01  0.41720331679E+01  0.92190075245E+01  0.51100000000E-03 0. -1.
        -11    1    3    3    0    0  0.20637810267E+02  0.48817501490E+01  0.33688805452E+02  0.39808118646E+02  0.51100000000E-03 0.  1.
        -12    1    3    3    0    0 -0.69127040214E+01 -0.15563404396E+00 -0.76001395140E+01  0.10274814815E+02  0.00000000000E+00 0.  1.
</event>
<event>
 7    1  0.7755875E-012  0.5930194E+02  0.7816164E-02  0.1266605E+00
        -11   -1    0    0    0    0  0.00000000000E+00  0.00000000000E+00  0.45593999997E+02  0.45594000000E+02  0.51100000000E-03 0.  1.
         11   -1    0    0    0    0 -0.00000000000E+00 -0.00000000000E+00 -0.45593999997E+02  0.45594000000E+02  0.51100000000E-03 0. -1.
    9900012    2    1    2    0    0  0.28534680340E+02 -0.13574376147E+02  0.42695387244E+01  0.59301943003E+02  0.49999998131E+02 0.  0.
         12    1    1    2    0    0 -0.28534680340E+02  0.13574376147E+02 -0.42695387244E+01  0.31886056997E+02  0.00000000000E+00 0. -1.
         11    1    3    3    0    0 -0.45936006390E+01 -0.86181877615E+01 -0.13349282647E+02  0.16540183631E+02  0.51100000000E-03 0. -1.
        -11    1    3    3    0    0  0.26491991867E+02 -0.61062584249E+01  0.38816562511E+01  0.27462324748E+02  0.51100000000E-03 0.  1.
         12    1    3    3    0    0  0.66362891123E+01  0.11500700390E+01  0.13737165120E+02  0.15299434624E+02  0.00000000000E+00 0. -1.
</event>
<event>
 7    1  0.7755875E-012  0.5930199E+02  0.7816164E-02  0.1266605E+00
        -11   -1    0    0    0    0  0.00000000000E+00  0.00000000000E+00  0.45593999997E+02  0.45594000000E+02  0.51100000000E-03 0.  1.
         11   -1    0    0    0    0 -0.00000000000E+00 -0.00000000000E+00 -0.45593999997E+02  0.45594000000E+02  0.51100000000E-03 0. -1.
    9900012    2    1    2    0    0  0.96815719225E+01  0.16563013641E+02  0.25468632166E+02  0.59301992408E+02  0.50000088233E+02 0.  0.
         12    1    1    2    0    0 -0.96815719225E+01 -0.16563013641E+02 -0.25468632166E+02  0.31886007592E+02  0.00000000000E+00 0. -1.
         11    1    3    3    0    0  0.10651238726E+02 -0.54701426788E+01  0.67193747758E+01  0.13730307534E+02  0.51100000000E-03 0. -1.
        -11    1    3    3    0    0 -0.96436104616E+01  0.26896649618E+02  0.56518393016E+01  0.29126830778E+02  0.51100000000E-03 0.  1.
        -12    1    3    3    0    0  0.86739436581E+01 -0.48634932983E+01  0.13097418089E+02  0.16444854096E+02  0.00000000000E+00 0.  1.
</event>
<event>
 7    1  0.7755875E-012  0.5930190E+02  0.7816164E-02  0.1266605E+00
        -11   -1    0    0    0    0  0.00000000000E+00  0.00000000000E+00  0.45593999997E+02  0.45594000000E+02  0.51100000000E-03 0.  1.
         11   -1    0    0    0    0 -0.00000000000E+00 -0.00000000000E+00 -0.45593999997E+02  0.45594000000E+02  0.51100000000E-03 0. -1.
    9900012    2    1    2    0    0 -0.76389800507E+01 -0.35715601747E+01  0.30750828107E+02  0.59301898206E+02  0.49999916433E+02 0.  0.
         12    1    1    2    0    0  0.76389800507E+01  0.35715601747E+01 -0.30750828107E+02  0.31886101794E+02  0.00000000000E+00 0. -1.
         11    1    3    3    0    0 -0.98902915026E+01 -0.84626823313E+01  0.72661153383E+01  0.14907424010E+02  0.51100000000E-03 0. -1.
        -11    1    3    3    0    0 -0.12163805936E+01  0.21064619578E+02  0.14088444303E+02  0.25370889674E+02  0.51100000000E-03 0.  1.
        -12    1    3    3    0    0  0.34676920456E+01 -0.16173497422E+02  0.93962684662E+01  0.19023584522E+02  0.00000000000E+00 0.  1.
</event>
<event>
 7    1  0.7755875E-012  0.5930195E+02  0.7816164E-02  0.1266605E+00
        -11   -1    0    0    0    0  0.00000000000E+00  0.00000000000E+00  0.45593999997E+02  0.45594000000E+02  0.51100000000E-03 0.  1.
         11   -1    0    0    0    0 -0.00000000000E+00 -0.00000000000E+00 -0.45593999997E+02  0.45594000000E+02  0.51100000000E-03 0. -1.
    9900012    2    1    2    0    0  0.53510868791E+01 -0.18507308061E+02  0.25407980645E+02  0.59301951908E+02  0.50000014373E+02 0.  0.
         12    1    1    2    0    0 -0.53510868791E+01  0.18507308061E+02 -0.25407980645E+02  0.31886048092E+02  0.00000000000E+00 0. -1.
         11    1    3    3    0    0  0.18951722717E+02 -0.20817400361E+02  0.11762391602E+02  0.30510421305E+02  0.51100000000E-03 0.  1.
        -11    1    3    3    0    0 -0.19259505691E+02  0.32013948440E+01  0.11592966134E+02  0.22706262406E+02  0.51100000000E-03 0. -1.
         12    1    3    3    0    0  0.56588698526E+01 -0.89130254408E+00  0.20526229090E+01  0.60852681978E+01  0.00000000000E+00 0. -1.
</event>
<event>
 7    1  0.7755875E-012  0.5930194E+02  0.7816164E-02  0.1266605E+00
        -11   -1    0    0    0    0  0.00000000000E+00  0.00000000000E+00  0.45593999997E+02  0.45594000000E+02  0.51100000000E-03 0.  1.
         11   -1    0    0    0    0 -0.00000000000E+00 -0.00000000000E+00 -0.45593999997E+02  0.45594000000E+02  0.51100000000E-03 0. -1.
    9900012    2    1    2    0    0  0.19852162481E+02 -0.20842962553E+02  0.13717987916E+02  0.59301942928E+02  0.49999997994E+02 0.  0.
         12    1    1    2    0    0 -0.19852162481E+02  0.20842962553E+02 -0.13717987916E+02  0.31886057072E+02  0.00000000000E+00 0. -1.
         11    1    3    3    0    0  0.68152054595E+01 -0.61419144038E+01 -0.16710395124E+02  0.19063248502E+02  0.51100000000E-03 0. -1.
        -11    1    3    3    0    0 -0.17587555475E-01 -0.73301050462E+01  0.21669718312E+02  0.22875913999E+02  0.51100000000E-03 0.  1.
         12    1    3    3    0    0  0.13054544577E+02 -0.73709431028E+01  0.87586647276E+01  0.17362780427E+02  0.00000000000E+00 0. -1.
</event>
<event>
 7    1  0.7755875E-012  0.5930170E+02  0.7816164E-02  0.1266606E+00
        -11   -1    0    0    0    0  0.00000000000E+00  0.00000000000E+00  0.45593999997E+02  0.45594000000E+02  0.51100000000E-03 0.  1.
         11   -1    0    0    0    0 -0.00000000000E+00 -0.00000000000E+00 -0.45593999997E+02  0.45594000000E+02  0.51100000000E-03 0. -1.
    9900012    2    1    2    0    0  0.25287221369E+02 -0.19056181317E+02 -0.37622847973E+01  0.59301695764E+02  0.49999547224E+02 0.  0.
         12    1    1    2    0    0 -0.25287221369E+02  0.19056181317E+02  0.37622847973E+01  0.31886304236E+02  0.00000000000E+00 0. -1.
         11    1    3    3    0    0  0.32629999538E+02 -0.24630414415E+02 -0.85606575412E+01  0.41769115886E+02  0.51100000000E-03 0. -1.
        -11    1    3    3    0    0  0.45617647053E+00  0.47873856393E+01  0.77798059627E+01  0.91461762125E+01  0.51100000000E-03 0.  1.
         12    1    3    3    0    0 -0.77989546399E+01  0.78684745829E+00 -0.29814332189E+01  0.83864036653E+01  0.00000000000E+00 0. -1.
</event>
<event>
 7    1  0.7755875E-012  0.5930194E+02  0.7816164E-02  0.1266605E+00
        -11   -1    0    0    0    0  0.00000000000E+00  0.00000000000E+00  0.45593999997E+02  0.45594000000E+02  0.51100000000E-03 0.  1.
         11   -1    0    0    0    0 -0.00000000000E+00 -0.00000000000E+00 -0.45593999997E+02  0.45594000000E+02  0.51100000000E-03 0. -1.
    9900012    2    1    2    0    0 -0.57201264469E+01  0.22330616630E+02  0.22030536949E+02  0.59301939662E+02  0.49999992037E+02 0.  0.
         12    1    1    2    0    0  0.57201264469E+01 -0.22330616630E+02 -0.22030536949E+02  0.31886060338E+02  0.00000000000E+00 0. -1.
         11    1    3    3    0    0 -0.55282276347E+01  0.27248021807E+02 -0.33950951370E+01  0.28009688760E+02  0.51100000000E-03 0. -1.
        -11    1    3    3    0    0  0.56536670292E+00 -0.66818264065E+01  0.98657946652E+00  0.67778892688E+01  0.51100000000E-03 0.  1.
         12    1    3    3    0    0 -0.75726551514E+00  0.17644212295E+01  0.24439052619E+02  0.24514361633E+02  0.00000000000E+00 0. -1.
</event>
<event>
 7    1  0.7755875E-012  0.5930185E+02  0.7816164E-02  0.1266605E+00
        -11   -1    0    0    0    0  0.00000000000E+00  0.00000000000E+00  0.45593999997E+02  0.45594000000E+02  0.51100000000E-03 0.  1.
         11   -1    0    0    0    0 -0.00000000000E+00 -0.00000000000E+00 -0.45593999997E+02  0.45594000000E+02  0.51100000000E-03 0. -1.
    9900012    2    1    2    0    0 -0.13606279627E+02  0.15150906368E+02  0.24536614833E+02  0.59301854474E+02  0.49999836675E+02 0.  0.
         12    1    1    2    0    0  0.13606279627E+02 -0.15150906368E+02 -0.24536614833E+02  0.31886145526E+02  0.00000000000E+00 0. -1.
         11    1    3    3    0    0 -0.22242478996E+02  0.24512605747E+02  0.69190037390E+01  0.33815208493E+02  0.51100000000E-03 0.  1.
        -11    1    3    3    0    0  0.11015824816E+02 -0.68430291227E+01  0.17792752891E+02  0.22017209171E+02  0.51100000000E-03 0. -1.
        -12    1    3    3    0    0 -0.23796254475E+01 -0.25186702568E+01 -0.17514179685E+00  0.34694368105E+01  0.00000000000E+00 0.  1.
</event>
<event>
 7    1  0.7755875E-012  0.5930192E+02  0.7816164E-02  0.1266605E+00
        -11   -1    0    0    0    0  0.00000000000E+00  0.00000000000E+00  0.45593999997E+02  0.45594000000E+02  0.51100000000E-03 0.  1.
         11   -1    0    0    0    0 -0.00000000000E+00 -0.00000000000E+00 -0.45593999997E+02  0.45594000000E+02  0.51100000000E-03 0. -1.
    9900012    2    1    2    0    0 -0.90822827943E+01  0.15655743785E+02  0.26251320684E+02  0.59301921347E+02  0.49999958636E+02 0.  0.
         12    1    1    2    0    0  0.90822827943E+01 -0.15655743785E+02 -0.26251320684E+02  0.31886078653E+02  0.00000000000E+00 0. -1.
         11    1    3    3    0    0  0.35588502430E+01  0.20825152692E+01  0.13038503761E+02  0.13674972229E+02  0.51100000000E-03 0. -1.
        -11    1    3    3    0    0 -0.19454850738E+02 -0.60469802124E+01 -0.11009684988E+01  0.20402679207E+02  0.51100000000E-03 0.  1.
        -12    1    3    3    0    0  0.68137177008E+01  0.19620208728E+02  0.14313785422E+02  0.25224269911E+02  0.00000000000E+00 0.  1.
</event>
<event>
 7    1  0.7755875E-012  0.5930192E+02  0.7816164E-02  0.1266605E+00
        -11   -1    0    0    0    0  0.00000000000E+00  0.00000000000E+00  0.45593999997E+02  0.45594000000E+02  0.51100000000E-03 0. -1.
         11   -1    0    0    0    0 -0.00000000000E+00 -0.00000000000E+00 -0.45593999997E+02  0.45594000000E+02  0.51100000000E-03 0.  1.
    9900012    2    1    2    0    0 -0.18089670378E+02  0.25795014853E+02 -0.49094681462E+01  0.59301923993E+02  0.49999963461E+02 0.  0.
         12    1    1    2    0    0  0.18089670378E+02 -0.25795014853E+02  0.49094681462E+01  0.31886076007E+02  0.00000000000E+00 0. -1.
         11    1    3    3    0    0  0.58510897893E-01 -0.35290962721E+01  0.96969610738E+01  0.10319350675E+02  0.51100000000E-03 0. -1.
        -11    1    3    3    0    0 -0.22506050867E+02  0.27117247938E+02 -0.20933877956E+02  0.40988958365E+02  0.51100000000E-03 0.  1.
        -12    1    3    3    0    0  0.43578695908E+01  0.22068631876E+01  0.63274487361E+01  0.79936149524E+01  0.00000000000E+00 0.  1.
</event>
<event>
 7    1  0.7755875E-012  0.5930195E+02  0.7816164E-02  0.1266605E+00
        -11   -1    0    0    0    0  0.00000000000E+00  0.00000000000E+00  0.45593999997E+02  0.45594000000E+02  0.51100000000E-03 0.  1.
         11   -1    0    0    0    0 -0.00000000000E+00 -0.00000000000E+00 -0.45593999997E+02  0.45594000000E+02  0.51100000000E-03 0. -1.
    9900012    2    1    2    0    0 -0.79933526387E+01 -0.27832941810E+01  0.30742150389E+02  0.59301949391E+02  0.50000009781E+02 0.  0.
         12    1    1    2    0    0  0.79933526387E+01  0.27832941810E+01 -0.30742150389E+02  0.31886050609E+02  0.00000000000E+00 0. -1.
         11    1    3    3    0    0 -0.18831291206E+02 -0.32446178974E+01  0.86498032215E+01  0.20975322877E+02  0.51100000000E-03 0. -1.
        -11    1    3    3    0    0  0.11735091772E+02 -0.16342184466E+00  0.29025167806E+02  0.31308137154E+02  0.51100000000E-03 0.  1.
        -12    1    3    3    0    0 -0.89715320516E+00  0.62474556098E+00 -0.69328206382E+01  0.70184893596E+01  0.00000000000E+00 0.  1.
</event>
<event>
 7    1  0.7755875E-012  0.5930190E+02  0.7816164E-02  0.1266605E+00
        -11   -1    0    0    0    0  0.00000000000E+00  0.00000000000E+00  0.45593999997E+02  0.45594000000E+02  0.51100000000E-03 0. -1.
         11   -1    0    0    0    0 -0.00000000000E+00 -0.00000000000E+00 -0.45593999997E+02  0.45594000000E+02  0.51100000000E-03 0.  1.
    9900012    2    1    2    0    0  0.27639409175E+02 -0.12688780413E+02 -0.95802642616E+01  0.59301897208E+02  0.49999914612E+02 0.  0.
         12    1    1    2    0    0 -0.27639409175E+02  0.12688780413E+02  0.95802642616E+01  0.31886102792E+02  0.00000000000E+00 0. -1.
         11    1    3    3    0    0  0.14737985123E+02  0.25129595766E+01 -0.23010696890E+02  0.27441125030E+02  0.51100000000E-03 0. -1.
        -11    1    3    3    0    0  0.16235187923E+02 -0.12843457231E+02  0.16725574215E+02  0.26613540795E+02  0.51100000000E-03 0.  1.
        -12    1    3    3    0    0 -0.33337638707E+01 -0.23582827585E+01 -0.32951415869E+01  0.52472313835E+01  0.00000000000E+00 0.  1.
</event>
<event>
 7    1  0.7755875E-012  0.5930200E+02  0.7816164E-02  0.1266605E+00
        -11   -1    0    0    0    0  0.00000000000E+00  0.00000000000E+00  0.45593999997E+02  0.45594000000E+02  0.51100000000E-03 0. -1.
         11   -1    0    0    0    0 -0.00000000000E+00 -0.00000000000E+00 -0.45593999997E+02  0.45594000000E+02  0.51100000000E-03 0.  1.
    9900012    2    1    2    0    0 -0.82757459820E+00  0.25778960998E+02 -0.18747726333E+02  0.59302000682E+02  0.50000103325E+02 0.  0.
         12    1    1    2    0    0  0.82757459820E+00 -0.25778960998E+02  0.18747726333E+02  0.31885999318E+02  0.00000000000E+00 0. -1.
         11    1    3    3    0    0 -0.37902108576E+01  0.27652589441E+02 -0.15346729579E+02  0.31852056608E+02  0.51100000000E-03 0. -1.
        -11    1    3    3    0    0 -0.10797216173E+02 -0.61896532721E+01  0.67581350114E+00  0.12463884181E+02  0.51100000000E-03 0.  1.
         12    1    3    3    0    0  0.13759852433E+02  0.43160248290E+01 -0.40768102546E+01  0.14986059894E+02  0.00000000000E+00 0. -1.
</event>
<event>
 7    1  0.7755875E-012  0.5930196E+02  0.7816164E-02  0.1266605E+00
        -11   -1    0    0    0    0  0.00000000000E+00  0.00000000000E+00  0.45593999997E+02  0.45594000000E+02  0.51100000000E-03 0.  1.
         11   -1    0    0    0    0 -0.00000000000E+00 -0.00000000000E+00 -0.45593999997E+02  0.45594000000E+02  0.51100000000E-03 0. -1.
    9900012    2    1    2    0    0  0.97272567135E+01 -0.29598424522E+02 -0.67847998183E+01  0.59301956565E+02  0.50000022865E+02 0.  0.
         12    1    1    2    0    0 -0.97272567135E+01  0.29598424522E+02  0.67847998183E+01  0.31886043435E+02  0.00000000000E+00 0. -1.
         11    1    3    3    0    0 -0.82026525576E+00  0.33306502306E+01  0.15360403719E+01  0.37583887949E+01  0.51100000000E-03 0. -1.
        -11    1    3    3    0    0  0.14234899010E+02 -0.39406958528E+02 -0.15992115622E+02  0.44847391145E+02  0.51100000000E-03 0.  1.
        -12    1    3    3    0    0 -0.36873770406E+01  0.64778837749E+01  0.76712754318E+01  0.10696176625E+02  0.00000000000E+00 0.  1.
</event>
<event>
 7    1  0.7755875E-012  0.5930155E+02  0.7816164E-02  0.1266606E+00
        -11   -1    0    0    0    0  0.00000000000E+00  0.00000000000E+00  0.45593999997E+02  0.45594000000E+02  0.51100000000E-03 0.  1.
         11   -1    0    0    0    0 -0.00000000000E+00 -0.00000000000E+00 -0.45593999997E+02  0.45594000000E+02  0.51100000000E-03 0. -1.
    9900012    2    1    2    0    0 -0.22874721938E+02 -0.37962524099E+01  0.21887929327E+02  0.59301546978E+02  0.49999275871E+02 0.  0.
         12    1    1    2    0    0  0.22874721938E+02  0.37962524099E+01 -0.21887929327E+02  0.31886453022E+02  0.00000000000E+00 0. -1.
         11    1    3    3    0    0  0.89311134921E+01 -0.28734070802E+01 -0.50278909916E+01  0.10644291641E+02  0.51100000000E-03 0. -1.
        -11    1    3    3    0    0 -0.25943125915E+02 -0.78707638677E+01  0.89977468860E+01  0.28564911262E+02  0.51100000000E-03 0.  1.
        -12    1    3    3    0    0 -0.58627095151E+01  0.69479185380E+01  0.17918073433E+02  0.20092344075E+02  0.00000000000E+00 0.  1.
</event>
<event>
 7    1  0.7755875E-012  0.5930196E+02  0.7816164E-02  0.1266605E+00
        -11   -1    0    0    0    0  0.00000000000E+00  0.00000000000E+00  0.45593999997E+02  0.45594000000E+02  0.51100000000E-03 0. -1.
         11   -1    0    0    0    0 -0.00000000000E+00 -0.00000000000E+00 -0.45593999997E+02  0.45594000000E+02  0.51100000000E-03 0.  1.
    9900012    2    1    2    0    0  0.12338833171E+02  0.27294799058E+02 -0.10930074802E+02  0.59301962385E+02  0.50000033479E+02 0.  0.
         12    1    1    2    0    0 -0.12338833171E+02 -0.27294799058E+02  0.10930074802E+02  0.31886037615E+02  0.00000000000E+00 0. -1.
         11    1    3    3    0    0  0.22220032894E+02  0.17261874039E+02 -0.25402584303E+01  0.28251638365E+02  0.51100000000E-03 0. -1.
        -11    1    3    3    0    0 -0.13094857942E+02  0.74396644612E+01  0.59005272427E+01  0.16175293933E+02  0.51100000000E-03 0.  1.
        -12    1    3    3    0    0  0.32136582186E+01  0.25932605570E+01 -0.14290343614E+02  0.14875030087E+02  0.00000000000E+00 0.  1.
</event>
<event>
 7    1  0.7755875E-012  0.5930195E+02  0.7816164E-02  0.1266605E+00
        -11   -1    0    0    0    0  0.00000000000E+00  0.00000000000E+00  0.45593999997E+02  0.45594000000E+02  0.51100000000E-03 0. -1.
         11   -1    0    0    0    0 -0.00000000000E+00 -0.00000000000E+00 -0.45593999997E+02  0.45594000000E+02  0.51100000000E-03 0.  1.
    9900012    2    1    2    0    0  0.24228886247E+02  0.14886839973E+02 -0.14424408656E+02  0.59301945082E+02  0.50000001923E+02 0.  0.
         12    1    1    2    0    0 -0.24228886247E+02 -0.14886839973E+02  0.14424408656E+02  0.31886054918E+02  0.00000000000E+00 0. -1.
         11    1    3    3    0    0  0.12060031296E+01 -0.12179273992E+01 -0.73295023028E+01  0.75272435171E+01  0.51100000000E-03 0. -1.
        -11    1    3    3    0    0 -0.25606307115E+01  0.22369390818E+02  0.45589312836E+01  0.22972381895E+02  0.51100000000E-03 0.  1.
        -12    1    3    3    0    0  0.25583513829E+02 -0.62646234458E+01 -0.11653837637E+02  0.28802319670E+02  0.00000000000E+00 0.  1.
</event>
<event>
 7    1  0.7755875E-012  0.5930192E+02  0.7816164E-02  0.1266605E+00
        -11   -1    0    0    0    0  0.00000000000E+00  0.00000000000E+00  0.45593999997E+02  0.45594000000E+02  0.51100000000E-03 0.  1.
         11   -1    0    0    0    0 -0.00000000000E+00 -0.00000000000E+00 -0.45593999997E+02  0.45594000000E+02  0.51100000000E-03 0. -1.
    9900012    2    1    2    0    0 -0.14916908316E+02  0.87763103162E+01  0.26780293386E+02  0.59301923254E+02  0.49999962113E+02 0.  0.
         12    1    1    2    0    0  0.14916908316E+02 -0.87763103162E+01 -0.26780293386E+02  0.31886076746E+02  0.00000000000E+00 0. -1.
         11    1    3    3    0    0  0.83003986497E+01  0.96308821925E+01 -0.67865667200E+01  0.14412078187E+02  0.51100000000E-03 0. -1.
        -11    1    3    3    0    0 -0.61229462192E+01 -0.85473253553E+01  0.16342374258E+02  0.19432458356E+02  0.51100000000E-03 0.  1.
         12    1    3    3    0    0 -0.17094360746E+02  0.76927534790E+01  0.17224485848E+02  0.25457386711E+02  0.00000000000E+00 0. -1.
</event>
<event>
 7    1  0.7755875E-012  0.5930184E+02  0.7816164E-02  0.1266605E+00
        -11   -1    0    0    0    0  0.00000000000E+00  0.00000000000E+00  0.45593999997E+02  0.45594000000E+02  0.51100000000E-03 0. -1.
         11   -1    0    0    0    0 -0.00000000000E+00 -0.00000000000E+00 -0.45593999997E+02  0.45594000000E+02  0.51100000000E-03 0.  1.
    9900012    2    1    2    0    0 -0.15047388764E+02  0.91320454013E+01 -0.26587762246E+02  0.59301839004E+02  0.49999808462E+02 0.  0.
         12    1    1    2    0    0  0.15047388764E+02 -0.91320454013E+01  0.26587762246E+02  0.31886160996E+02  0.00000000000E+00 0. -1.
         11    1    3    3    0    0 -0.21054028355E+02 -0.10355582285E+02 -0.91158951528E+01  0.25171605811E+02  0.51100000000E-03 0. -1.
        -11    1    3    3    0    0  0.96558633510E+01  0.17007581751E+01 -0.11281620932E+02  0.14946680118E+02  0.51100000000E-03 0.  1.
         12    1    3    3    0    0 -0.36492237602E+01  0.17786869511E+02 -0.61902461609E+01  0.19183553075E+02  0.00000000000E+00 0. -1.
</event>
<event>
 7    1  0.7755875E-012  0.5930193E+02  0.7816164E-02  0.1266605E+00
        -11   -1    0    0    0    0  0.00000000000E+00  0.00000000000E+00  0.45593999997E+02  0.45594000000E+02  0.51100000000E-03 0.  1.
         11   -1    0    0    0    0 -0.00000000000E+00 -0.00000000000E+00 -0.45593999997E+02  0.45594000000E+02  0.51100000000E-03 0. -1.
    9900012    2    1    2    0    0  0.22134352915E+01  0.31274695951E+02 -0.58064900001E+01  0.59301933627E+02  0.49999981032E+02 0.  0.
         12    1    1    2    0    0 -0.22134352915E+01 -0.31274695951E+02  0.58064900001E+01  0.31886066373E+02  0.00000000000E+00 0. -1.
         11    1    3    3    0    0  0.12077874516E+02  0.39056483296E+01 -0.18825249339E+02  0.22705046898E+02  0.51100000000E-03 0. -1.
        -11    1    3    3    0    0 -0.92572139253E+01  0.14869881868E+02 -0.13196946519E+01  0.17565619563E+02  0.51100000000E-03 0.  1.
         12    1    3    3    0    0 -0.60722529891E+00  0.12499165754E+02  0.14338453991E+02  0.19031267166E+02  0.00000000000E+00 0. -1.
</event>
<event>
 7    1  0.7755875E-012  0.5930194E+02  0.7816164E-02  0.1266605E+00
        -11   -1    0    0    0    0  0.00000000000E+00  0.00000000000E+00  0.45593999997E+02  0.45594000000E+02  0.51100000000E-03 0.  1.
         11   -1    0    0    0    0 -0.00000000000E+00 -0.00000000000E+00 -0.45593999997E+02  0.45594000000E+02  0.51100000000E-03 0. -1.
    9900012    2    1    2    0    0 -0.25538090359E+02 -0.18153089606E+02  0.59154112423E+01  0.59301940168E+02  0.49999992961E+02 0.  0.
         12    1    1    2    0    0  0.25538090359E+02  0.18153089606E+02 -0.59154112423E+01  0.31886059832E+02  0.00000000000E+00 0. -1.
         11    1    3    3    0    0 -0.11974701134E+01 -0.31675536383E+01  0.94874127056E+01  0.10073645360E+02  0.51100000000E-03 0. -1.
        -11    1    3    3    0    0 -0.15843126250E+02 -0.27791503493E+02 -0.84795987403E+01  0.33094952951E+02  0.51100000000E-03 0.  1.
        -12    1    3    3    0    0 -0.84974939956E+01  0.12805967525E+02  0.49075972770E+01  0.16133341858E+02  0.00000000000E+00 0.  1.
</event>
<event>
 7    1  0.7755875E-012  0.5930199E+02  0.7816164E-02  0.1266605E+00
        -11   -1    0    0    0    0  0.00000000000E+00  0.00000000000E+00  0.45593999997E+02  0.45594000000E+02  0.51100000000E-03 0.  1.
         11   -1    0    0    0    0 -0.00000000000E+00 -0.00000000000E+00 -0.45593999997E+02  0.45594000000E+02  0.51100000000E-03 0. -1.
    9900012    2    1    2    0    0  0.21235501503E+02  0.10244288442E+02 -0.21466857169E+02  0.59301985409E+02  0.50000075469E+02 0.  0.
         12    1    1    2    0    0 -0.21235501503E+02 -0.10244288442E+02  0.21466857169E+02  0.31886014591E+02  0.00000000000E+00 0. -1.
         11    1    3    3    0    0 -0.16954664284E+01 -0.44557918222E+01 -0.22039066585E+02  0.22548816895E+02  0.51100000000E-03 0. -1.
        -11    1    3    3    0    0  0.25731198158E+02  0.10697090208E+02 -0.60585304711E+01  0.28517154299E+02  0.51100000000E-03 0.  1.
        -12    1    3    3    0    0 -0.28002302262E+01  0.40029900561E+01  0.66307398866E+01  0.82360142152E+01  0.00000000000E+00 0.  1.
</event>
<event>
 7    1  0.7755875E-012  0.5930192E+02  0.7816164E-02  0.1266605E+00
        -11   -1    0    0    0    0  0.00000000000E+00  0.00000000000E+00  0.45593999997E+02  0.45594000000E+02  0.51100000000E-03 0.  1.
         11   -1    0    0    0    0 -0.00000000000E+00 -0.00000000000E+00 -0.45593999997E+02  0.45594000000E+02  0.51100000000E-03 0. -1.
    9900012    2    1    2    0    0  0.29459592192E+02  0.95882011583E+01  0.75445931373E+01  0.59301920605E+02  0.49999957282E+02 0.  0.
         12    1    1    2    0    0 -0.29459592192E+02 -0.95882011583E+01 -0.75445931373E+01  0.31886079395E+02  0.00000000000E+00 0. -1.
         11    1    3    3    0    0 -0.32041309165E+01 -0.31632690748E+01 -0.50533784694E+01  0.67682612528E+01  0.51100000000E-03 0. -1.
        -11    1    3    3    0    0  0.40657219002E+02  0.91846167908E+01  0.13300361196E+02  0.43752328518E+02  0.51100000000E-03 0.  1.
        -12    1    3    3    0    0 -0.79934958930E+01  0.35668534423E+01 -0.70238958943E+00  0.87813308334E+01  0.00000000000E+00 0.  1.
</event>
<event>
 7    1  0.7755875E-012  0.5930203E+02  0.7816164E-02  0.1266604E+00
        -11   -1    0    0    0    0  0.00000000000E+00  0.00000000000E+00  0.45593999997E+02  0.45594000000E+02  0.51100000000E-03 0.  1.
         11   -1    0    0    0    0 -0.00000000000E+00 -0.00000000000E+00 -0.45593999997E+02  0.45594000000E+02  0.51100000000E-03 0. -1.
    9900012    2    1    2    0    0 -0.30296383010E+02 -0.86290145307E+01  0.49380496948E+01  0.59302030514E+02  0.50000157730E+02 0.  0.
         12    1    1    2    0    0  0.30296383010E+02  0.86290145307E+01 -0.49380496948E+01  0.31885969486E+02  0.00000000000E+00 0. -1.
         11    1    3    3    0    0 -0.99384000638E+01  0.10248259647E+02 -0.16052811543E+02  0.21482350437E+02  0.51100000000E-03 0. -1.
        -11    1    3    3    0    0 -0.18057871063E+02 -0.13485087488E+02  0.86191130072E+01  0.24129305858E+02  0.51100000000E-03 0.  1.
         12    1    3    3    0    0 -0.23001118830E+01 -0.53921866893E+01  0.12371748230E+02  0.13690374219E+02  0.00000000000E+00 0. -1.
</event>
<event>
 7    1  0.7755875E-012  0.5930194E+02  0.7816164E-02  0.1266605E+00
        -11   -1    0    0    0    0  0.00000000000E+00  0.00000000000E+00  0.45593999997E+02  0.45594000000E+02  0.51100000000E-03 0.  1.
         11   -1    0    0    0    0 -0.00000000000E+00 -0.00000000000E+00 -0.45593999997E+02  0.45594000000E+02  0.51100000000E-03 0. -1.
    9900012    2    1    2    0    0  0.63821505132E+01 -0.29348170662E+02  0.10708588067E+02  0.59301939962E+02  0.49999992585E+02 0.  0.
         12    1    1    2    0    0 -0.63821505132E+01  0.29348170662E+02 -0.10708588067E+02  0.31886060038E+02  0.00000000000E+00 0. -1.
         11    1    3    3    0    0  0.13238474428E+02  0.40500883178E+01  0.91112362737E+01  0.16573323362E+02  0.51100000000E-03 0. -1.
        -11    1    3    3    0    0 -0.99257350191E+01 -0.36583403588E+02  0.31595635715E+01  0.38037461482E+02  0.51100000000E-03 0.  1.
        -12    1    3    3    0    0  0.30694111041E+01  0.31851446085E+01 -0.15622117786E+01  0.46911551184E+01  0.00000000000E+00 0.  1.
</event>
<event>
 7    1  0.7755875E-012  0.5930196E+02  0.7816164E-02  0.1266605E+00
        -11   -1    0    0    0    0  0.00000000000E+00  0.00000000000E+00  0.45593999997E+02  0.45594000000E+02  0.51100000000E-03 0.  1.
         11   -1    0    0    0    0 -0.00000000000E+00 -0.00000000000E+00 -0.45593999997E+02  0.45594000000E+02  0.51100000000E-03 0. -1.
    9900012    2    1    2    0    0  0.19653915577E+02  0.20936193424E+02  0.13860696782E+02  0.59301960611E+02  0.50000030244E+02 0.  0.
         12    1    1    2    0    0 -0.19653915577E+02 -0.20936193424E+02 -0.13860696782E+02  0.31886039389E+02  0.00000000000E+00 0. -1.
         11    1    3    3    0    0  0.11527888217E+02 -0.28528568866E+01 -0.76268997153E+01  0.14113844221E+02  0.51100000000E-03 0. -1.
        -11    1    3    3    0    0  0.18623508129E+02  0.17667412310E+02  0.76801639210E+01  0.26794727669E+02  0.51100000000E-03 0.  1.
        -12    1    3    3    0    0 -0.10497480769E+02  0.61216380004E+01  0.13807432576E+02  0.18393388721E+02  0.00000000000E+00 0.  1.
</event>
<event>
 7    1  0.7755875E-012  0.5930194E+02  0.7816164E-02  0.1266605E+00
        -11   -1    0    0    0    0  0.00000000000E+00  0.00000000000E+00  0.45593999997E+02  0.45594000000E+02  0.51100000000E-03 0. -1.
         11   -1    0    0    0    0 -0.00000000000E+00 -0.00000000000E+00 -0.45593999997E+02  0.45594000000E+02  0.51100000000E-03 0.  1.
    9900012    2    1    2    0    0 -0.15637090732E+02 -0.23257586732E+02 -0.15208120587E+02  0.59301939113E+02  0.49999991036E+02 0.  0.
         12    1    1    2    0    0  0.15637090732E+02  0.23257586732E+02  0.15208120587E+02  0.31886060887E+02  0.00000000000E+00 0. -1.
         11    1    3    3    0    0  0.14735349864E+01 -0.32411108303E+02 -0.10858522280E+02  0.34213429427E+02  0.51100000000E-03 0. -1.
        -11    1    3    3    0    0 -0.15026980103E+01  0.72093545275E+01  0.27115769635E+01  0.78476457555E+01  0.51100000000E-03 0.  1.
        -12    1    3    3    0    0 -0.15607927708E+02  0.19441670444E+01 -0.70611752702E+01  0.17240863930E+02  0.00000000000E+00 0.  1.
</event>
<event>
 7    1  0.7755875E-012  0.5930195E+02  0.7816164E-02  0.1266605E+00
        -11   -1    0    0    0    0  0.00000000000E+00  0.00000000000E+00  0.45593999997E+02  0.45594000000E+02  0.51100000000E-03 0.  1.
         11   -1    0    0    0    0 -0.00000000000E+00 -0.00000000000E+00 -0.45593999997E+02  0.45594000000E+02  0.51100000000E-03 0. -1.
    9900012    2    1    2    0    0  0.66236397335E+01  0.26501969334E+02  0.16446682874E+02  0.59301947258E+02  0.50000005892E+02 0.  0.
         12    1    1    2    0    0 -0.66236397335E+01 -0.26501969334E+02 -0.16446682874E+02  0.31886052742E+02  0.00000000000E+00 0. -1.
         11    1    3    3    0    0 -0.37835435319E+01  0.14499630382E+02 -0.13091532731E+02  0.19898309284E+02  0.51100000000E-03 0. -1.
        -11    1    3    3    0    0  0.43449527570E+01  0.17360284054E+02  0.18760622921E+02  0.25927187459E+02  0.51100000000E-03 0.  1.
         12    1    3    3    0    0  0.60622305084E+01 -0.53579451014E+01  0.10777592683E+02  0.13476450515E+02  0.00000000000E+00 0. -1.
</event>
<event>
 7    1  0.7755875E-012  0.5930195E+02  0.7816164E-02  0.1266605E+00
        -11   -1    0    0    0    0  0.00000000000E+00  0.00000000000E+00  0.45593999997E+02  0.45594000000E+02  0.51100000000E-03 0. -1.
         11   -1    0    0    0    0 -0.00000000000E+00 -0.00000000000E+00 -0.45593999997E+02  0.45594000000E+02  0.51100000000E-03 0.  1.
    9900012    2    1    2    0    0  0.83511662674E+01  0.12700117369E+02 -0.28030079725E+02  0.59301947742E+02  0.50000006774E+02 0.  0.
         12    1    1    2    0    0 -0.83511662674E+01 -0.12700117369E+02  0.28030079725E+02  0.31886052258E+02  0.00000000000E+00 0. -1.
         11    1    3    3    0    0  0.99855956739E+01 -0.39213821209E+01 -0.17944735561E+02  0.20907005843E+02  0.51100000000E-03 0. -1.
        -11    1    3    3    0    0 -0.15530760390E+02  0.15036229850E+02 -0.84837328494E+00  0.21633595722E+02  0.51100000000E-03 0.  1.
        -12    1    3    3    0    0  0.13896330983E+02  0.15852696393E+01 -0.92369708789E+01  0.16761346176E+02  0.00000000000E+00 0.  1.
</event>
<event>
 7    1  0.7755875E-012  0.5930188E+02  0.7816164E-02  0.1266605E+00
        -11   -1    0    0    0    0  0.00000000000E+00  0.00000000000E+00  0.45593999997E+02  0.45594000000E+02  0.51100000000E-03 0.  1.
         11   -1    0    0    0    0 -0.00000000000E+00 -0.00000000000E+00 -0.45593999997E+02  0.45594000000E+02  0.51100000000E-03 0. -1.
    9900012    2    1    2    0    0 -0.11537021345E+02  0.16742379334E+02  0.24562466557E+02  0.59301876206E+02  0.49999876309E+02 0.  0.
         12    1    1    2    0    0  0.11537021345E+02 -0.16742379334E+02 -0.24562466557E+02  0.31886123794E+02  0.00000000000E+00 0. -1.
         11    1    3    3    0    0  0.31170992659E+01  0.26654087549E+02 -0.63240434889E+00  0.26843185847E+02  0.51100000000E-03 0. -1.
        -11    1    3    3    0    0 -0.10371967939E+02 -0.10270881072E+02  0.23838517153E+02  0.27952524344E+02  0.51100000000E-03 0.  1.
        -12    1    3    3    0    0 -0.42821526721E+01  0.35917285692E+00  0.13563537529E+01  0.45061660147E+01  0.00000000000E+00 0.  1.
</event>
<event>
 7    1  0.7755875E-012  0.5930194E+02  0.7816164E-02  0.1266605E+00
        -11   -1    0    0    0    0  0.00000000000E+00  0.00000000000E+00  0.45593999997E+02  0.45594000000E+02  0.51100000000E-03 0. -1.
         11   -1    0    0    0    0 -0.00000000000E+00 -0.00000000000E+00 -0.45593999997E+02  0.45594000000E+02  0.51100000000E-03 0.  1.
    9900012    2    1    2    0    0  0.17013471634E+02  0.23473589042E+02  0.13276044015E+02  0.59301938088E+02  0.49999989168E+02 0.  0.
         12    1    1    2    0    0 -0.17013471634E+02 -0.23473589042E+02 -0.13276044015E+02  0.31886061912E+02  0.00000000000E+00 0. -1.
         11    1    3    3    0    0 -0.10963133437E+02  0.67760241021E+01  0.20408061454E+02  0.24136979305E+02  0.51100000000E-03 0. -1.
        -11    1    3    3    0    0  0.27675975698E+02  0.15893189673E+02 -0.42970122871E+01  0.32202754908E+02  0.51100000000E-03 0.  1.
         12    1    3    3    0    0  0.30062937292E+00  0.80437526686E+00 -0.28350051520E+01  0.29622038758E+01  0.00000000000E+00 0. -1.
</event>
<event>
 7    1  0.7755875E-012  0.5930194E+02  0.7816164E-02  0.1266605E+00
        -11   -1    0    0    0    0  0.00000000000E+00  0.00000000000E+00  0.45593999997E+02  0.45594000000E+02  0.51100000000E-03 0.  1.
         11   -1    0    0    0    0 -0.00000000000E+00 -0.00000000000E+00 -0.45593999997E+02  0.45594000000E+02  0.51100000000E-03 0. -1.
    9900012    2    1    2    0    0 -0.45044709530E+01  0.25379092458E+02  0.18770516848E+02  0.59301938856E+02  0.49999990567E+02 0.  0.
         12    1    1    2    0    0  0.45044709530E+01 -0.25379092458E+02 -0.18770516848E+02  0.31886061144E+02  0.00000000000E+00 0. -1.
         11    1    3    3    0    0 -0.71429492725E+01  0.33020414306E+02  0.11825815637E+01  0.33804851496E+02  0.51100000000E-03 0. -1.
        -11    1    3    3    0    0  0.82416496355E+01 -0.48986924547E+01  0.16615661665E+02  0.19183383156E+02  0.51100000000E-03 0.  1.
        -12    1    3    3    0    0 -0.56031713160E+01 -0.27426293929E+01  0.97227361909E+00  0.63137042039E+01  0.00000000000E+00 0.  1.
</event>
<event>
 7    1  0.7755875E-012  0.5930193E+02  0.7816164E-02  0.1266605E+00
        -11   -1    0    0    0    0  0.00000000000E+00  0.00000000000E+00  0.45593999997E+02  0.45594000000E+02  0.51100000000E-03 0.  1.
         11   -1    0    0    0    0 -0.00000000000E+00 -0.00000000000E+00 -0.45593999997E+02  0.45594000000E+02  0.51100000000E-03 0. -1.
    9900012    2    1    2    0    0  0.45683008416E+01 -0.25748676478E+02  0.18244385340E+02  0.59301932363E+02  0.49999978726E+02 0.  0.
         12    1    1    2    0    0 -0.45683008416E+01  0.25748676478E+02 -0.18244385340E+02  0.31886067637E+02  0.00000000000E+00 0. -1.
         11    1    3    3    0    0  0.14708366248E+01  0.11449752025E+02 -0.16213395675E-02  0.11543837520E+02  0.51100000000E-03 0.  1.
        -11    1    3    3    0    0 -0.73718811290E+00 -0.26709850598E+02  0.42056278346E+00  0.26723331353E+02  0.51100000000E-03 0. -1.
        -12    1    3    3    0    0  0.38346523297E+01 -0.10488577905E+02  0.17825443896E+02  0.21034763489E+02  0.00000000000E+00 0.  1.
</event>
<event>
 7    1  0.7755875E-012  0.5930191E+02  0.7816164E-02  0.1266605E+00
        -11   -1    0    0    0    0  0.00000000000E+00  0.00000000000E+00  0.45593999997E+02  0.45594000000E+02  0.51100000000E-03 0.  1.
         11   -1    0    0    0    0 -0.00000000000E+00 -0.00000000000E+00 -0.45593999997E+02  0.45594000000E+02  0.51100000000E-03 0. -1.
    9900012    2    1    2    0    0 -0.59237651072E+01 -0.25472177221E+02  0.18242800892E+02  0.59301912285E+02  0.49999942108E+02 0.  0.
         12    1    1    2    0    0  0.59237651072E+01  0.25472177221E+02 -0.18242800892E+02  0.31886087715E+02  0.00000000000E+00 0. -1.
         11    1    3    3    0    0  0.66263740194E+01  0.84683535610E+01  0.18227110667E+02  0.21162452792E+02  0.51100000000E-03 0. -1.
        -11    1    3    3    0    0 -0.10928877761E+02 -0.22277820657E+02  0.50680978338E+01  0.25326414635E+02  0.51100000000E-03 0.  1.
         12    1    3    3    0    0 -0.16212613653E+01 -0.11662710125E+02 -0.50524076088E+01  0.12813044857E+02  0.00000000000E+00 0. -1.
</event>
<event>
 7    1  0.7755875E-012  0.5930196E+02  0.7816164E-02  0.1266605E+00
        -11   -1    0    0    0    0  0.00000000000E+00  0.00000000000E+00  0.45593999997E+02  0.45594000000E+02  0.51100000000E-03 0.  1.
         11   -1    0    0    0    0 -0.00000000000E+00 -0.00000000000E+00 -0.45593999997E+02  0.45594000000E+02  0.51100000000E-03 0. -1.
    9900012    2    1    2    0    0  0.59667679650E+01 -0.29392150099E+02 -0.10826763960E+02  0.59301958771E+02  0.50000026888E+02 0.  0.
         12    1    1    2    0    0 -0.59667679650E+01  0.29392150099E+02  0.10826763960E+02  0.31886041229E+02  0.00000000000E+00 0. -1.
         11    1    3    3    0    0  0.13128601040E+02 -0.23447306454E+01 -0.13817470601E+01  0.13407727335E+02  0.51100000000E-03 0. -1.
        -11    1    3    3    0    0 -0.23149904952E+00 -0.33004859374E+02 -0.13795313311E+02  0.35772685162E+02  0.51100000000E-03 0.  1.
        -12    1    3    3    0    0 -0.69303340260E+01  0.59574399201E+01  0.43502964111E+01  0.10121546274E+02  0.00000000000E+00 0.  1.
</event>
<event>
 7    1  0.7755875E-012  0.5930191E+02  0.7816164E-02  0.1266605E+00
        -11   -1    0    0    0    0  0.00000000000E+00  0.00000000000E+00  0.45593999997E+02  0.45594000000E+02  0.51100000000E-03 0.  1.
         11   -1    0    0    0    0 -0.00000000000E+00 -0.00000000000E+00 -0.45593999997E+02  0.45594000000E+02  0.51100000000E-03 0. -1.
    9900012    2    1    2    0    0  0.15900530246E+01  0.59474617861E+01  0.31286134355E+02  0.59301909409E+02  0.49999936863E+02 0.  0.
         12    1    1    2    0    0 -0.15900530246E+01 -0.59474617861E+01 -0.31286134355E+02  0.31886090591E+02  0.00000000000E+00 0. -1.
         11    1    3    3    0    0  0.61356739903E+01  0.18733263431E+02  0.73323912829E+00  0.19726106914E+02  0.51100000000E-03 0. -1.
        -11    1    3    3    0    0 -0.12892469554E+01 -0.18388889242E+02  0.20066264724E+02  0.27248273074E+02  0.51100000000E-03 0.  1.
        -12    1    3    3    0    0 -0.32563740103E+01  0.56030875972E+01  0.10486630503E+02  0.12327529421E+02  0.00000000000E+00 0.  1.
</event>
<event>
 7    1  0.7755875E-012  0.5930198E+02  0.7816164E-02  0.1266605E+00
        -11   -1    0    0    0    0  0.00000000000E+00  0.00000000000E+00  0.45593999997E+02  0.45594000000E+02  0.51100000000E-03 0. -1.
         11   -1    0    0    0    0 -0.00000000000E+00 -0.00000000000E+00 -0.45593999997E+02  0.45594000000E+02  0.51100000000E-03 0.  1.
    9900012    2    1    2    0    0  0.26880757871E+01 -0.10634877537E+02 -0.29939802403E+02  0.59301982068E+02  0.50000069376E+02 0.  0.
         12    1    1    2    0    0 -0.26880757871E+01  0.10634877537E+02  0.29939802403E+02  0.31886017932E+02  0.00000000000E+00 0. -1.
         11    1    3    3    0    0  0.11669800815E+02  0.98799600172E+01 -0.26575488267E-02  0.15290450233E+02  0.51100000000E-03 0. -1.
        -11    1    3    3    0    0 -0.16730203233E+02 -0.15104650934E+02 -0.23591671367E+02  0.32628471282E+02  0.51100000000E-03 0.  1.
        -12    1    3    3    0    0  0.77484782053E+01 -0.54101866204E+01 -0.63454734872E+01  0.11383060552E+02  0.00000000000E+00 0.  1.
</event>
<event>
 7    1  0.7755875E-012  0.5930195E+02  0.7816164E-02  0.1266605E+00
        -11   -1    0    0    0    0  0.00000000000E+00  0.00000000000E+00  0.45593999997E+02  0.45594000000E+02  0.51100000000E-03 0.  1.
         11   -1    0    0    0    0 -0.00000000000E+00 -0.00000000000E+00 -0.45593999997E+02  0.45594000000E+02  0.51100000000E-03 0. -1.
    9900012    2    1    2    0    0  0.14204421806E+02 -0.99771186268E+01  0.26747180937E+02  0.59301950025E+02  0.50000010938E+02 0.  0.
         12    1    1    2    0    0 -0.14204421806E+02  0.99771186268E+01 -0.26747180937E+02  0.31886049975E+02  0.00000000000E+00 0. -1.
         11    1    3    3    0    0 -0.78829890981E+01 -0.19954750504E+01 -0.82511921916E+01  0.11584714526E+02  0.51100000000E-03 0. -1.
        -11    1    3    3    0    0  0.95810188575E+01 -0.14984643222E+02  0.22646349406E+02  0.28795704481E+02  0.51100000000E-03 0.  1.
         12    1    3    3    0    0  0.12506392046E+02  0.70029996458E+01  0.12352023722E+02  0.18921531019E+02  0.00000000000E+00 0. -1.
</event>
<event>
 7    1  0.7755875E-012  0.5930191E+02  0.7816164E-02  0.1266605E+00
        -11   -1    0    0    0    0  0.00000000000E+00  0.00000000000E+00  0.45593999997E+02  0.45594000000E+02  0.51100000000E-03 0. -1.
         11   -1    0    0    0    0 -0.00000000000E+00 -0.00000000000E+00 -0.45593999997E+02  0.45594000000E+02  0.51100000000E-03 0.  1.
    9900012    2    1    2    0    0 -0.27768525933E+02 -0.15051639026E+02 -0.43680684304E+01  0.59301907550E+02  0.49999933474E+02 0.  0.
         12    1    1    2    0    0  0.27768525933E+02  0.15051639026E+02  0.43680684304E+01  0.31886092450E+02  0.00000000000E+00 0. -1.
         11    1    3    3    0    0 -0.86644389571E+01 -0.39882833387E+01  0.11911418020E+02  0.15259776733E+02  0.51100000000E-03 0. -1.
        -11    1    3    3    0    0 -0.15181359288E+02  0.75465428634E+01 -0.18264255358E+02  0.24920012100E+02  0.51100000000E-03 0.  1.
        -12    1    3    3    0    0 -0.39227276881E+01 -0.18609898551E+02  0.19847689076E+01  0.19122118717E+02  0.00000000000E+00 0.  1.
</event>
<event>
 7    1  0.7755875E-012  0.5930195E+02  0.7816164E-02  0.1266605E+00
        -11   -1    0    0    0    0  0.00000000000E+00  0.00000000000E+00  0.45593999997E+02  0.45594000000E+02  0.51100000000E-03 0. -1.
         11   -1    0    0    0    0 -0.00000000000E+00 -0.00000000000E+00 -0.45593999997E+02  0.45594000000E+02  0.51100000000E-03 0.  1.
    9900012    2    1    2    0    0 -0.15581617238E+02 -0.27565447211E+02  0.37522401861E+01  0.59301953176E+02  0.50000016684E+02 0.  0.
         12    1    1    2    0    0  0.15581617238E+02  0.27565447211E+02 -0.37522401861E+01  0.31886046824E+02  0.00000000000E+00 0. -1.
         11    1    3    3    0    0  0.75702331445E+01 -0.12340482149E+01  0.21678081952E+01  0.79706146244E+01  0.51100000000E-03 0. -1.
        -11    1    3    3    0    0 -0.21953889443E+02 -0.21909136108E+02 -0.14765796496E+02  0.34351306424E+02  0.51100000000E-03 0.  1.
        -12    1    3    3    0    0 -0.11979609393E+01 -0.44222628882E+01  0.16350228487E+02  0.16980032127E+02  0.00000000000E+00 0.  1.
</event>
<event>
 7    1  0.7755875E-012  0.5930198E+02  0.7816164E-02  0.1266605E+00
        -11   -1    0    0    0    0  0.00000000000E+00  0.00000000000E+00  0.45593999997E+02  0.45594000000E+02  0.51100000000E-03 0.  1.
         11   -1    0    0    0    0 -0.00000000000E+00 -0.00000000000E+00 -0.45593999997E+02  0.45594000000E+02  0.51100000000E-03 0. -1.
    9900012    2    1    2    0    0  0.30186353336E+02 -0.94076605452E+01  0.41228670975E+01  0.59301983665E+02  0.50000072288E+02 0.  0.
         12    1    1    2    0    0 -0.30186353336E+02  0.94076605452E+01 -0.41228670975E+01  0.31886016335E+02  0.00000000000E+00 0. -1.
         11    1    3    3    0    0  0.18578904449E+02 -0.19543459451E+02 -0.68795462072E+01  0.27828953522E+02  0.51100000000E-03 0. -1.
        -11    1    3    3    0    0  0.75152030859E+01 -0.26373386985E+01  0.15416834517E+02  0.17352596913E+02  0.51100000000E-03 0.  1.
         12    1    3    3    0    0  0.40922458008E+01  0.12773137605E+02 -0.44144212123E+01  0.14120433230E+02  0.00000000000E+00 0. -1.
</event>
<event>
 7    1  0.7755875E-012  0.5930192E+02  0.7816164E-02  0.1266605E+00
        -11   -1    0    0    0    0  0.00000000000E+00  0.00000000000E+00  0.45593999997E+02  0.45594000000E+02  0.51100000000E-03 0. -1.
         11   -1    0    0    0    0 -0.00000000000E+00 -0.00000000000E+00 -0.45593999997E+02  0.45594000000E+02  0.51100000000E-03 0.  1.
    9900012    2    1    2    0    0 -0.40158944871E+01 -0.31400275075E+02  0.38232354302E+01  0.59301924473E+02  0.49999964337E+02 0.  0.
         12    1    1    2    0    0  0.40158944871E+01  0.31400275075E+02 -0.38232354302E+01  0.31886075527E+02  0.00000000000E+00 0. -1.
         11    1    3    3    0    0  0.97788675098E+01 -0.29246662998E+01 -0.84068264287E+00  0.10241419350E+02  0.51100000000E-03 0. -1.
        -11    1    3    3    0    0 -0.19312915459E+02 -0.35062234977E+02  0.20614707056E+01  0.40082398716E+02  0.51100000000E-03 0.  1.
        -12    1    3    3    0    0  0.55181534618E+01  0.65866262017E+01  0.26024473675E+01  0.89781064067E+01  0.00000000000E+00 0.  1.
</event>
<event>
 7    1  0.7755875E-012  0.5930193E+02  0.7816164E-02  0.1266605E+00
        -11   -1    0    0    0    0  0.00000000000E+00  0.00000000000E+00  0.45593999997E+02  0.45594000000E+02  0.51100000000E-03 0. -1.
         11   -1    0    0    0    0 -0.00000000000E+00 -0.00000000000E+00 -0.45593999997E+02  0.45594000000E+02  0.51100000000E-03 0.  1.
    9900012    2    1    2    0    0 -0.11385138712E+02  0.29489850349E+02 -0.41771560417E+01  0.59301932671E+02  0.49999979289E+02 0.  0.
         12    1    1    2    0    0  0.11385138712E+02 -0.29489850349E+02  0.41771560417E+01  0.31886067329E+02  0.00000000000E+00 0. -1.
         11    1    3    3    0    0  0.67621314981E+01  0.22469861027E+02  0.12604743011E+02  0.26636452909E+02  0.51100000000E-03 0. -1.
        -11    1    3    3    0    0 -0.40542908496E+01  0.30554836133E+00 -0.16561393779E+02  0.17053163879E+02  0.51100000000E-03 0.  1.
         12    1    3    3    0    0 -0.14092979360E+02  0.67144409606E+01 -0.22050527299E+00  0.15612315883E+02  0.00000000000E+00 0. -1.
</event>
<event>
 7    1  0.7755875E-012  0.5930194E+02  0.7816164E-02  0.1266605E+00
        -11   -1    0    0    0    0  0.00000000000E+00  0.00000000000E+00  0.45593999997E+02  0.45594000000E+02  0.51100000000E-03 0. -1.
         11   -1    0    0    0    0 -0.00000000000E+00 -0.00000000000E+00 -0.45593999997E+02  0.45594000000E+02  0.51100000000E-03 0.  1.
    9900012    2    1    2    0    0 -0.16309439244E+02 -0.18072857497E+02 -0.20593561045E+02  0.59301941243E+02  0.49999994921E+02 0.  0.
         12    1    1    2    0    0  0.16309439244E+02  0.18072857497E+02  0.20593561045E+02  0.31886058757E+02  0.00000000000E+00 0. -1.
         11    1    3    3    0    0  0.96588302649E+01  0.94413704456E+01  0.20913609335E+01  0.13667708981E+02  0.51100000000E-03 0. -1.
        -11    1    3    3    0    0 -0.12185362332E+02 -0.71495617951E+01 -0.13020588731E+02  0.19212886826E+02  0.51100000000E-03 0.  1.
         12    1    3    3    0    0 -0.13782907177E+02 -0.20364666147E+02 -0.96643332469E+01  0.26421345436E+02  0.00000000000E+00 0. -1.
</event>
<event>
 7    1  0.7755875E-012  0.5930197E+02  0.7816164E-02  0.1266605E+00
        -11   -1    0    0    0    0  0.00000000000E+00  0.00000000000E+00  0.45593999997E+02  0.45594000000E+02  0.51100000000E-03 0.  1.
         11   -1    0    0    0    0 -0.00000000000E+00 -0.00000000000E+00 -0.45593999997E+02  0.45594000000E+02  0.51100000000E-03 0. -1.
    9900012    2    1    2    0    0  0.13289599239E+02 -0.26779433753E+02  0.11089076462E+02  0.59301966430E+02  0.50000040856E+02 0.  0.
         12    1    1    2    0    0 -0.13289599239E+02  0.26779433753E+02 -0.11089076462E+02  0.31886033570E+02  0.00000000000E+00 0. -1.
         11    1    3    3    0    0 -0.75749981988E+01 -0.24544082996E+02  0.21556337676E+02  0.33533092641E+02  0.51100000000E-03 0.  1.
        -11    1    3    3    0    0  0.13180071337E+02 -0.60326580698E+01 -0.40167951575E+01  0.15041339283E+02  0.51100000000E-03 0. -1.
        -12    1    3    3    0    0  0.76845261008E+01  0.37973073135E+01 -0.64504660557E+01  0.10727534505E+02  0.00000000000E+00 0.  1.
</event>
<event>
 7    1  0.7755875E-012  0.5930194E+02  0.7816164E-02  0.1266605E+00
        -11   -1    0    0    0    0  0.00000000000E+00  0.00000000000E+00  0.45593999997E+02  0.45594000000E+02  0.51100000000E-03 0. -1.
         11   -1    0    0    0    0 -0.00000000000E+00 -0.00000000000E+00 -0.45593999997E+02  0.45594000000E+02  0.51100000000E-03 0.  1.
    9900012    2    1    2    0    0  0.15898402744E-01  0.25457354687E+02 -0.19200100150E+02  0.59301937117E+02  0.49999987397E+02 0.  0.
         12    1    1    2    0    0 -0.15898402744E-01 -0.25457354687E+02  0.19200100150E+02  0.31886062883E+02  0.00000000000E+00 0. -1.
         11    1    3    3    0    0 -0.30366723898E+01  0.10534106795E+02 -0.45802461120E+01  0.11881390486E+02  0.51100000000E-03 0. -1.
        -11    1    3    3    0    0 -0.94558802286E+01 -0.18583450441E+01 -0.22951699643E+02  0.24892722510E+02  0.51100000000E-03 0.  1.
        -12    1    3    3    0    0  0.12508451021E+02  0.16781592936E+02  0.83318456056E+01  0.22527824121E+02  0.00000000000E+00 0.  1.
</event>
<event>
 7    1  0.7755875E-012  0.5930201E+02  0.7816164E-02  0.1266605E+00
        -11   -1    0    0    0    0  0.00000000000E+00  0.00000000000E+00  0.45593999997E+02  0.45594000000E+02  0.51100000000E-03 0.  1.
         11   -1    0    0    0    0 -0.00000000000E+00 -0.00000000000E+00 -0.45593999997E+02  0.45594000000E+02  0.51100000000E-03 0. -1.
    9900012    2    1    2    0    0  0.22442754886E+02 -0.15630335088E+02  0.16393039503E+02  0.59302009879E+02  0.50000120097E+02 0.  0.
         12    1    1    2    0    0 -0.22442754886E+02  0.15630335088E+02 -0.16393039503E+02  0.31885990121E+02  0.00000000000E+00 0. -1.
         11    1    3    3    0    0  0.27876760918E+01 -0.23513774704E+02  0.16291215821E+02  0.28741476163E+02  0.51100000000E-03 0. -1.
        -11    1    3    3    0    0  0.28421755049E+01  0.12168295020E+02  0.32855347668E+01  0.12920530339E+02  0.51100000000E-03 0.  1.
         12    1    3    3    0    0  0.16812903290E+02 -0.42848554029E+01 -0.31837110846E+01  0.17640003376E+02  0.00000000000E+00 0. -1.
</event>
<event>
 7    1  0.7755875E-012  0.5930195E+02  0.7816164E-02  0.1266605E+00
        -11   -1    0    0    0    0  0.00000000000E+00  0.00000000000E+00  0.45593999997E+02  0.45594000000E+02  0.51100000000E-03 0.  1.
         11   -1    0    0    0    0 -0.00000000000E+00 -0.00000000000E+00 -0.45593999997E+02  0.45594000000E+02  0.51100000000E-03 0. -1.
    9900012    2    1    2    0    0 -0.60375216772E+01 -0.29685083566E+02  0.99531081668E+01  0.59301949500E+02  0.50000009980E+02 0.  0.
         12    1    1    2    0    0  0.60375216772E+01  0.29685083566E+02 -0.99531081668E+01  0.31886050500E+02  0.00000000000E+00 0. -1.
         11    1    3    3    0    0  0.39372219137E+01  0.88904786105E+01 -0.99224585263E+01  0.13892354365E+02  0.51100000000E-03 0. -1.
        -11    1    3    3    0    0 -0.63625692101E+01 -0.22683324504E+02  0.68156593062E+01  0.24524859012E+02  0.51100000000E-03 0.  1.
         12    1    3    3    0    0 -0.36121743809E+01 -0.15892237672E+02  0.13059907387E+02  0.20884736123E+02  0.00000000000E+00 0. -1.
</event>
<event>
 7    1  0.7755875E-012  0.5930189E+02  0.7816164E-02  0.1266605E+00
        -11   -1    0    0    0    0  0.00000000000E+00  0.00000000000E+00  0.45593999997E+02  0.45594000000E+02  0.51100000000E-03 0. -1.
         11   -1    0    0    0    0 -0.00000000000E+00 -0.00000000000E+00 -0.45593999997E+02  0.45594000000E+02  0.51100000000E-03 0.  1.
    9900012    2    1    2    0    0 -0.15690762209E+02  0.15089218402E+02  0.23298922260E+02  0.59301885324E+02  0.49999892938E+02 0.  0.
         12    1    1    2    0    0  0.15690762209E+02 -0.15089218402E+02 -0.23298922260E+02  0.31886114676E+02  0.00000000000E+00 0. -1.
         11    1    3    3    0    0  0.63353166150E+01  0.21340115563E+02  0.19575937599E+02  0.29643786904E+02  0.51100000000E-03 0. -1.
        -11    1    3    3    0    0 -0.90284156166E+01 -0.10456780759E+01 -0.74446972165E+01  0.11748584940E+02  0.51100000000E-03 0.  1.
         12    1    3    3    0    0 -0.12997663207E+02 -0.52052190851E+01  0.11167681878E+02  0.17909513480E+02  0.00000000000E+00 0. -1.
</event>
<event>
 7    1  0.7755875E-012  0.5930196E+02  0.7816164E-02  0.1266605E+00
        -11   -1    0    0    0    0  0.00000000000E+00  0.00000000000E+00  0.45593999997E+02  0.45594000000E+02  0.51100000000E-03 0.  1.
         11   -1    0    0    0    0 -0.00000000000E+00 -0.00000000000E+00 -0.45593999997E+02  0.45594000000E+02  0.51100000000E-03 0. -1.
    9900012    2    1    2    0    0  0.30178092193E+02  0.56842586364E+01 -0.85843819738E+01  0.59301958249E+02  0.50000025936E+02 0.  0.
         12    1    1    2    0    0 -0.30178092193E+02 -0.56842586364E+01  0.85843819738E+01  0.31886041751E+02  0.00000000000E+00 0. -1.
         11    1    3    3    0    0  0.12313608370E+02 -0.16067681497E+01 -0.10961829420E+02  0.16564068325E+02  0.51100000000E-03 0. -1.
        -11    1    3    3    0    0  0.31401494282E+01  0.42727134701E-01  0.19071149046E+02  0.19327987226E+02  0.51100000000E-03 0.  1.
        -12    1    3    3    0    0  0.14724334396E+02  0.72482996514E+01 -0.16693701599E+02  0.23409902698E+02  0.00000000000E+00 0.  1.
</event>
<event>
 7    1  0.7755875E-012  0.5930195E+02  0.7816164E-02  0.1266605E+00
        -11   -1    0    0    0    0  0.00000000000E+00  0.00000000000E+00  0.45593999997E+02  0.45594000000E+02  0.51100000000E-03 0. -1.
         11   -1    0    0    0    0 -0.00000000000E+00 -0.00000000000E+00 -0.45593999997E+02  0.45594000000E+02  0.51100000000E-03 0.  1.
    9900012    2    1    2    0    0  0.15113484228E+02  0.16589523969E+02 -0.22651501277E+02  0.59301949427E+02  0.50000009847E+02 0.  0.
         12    1    1    2    0    0 -0.15113484228E+02 -0.16589523969E+02  0.22651501277E+02  0.31886050573E+02  0.00000000000E+00 0. -1.
         11    1    3    3    0    0  0.92771013946E+01  0.30927083581E+01  0.11708548315E+02  0.15255148612E+02  0.51100000000E-03 0. -1.
        -11    1    3    3    0    0  0.10177053458E+02  0.40438260404E+01 -0.31365680271E+02  0.33222444902E+02  0.51100000000E-03 0.  1.
         12    1    3    3    0    0 -0.43406706247E+01  0.94529895705E+01 -0.29943693214E+01  0.10824355913E+02  0.00000000000E+00 0. -1.
</event>
<event>
 7    1  0.7755875E-012  0.5930191E+02  0.7816164E-02  0.1266605E+00
        -11   -1    0    0    0    0  0.00000000000E+00  0.00000000000E+00  0.45593999997E+02  0.45594000000E+02  0.51100000000E-03 0. -1.
         11   -1    0    0    0    0 -0.00000000000E+00 -0.00000000000E+00 -0.45593999997E+02  0.45594000000E+02  0.51100000000E-03 0.  1.
    9900012    2    1    2    0    0 -0.20739524072E+01 -0.62465737561E+01 -0.31199390599E+02  0.59301906855E+02  0.49999932206E+02 0.  0.
         12    1    1    2    0    0  0.20739524072E+01  0.62465737561E+01  0.31199390599E+02  0.31886093145E+02  0.00000000000E+00 0. -1.
         11    1    3    3    0    0 -0.10338339189E+02 -0.10097616532E+02  0.39626366756E+01  0.14984845895E+02  0.51100000000E-03 0. -1.
        -11    1    3    3    0    0  0.12256134886E+02  0.46997799023E+01 -0.52651428294E+01  0.14142931193E+02  0.51100000000E-03 0.  1.
         12    1    3    3    0    0 -0.39917481037E+01 -0.84873712676E+00 -0.29896884445E+02  0.30174129767E+02  0.00000000000E+00 0. -1.
</event>
<event>
 7    1  0.7755875E-012  0.5930195E+02  0.7816164E-02  0.1266605E+00
        -11   -1    0    0    0    0  0.00000000000E+00  0.00000000000E+00  0.45593999997E+02  0.45594000000E+02  0.51100000000E-03 0. -1.
         11   -1    0    0    0    0 -0.00000000000E+00 -0.00000000000E+00 -0.45593999997E+02  0.45594000000E+02  0.51100000000E-03 0.  1.
    9900012    2    1    2    0    0  0.27970538524E+02  0.71524739193E+01 -0.13535563783E+02  0.59301946694E+02  0.50000004863E+02 0.  0.
         12    1    1    2    0    0 -0.27970538524E+02 -0.71524739193E+01  0.13535563783E+02  0.31886053306E+02  0.00000000000E+00 0. -1.
         11    1    3    3    0    0  0.19381087307E+02  0.20305334698E+02 -0.16030905941E+02  0.32325270423E+02  0.51100000000E-03 0. -1.
        -11    1    3    3    0    0 -0.69735416419E+01 -0.56378407912E+01 -0.18500721073E+01  0.91563256212E+01  0.51100000000E-03 0.  1.
         12    1    3    3    0    0  0.15562992859E+02 -0.75150199876E+01  0.43454142651E+01  0.17820350650E+02  0.00000000000E+00 0. -1.
</event>
<event>
 7    1  0.7755875E-012  0.5930196E+02  0.7816164E-02  0.1266605E+00
        -11   -1    0    0    0    0  0.00000000000E+00  0.00000000000E+00  0.45593999997E+02  0.45594000000E+02  0.51100000000E-03 0. -1.
         11   -1    0    0    0    0 -0.00000000000E+00 -0.00000000000E+00 -0.45593999997E+02  0.45594000000E+02  0.51100000000E-03 0.  1.
    9900012    2    1    2    0    0 -0.26259742920E+02  0.16577447030E+02 -0.72342116023E+01  0.59301958135E+02  0.50000025729E+02 0.  0.
         12    1    1    2    0    0  0.26259742920E+02 -0.16577447030E+02  0.72342116023E+01  0.31886041865E+02  0.00000000000E+00 0. -1.
         11    1    3    3    0    0  0.35381124957E+01  0.78474955245E+01 -0.55452287585E+00  0.86260606258E+01  0.51100000000E-03 0. -1.
        -11    1    3    3    0    0 -0.24471942924E+02 -0.10136282974E+02  0.62203099985E+01  0.27208683903E+02  0.51100000000E-03 0.  1.
        -12    1    3    3    0    0 -0.53259124920E+01  0.18866234480E+02 -0.12899998725E+02  0.23467213606E+02  0.00000000000E+00 0.  1.
</event>
<event>
 7    1  0.7755875E-012  0.5930201E+02  0.7816164E-02  0.1266605E+00
        -11   -1    0    0    0    0  0.00000000000E+00  0.00000000000E+00  0.45593999997E+02  0.45594000000E+02  0.51100000000E-03 0. -1.
         11   -1    0    0    0    0 -0.00000000000E+00 -0.00000000000E+00 -0.45593999997E+02  0.45594000000E+02  0.51100000000E-03 0.  1.
    9900012    2    1    2    0    0  0.16451454462E+02  0.94460085577E+01 -0.25628865243E+02  0.59302013027E+02  0.50000125838E+02 0.  0.
         12    1    1    2    0    0 -0.16451454462E+02 -0.94460085577E+01  0.25628865243E+02  0.31885986973E+02  0.00000000000E+00 0. -1.
         11    1    3    3    0    0  0.17179888591E+02  0.20074138730E+02  0.39779266181E+01  0.26719721521E+02  0.51100000000E-03 0. -1.
        -11    1    3    3    0    0  0.27490592977E+01 -0.88397598192E+01 -0.16676691748E+02  0.19073823125E+02  0.51100000000E-03 0.  1.
        -12    1    3    3    0    0 -0.34774934262E+01 -0.17883703530E+01 -0.12930100113E+02  0.13508468380E+02  0.00000000000E+00 0.  1.
</event>
<event>
 7    1  0.7755875E-012  0.5930192E+02  0.7816164E-02  0.1266605E+00
        -11   -1    0    0    0    0  0.00000000000E+00  0.00000000000E+00  0.45593999997E+02  0.45594000000E+02  0.51100000000E-03 0.  1.
         11   -1    0    0    0    0 -0.00000000000E+00 -0.00000000000E+00 -0.45593999997E+02  0.45594000000E+02  0.51100000000E-03 0. -1.
    9900012    2    1    2    0    0  0.29537074507E+02 -0.65492648481E+01  0.10069282244E+02  0.59301920194E+02  0.49999956534E+02 0.  0.
         12    1    1    2    0    0 -0.29537074507E+02  0.65492648481E+01 -0.10069282244E+02  0.31886079806E+02  0.00000000000E+00 0. -1.
         11    1    3    3    0    0  0.31185679970E+02 -0.57125096934E+01  0.21710699848E+01  0.31778812869E+02  0.51100000000E-03 0. -1.
        -11    1    3    3    0    0  0.31899765448E+01  0.73258667323E+01  0.14086307515E+02  0.16194700782E+02  0.51100000000E-03 0.  1.
         12    1    3    3    0    0 -0.48385820085E+01 -0.81626218870E+01 -0.61880952560E+01  0.11328406544E+02  0.00000000000E+00 0. -1.
</event>
<event>
 7    1  0.7755875E-012  0.5930195E+02  0.7816164E-02  0.1266605E+00
        -11   -1    0    0    0    0  0.00000000000E+00  0.00000000000E+00  0.45593999997E+02  0.45594000000E+02  0.51100000000E-03 0.  1.
         11   -1    0    0    0    0 -0.00000000000E+00 -0.00000000000E+00 -0.45593999997E+02  0.45594000000E+02  0.51100000000E-03 0. -1.
    9900012    2    1    2    0    0  0.17266625113E+02  0.20048636331E+02  0.17794265432E+02  0.59301952208E+02  0.50000014919E+02 0.  0.
         12    1    1    2    0    0 -0.17266625113E+02 -0.20048636331E+02 -0.17794265432E+02  0.31886047792E+02  0.00000000000E+00 0. -1.
         11    1    3    3    0    0  0.14289463587E+02  0.13498863938E+02 -0.92090839145E+01  0.21707494651E+02  0.51100000000E-03 0. -1.
        -11    1    3    3    0    0  0.10024827800E+02  0.18158719407E+00  0.26210537026E+02  0.28062829468E+02  0.51100000000E-03 0.  1.
         12    1    3    3    0    0 -0.70476662740E+01  0.63681851990E+01  0.79281232073E+00  0.95316280883E+01  0.00000000000E+00 0. -1.
</event>
<event>
 7    1  0.7755875E-012  0.5930194E+02  0.7816164E-02  0.1266605E+00
        -11   -1    0    0    0    0  0.00000000000E+00  0.00000000000E+00  0.45593999997E+02  0.45594000000E+02  0.51100000000E-03 0. -1.
         11   -1    0    0    0    0 -0.00000000000E+00 -0.00000000000E+00 -0.45593999997E+02  0.45594000000E+02  0.51100000000E-03 0.  1.
    9900012    2    1    2    0    0 -0.67198397678E+01  0.29053054130E+02 -0.11290898752E+02  0.59301943558E+02  0.49999999144E+02 0.  0.
         12    1    1    2    0    0  0.67198397678E+01 -0.29053054130E+02  0.11290898752E+02  0.31886056442E+02  0.00000000000E+00 0. -1.
         11    1    3    3    0    0 -0.82748483763E+01  0.44681788297E+01  0.94626389286E+01  0.13340887282E+02  0.51100000000E-03 0. -1.
        -11    1    3    3    0    0 -0.59607212398E+01  0.24592723988E+02 -0.26393633606E+02  0.36564411195E+02  0.51100000000E-03 0.  1.
        -12    1    3    3    0    0  0.75157298483E+01 -0.78486878035E-02  0.56400959249E+01  0.93966450820E+01  0.00000000000E+00 0.  1.
</event>
<event>
 7    1  0.7755875E-012  0.5930197E+02  0.7816164E-02  0.1266605E+00
        -11   -1    0    0    0    0  0.00000000000E+00  0.00000000000E+00  0.45593999997E+02  0.45594000000E+02  0.51100000000E-03 0. -1.
         11   -1    0    0    0    0 -0.00000000000E+00 -0.00000000000E+00 -0.45593999997E+02  0.45594000000E+02  0.51100000000E-03 0.  1.
    9900012    2    1    2    0    0  0.89109932156E+01 -0.19518792741E+02 -0.23586651028E+02  0.59301965802E+02  0.50000039711E+02 0.  0.
         12    1    1    2    0    0 -0.89109932156E+01  0.19518792741E+02  0.23586651028E+02  0.31886034198E+02  0.00000000000E+00 0. -1.
         11    1    3    3    0    0 -0.74617319550E+01 -0.85719070345E+01 -0.34077122010E+01  0.11864549578E+02  0.51100000000E-03 0. -1.
        -11    1    3    3    0    0  0.27076897542E+02 -0.12983500337E+02 -0.79602254229E+01  0.31065975770E+02  0.51100000000E-03 0.  1.
        -12    1    3    3    0    0 -0.10704172371E+02  0.20366146304E+01 -0.12218713404E+02  0.16371440455E+02  0.00000000000E+00 0.  1.
</event>
<event>
 7    1  0.7755875E-012  0.5930194E+02  0.7816164E-02  0.1266605E+00
        -11   -1    0    0    0    0  0.00000000000E+00  0.00000000000E+00  0.45593999997E+02  0.45594000000E+02  0.51100000000E-03 0.  1.
         11   -1    0    0    0    0 -0.00000000000E+00 -0.00000000000E+00 -0.45593999997E+02  0.45594000000E+02  0.51100000000E-03 0. -1.
    9900012    2    1    2    0    0  0.12557341786E+02 -0.23149941174E+02  0.17975378411E+02  0.59301939752E+02  0.49999992203E+02 0.  0.
         12    1    1    2    0    0 -0.12557341786E+02  0.23149941174E+02 -0.17975378411E+02  0.31886060248E+02  0.00000000000E+00 0. -1.
         11    1    3    3    0    0  0.11663280441E+02 -0.21482728292E+02  0.25557159366E+01  0.24577864222E+02  0.51100000000E-03 0. -1.
        -11    1    3    3    0    0  0.22432367731E+01  0.12245491042E+02  0.16539650444E+02  0.20701309117E+02  0.51100000000E-03 0.  1.
        -12    1    3    3    0    0 -0.13491754280E+01 -0.13912703924E+02 -0.11199879695E+01  0.14022766413E+02  0.00000000000E+00 0.  1.
</event>
<event>
 7    1  0.7755875E-012  0.5930200E+02  0.7816164E-02  0.1266605E+00
        -11   -1    0    0    0    0  0.00000000000E+00  0.00000000000E+00  0.45593999997E+02  0.45594000000E+02  0.51100000000E-03 0. -1.
         11   -1    0    0    0    0 -0.00000000000E+00 -0.00000000000E+00 -0.45593999997E+02  0.45594000000E+02  0.51100000000E-03 0.  1.
    9900012    2    1    2    0    0  0.13084635710E+02  0.26149639873E+02 -0.12716356105E+02  0.59301998844E+02  0.50000099971E+02 0.  0.
         12    1    1    2    0    0 -0.13084635710E+02 -0.26149639873E+02  0.12716356105E+02  0.31886001156E+02  0.00000000000E+00 0. -1.
         11    1    3    3    0    0  0.16606704938E+02  0.18729163610E+02  0.63116690144E+01  0.25814751295E+02  0.51100000000E-03 0. -1.
        -11    1    3    3    0    0  0.10711828770E+01  0.15756848563E+02 -0.17949382953E+02  0.23908284298E+02  0.51100000000E-03 0.  1.
         12    1    3    3    0    0 -0.45932521045E+01 -0.83363723009E+01 -0.10786421665E+01  0.95789632507E+01  0.00000000000E+00 0. -1.
</event>
<event>
 7    1  0.7755875E-012  0.5930194E+02  0.7816164E-02  0.1266605E+00
        -11   -1    0    0    0    0  0.00000000000E+00  0.00000000000E+00  0.45593999997E+02  0.45594000000E+02  0.51100000000E-03 0. -1.
         11   -1    0    0    0    0 -0.00000000000E+00 -0.00000000000E+00 -0.45593999997E+02  0.45594000000E+02  0.51100000000E-03 0.  1.
    9900012    2    1    2    0    0  0.21142507118E+02  0.22109550134E+02 -0.89934955785E+01  0.59301940709E+02  0.49999993948E+02 0.  0.
         12    1    1    2    0    0 -0.21142507118E+02 -0.22109550134E+02  0.89934955785E+01  0.31886059291E+02  0.00000000000E+00 0. -1.
         11    1    3    3    0    0  0.12910999597E+02  0.76348177205E+01  0.20334125058E+02  0.25267785703E+02  0.51100000000E-03 0. -1.
        -11    1    3    3    0    0  0.30190012098E+01  0.21229222355E+01 -0.84737425245E+01  0.92425905327E+01  0.51100000000E-03 0.  1.
         12    1    3    3    0    0  0.52125063111E+01  0.12351810178E+02 -0.20853878112E+02  0.24791564473E+02  0.00000000000E+00 0. -1.
</event>
<event>
 7    1  0.7888369E-012  0.5930188E+02  0.7816164E-02  0.1266605E+00
        -11   -1    0    0    0    0  0.00000000000E+00  0.00000000000E+00  0.45593999997E+02  0.45594000000E+02  0.51100000000E-03 0.  1.
         11   -1    0    0    0    0 -0.00000000000E+00 -0.00000000000E+00 -0.45593999997E+02  0.45594000000E+02  0.51100000000E-03 0. -1.
    9900012    2    1    2    0    0  0.11284785097E+02 -0.29821828518E+02  0.19124161571E+00  0.59301883834E+02  0.49999890220E+02 0.  0.
         12    1    1    2    0    0 -0.11284785097E+02  0.29821828518E+02 -0.19124161571E+00  0.31886116166E+02  0.00000000000E+00 0. -1.
         11    1    3    3    0    0  0.83465845407E+01  0.72632938379E+01  0.70648023316E+01  0.13127541396E+02  0.51100000000E-03 0. -1.
        -11    1    3    3    0    0 -0.72573104001E+01 -0.23926881767E+02  0.52913534201E+01  0.25557046907E+02  0.51100000000E-03 0.  1.
         12    1    3    3    0    0  0.10195510956E+02 -0.13158240589E+02 -0.12164914136E+02  0.20617295530E+02  0.00000000000E+00 0. -1.
</event>
<event>
 7    1  0.7755875E-012  0.5930209E+02  0.7816164E-02  0.1266604E+00
        -11   -1    0    0    0    0  0.00000000000E+00  0.00000000000E+00  0.45593999997E+02  0.45594000000E+02  0.51100000000E-03 0.  1.
         11   -1    0    0    0    0 -0.00000000000E+00 -0.00000000000E+00 -0.45593999997E+02  0.45594000000E+02  0.51100000000E-03 0. -1.
    9900012    2    1    2    0    0 -0.61415720966E+01  0.30325153737E+02 -0.77056546925E+01  0.59302094474E+02  0.50000274376E+02 0.  0.
         12    1    1    2    0    0  0.61415720966E+01 -0.30325153737E+02  0.77056546925E+01  0.31885905526E+02  0.00000000000E+00 0. -1.
         11    1    3    3    0    0  0.41459564931E+01 -0.10534265532E+02  0.21226693024E+01  0.11518048045E+02  0.51100000000E-03 0. -1.
        -11    1    3    3    0    0 -0.98062480516E+00  0.30899530454E+02  0.10835256516E+00  0.30915276932E+02  0.51100000000E-03 0.  1.
         12    1    3    3    0    0 -0.93069037846E+01  0.99598888151E+01 -0.99366765602E+01  0.16868769497E+02  0.00000000000E+00 0. -1.
</event>
<event>
 7    1  0.7755875E-012  0.5930195E+02  0.7816164E-02  0.1266605E+00
        -11   -1    0    0    0    0  0.00000000000E+00  0.00000000000E+00  0.45593999997E+02  0.45594000000E+02  0.51100000000E-03 0.  1.
         11   -1    0    0    0    0 -0.00000000000E+00 -0.00000000000E+00 -0.45593999997E+02  0.45594000000E+02  0.51100000000E-03 0. -1.
    9900012    2    1    2    0    0 -0.16314561261E+02 -0.26061408911E+02  0.84473618866E+01  0.59301954989E+02  0.50000019992E+02 0.  0.
         12    1    1    2    0    0  0.16314561261E+02  0.26061408911E+02 -0.84473618866E+01  0.31886045011E+02  0.00000000000E+00 0. -1.
         11    1    3    3    0    0 -0.34220269548E+01  0.88935474777E+01  0.11205027713E+02  0.14709116273E+02  0.51100000000E-03 0.  1.
        -11    1    3    3    0    0 -0.23157609022E+01 -0.19126281656E+02 -0.12739916653E+02  0.23097248216E+02  0.51100000000E-03 0. -1.
         12    1    3    3    0    0 -0.10576773404E+02 -0.15828674733E+02  0.99822508259E+01  0.21495590501E+02  0.00000000000E+00 0. -1.
</event>
<event>
 7    1  0.7755875E-012  0.5930190E+02  0.7816164E-02  0.1266605E+00
        -11   -1    0    0    0    0  0.00000000000E+00  0.00000000000E+00  0.45593999997E+02  0.45594000000E+02  0.51100000000E-03 0. -1.
         11   -1    0    0    0    0 -0.00000000000E+00 -0.00000000000E+00 -0.45593999997E+02  0.45594000000E+02  0.51100000000E-03 0.  1.
    9900012    2    1    2    0    0  0.83150988255E+01 -0.75000594772E+01 -0.29855179230E+02  0.59301898208E+02  0.49999916436E+02 0.  0.
         12    1    1    2    0    0 -0.83150988255E+01  0.75000594772E+01  0.29855179230E+02  0.31886101792E+02  0.00000000000E+00 0. -1.
         11    1    3    3    0    0 -0.11608414496E+02 -0.16311834121E+02 -0.18469398831E+02  0.27238757551E+02  0.51100000000E-03 0. -1.
        -11    1    3    3    0    0  0.12302276718E+02  0.33947127692E+01 -0.16923439555E+02  0.21196058451E+02  0.51100000000E-03 0.  1.
         12    1    3    3    0    0  0.76212366035E+01  0.54170618748E+01  0.55376591564E+01  0.10867082205E+02  0.00000000000E+00 0. -1.
</event>
<event>
 7    1  0.7755875E-012  0.5930195E+02  0.7816164E-02  0.1266605E+00
        -11   -1    0    0    0    0  0.00000000000E+00  0.00000000000E+00  0.45593999997E+02  0.45594000000E+02  0.51100000000E-03 0.  1.
         11   -1    0    0    0    0 -0.00000000000E+00 -0.00000000000E+00 -0.45593999997E+02  0.45594000000E+02  0.51100000000E-03 0. -1.
    9900012    2    1    2    0    0 -0.18788805016E+02 -0.11966807617E+02  0.22814397685E+02  0.59301946305E+02  0.50000004154E+02 0.  0.
         12    1    1    2    0    0  0.18788805016E+02  0.11966807617E+02 -0.22814397685E+02  0.31886053695E+02  0.00000000000E+00 0. -1.
         11    1    3    3    0    0  0.12776629112E+02 -0.11074174870E+02 -0.27997027748E+01  0.17138201084E+02  0.51100000000E-03 0. -1.
        -11    1    3    3    0    0 -0.11035565015E+02 -0.56775581102E+01  0.93156022258E+01  0.15517693333E+02  0.51100000000E-03 0.  1.
         12    1    3    3    0    0 -0.20529869113E+02  0.47849253627E+01  0.16298498234E+02  0.26646051888E+02  0.00000000000E+00 0. -1.
</event>
<event>
 7    1  0.7755875E-012  0.5930196E+02  0.7816164E-02  0.1266605E+00
        -11   -1    0    0    0    0  0.00000000000E+00  0.00000000000E+00  0.45593999997E+02  0.45594000000E+02  0.51100000000E-03 0.  1.
         11   -1    0    0    0    0 -0.00000000000E+00 -0.00000000000E+00 -0.45593999997E+02  0.45594000000E+02  0.51100000000E-03 0. -1.
    9900012    2    1    2    0    0 -0.31603916036E+02 -0.14664497074E+01  0.39701200064E+01  0.59301955460E+02  0.50000020850E+02 0.  0.
         12    1    1    2    0    0  0.31603916036E+02  0.14664497074E+01 -0.39701200064E+01  0.31886044540E+02  0.00000000000E+00 0. -1.
         11    1    3    3    0    0  0.41755339115E+01 -0.15608983921E+02  0.99273161810E+01  0.18963835828E+02  0.51100000000E-03 0. -1.
        -11    1    3    3    0    0 -0.14881727398E+02  0.11305627535E+02 -0.43425747406E+01  0.19187000285E+02  0.51100000000E-03 0.  1.
         12    1    3    3    0    0 -0.20897722550E+02  0.28369066788E+01 -0.16146214339E+01  0.21151119347E+02  0.00000000000E+00 0. -1.
</event>
<event>
 7    1  0.7755875E-012  0.5930195E+02  0.7816164E-02  0.1266605E+00
        -11   -1    0    0    0    0  0.00000000000E+00  0.00000000000E+00  0.45593999997E+02  0.45594000000E+02  0.51100000000E-03 0. -1.
         11   -1    0    0    0    0 -0.00000000000E+00 -0.00000000000E+00 -0.45593999997E+02  0.45594000000E+02  0.51100000000E-03 0.  1.
    9900012    2    1    2    0    0  0.17889629280E+02 -0.25829728670E+02  0.54319719446E+01  0.59301952297E+02  0.50000015081E+02 0.  0.
         12    1    1    2    0    0 -0.17889629280E+02  0.25829728670E+02 -0.54319719446E+01  0.31886047703E+02  0.00000000000E+00 0. -1.
         11    1    3    3    0    0  0.13734190378E+02 -0.51029008078E+00  0.19397723967E+02  0.23773095648E+02  0.51100000000E-03 0. -1.
        -11    1    3    3    0    0  0.92848087522E+01 -0.16702706925E+02 -0.16430878067E+02  0.25202417473E+02  0.51100000000E-03 0.  1.
         12    1    3    3    0    0 -0.51293698508E+01 -0.86167316640E+01  0.24651260438E+01  0.10326439176E+02  0.00000000000E+00 0. -1.
</event>
<event>
 7    1  0.7755875E-012  0.5930193E+02  0.7816164E-02  0.1266605E+00
        -11   -1    0    0    0    0  0.00000000000E+00  0.00000000000E+00  0.45593999997E+02  0.45594000000E+02  0.51100000000E-03 0.  1.
         11   -1    0    0    0    0 -0.00000000000E+00 -0.00000000000E+00 -0.45593999997E+02  0.45594000000E+02  0.51100000000E-03 0. -1.
    9900012    2    1    2    0    0 -0.50460245826E+01 -0.18647400506E+01  0.31428993168E+02  0.59301933590E+02  0.49999980963E+02 0.  0.
         12    1    1    2    0    0  0.50460245826E+01  0.18647400506E+01 -0.31428993168E+02  0.31886066410E+02  0.00000000000E+00 0. -1.
         11    1    3    3    0    0 -0.11232268742E+01  0.41114305924E+01  0.30023433848E+02  0.30324446910E+02  0.51100000000E-03 0.  1.
        -11    1    3    3    0    0  0.61596465620E+00 -0.16783640222E+02  0.32641678108E+01  0.17109201714E+02  0.51100000000E-03 0. -1.
        -12    1    3    3    0    0 -0.45387623646E+01  0.10807469579E+02 -0.18586084903E+01  0.11868284965E+02  0.00000000000E+00 0.  1.
</event>
<event>
 7    1  0.7755875E-012  0.5930194E+02  0.7816164E-02  0.1266605E+00
        -11   -1    0    0    0    0  0.00000000000E+00  0.00000000000E+00  0.45593999997E+02  0.45594000000E+02  0.51100000000E-03 0. -1.
         11   -1    0    0    0    0 -0.00000000000E+00 -0.00000000000E+00 -0.45593999997E+02  0.45594000000E+02  0.51100000000E-03 0.  1.
    9900012    2    1    2    0    0  0.57103384256E+01  0.24919871844E+02 -0.19055521379E+02  0.59301939210E+02  0.49999991213E+02 0.  0.
         12    1    1    2    0    0 -0.57103384256E+01 -0.24919871844E+02  0.19055521379E+02  0.31886060790E+02  0.00000000000E+00 0. -1.
         11    1    3    3    0    0 -0.30032257899E+01  0.20486897984E+02  0.28891387738E+01  0.20906445830E+02  0.51100000000E-03 0. -1.
        -11    1    3    3    0    0 -0.10319587913E+02 -0.26119314569E+01 -0.11120946596E+02  0.15394529355E+02  0.51100000000E-03 0.  1.
        -12    1    3    3    0    0  0.19033152128E+02  0.70449053175E+01 -0.10823713557E+02  0.23000964024E+02  0.00000000000E+00 0.  1.
</event>
<event>
 7    1  0.7755875E-012  0.5930196E+02  0.7816164E-02  0.1266605E+00
        -11   -1    0    0    0    0  0.00000000000E+00  0.00000000000E+00  0.45593999997E+02  0.45594000000E+02  0.51100000000E-03 0.  1.
         11   -1    0    0    0    0 -0.00000000000E+00 -0.00000000000E+00 -0.45593999997E+02  0.45594000000E+02  0.51100000000E-03 0. -1.
    9900012    2    1    2    0    0 -0.87512287314E+00  0.20926322745E+02  0.24042524895E+02  0.59301955608E+02  0.50000021119E+02 0.  0.
         12    1    1    2    0    0  0.87512287314E+00 -0.20926322745E+02 -0.24042524895E+02  0.31886044392E+02  0.00000000000E+00 0. -1.
         11    1    3    3    0    0 -0.60819990328E+01 -0.58494789758E+01  0.21453368723E+02  0.23053289274E+02  0.51100000000E-03 0. -1.
        -11    1    3    3    0    0  0.12767098969E+02  0.17532186402E+02 -0.47903757895E+01  0.22210899950E+02  0.51100000000E-03 0.  1.
        -12    1    3    3    0    0 -0.75602228089E+01  0.92436153185E+01  0.73795319611E+01  0.14037766384E+02  0.00000000000E+00 0.  1.
</event>
<event>
 7    1  0.7755875E-012  0.5930193E+02  0.7816164E-02  0.1266605E+00
        -11   -1    0    0    0    0  0.00000000000E+00  0.00000000000E+00  0.45593999997E+02  0.45594000000E+02  0.51100000000E-03 0. -1.
         11   -1    0    0    0    0 -0.00000000000E+00 -0.00000000000E+00 -0.45593999997E+02  0.45594000000E+02  0.51100000000E-03 0.  1.
    9900012    2    1    2    0    0  0.16948988880E+02  0.15089275266E+02 -0.22400157832E+02  0.59301929013E+02  0.49999972616E+02 0.  0.
         12    1    1    2    0    0 -0.16948988880E+02 -0.15089275266E+02  0.22400157832E+02  0.31886070987E+02  0.00000000000E+00 0. -1.
         11    1    3    3    0    0  0.15774448264E+02 -0.12528281047E+02 -0.15838243632E+02  0.25625007427E+02  0.51100000000E-03 0. -1.
        -11    1    3    3    0    0 -0.12994620426E+01  0.22234420025E+02 -0.12288283986E+02  0.25437373273E+02  0.51100000000E-03 0.  1.
        -12    1    3    3    0    0  0.24740026593E+01  0.53831362882E+01  0.57263697872E+01  0.82395483126E+01  0.00000000000E+00 0.  1.
</event>
<event>
 7    1  0.7755875E-012  0.5930195E+02  0.7816164E-02  0.1266605E+00
        -11   -1    0    0    0    0  0.00000000000E+00  0.00000000000E+00  0.45593999997E+02  0.45594000000E+02  0.51100000000E-03 0.  1.
         11   -1    0    0    0    0 -0.00000000000E+00 -0.00000000000E+00 -0.45593999997E+02  0.45594000000E+02  0.51100000000E-03 0. -1.
    9900012    2    1    2    0    0  0.18665085691E+02  0.50131431273E+01  0.25361452860E+02  0.59301947892E+02  0.50000007047E+02 0.  0.
         12    1    1    2    0    0 -0.18665085691E+02 -0.50131431273E+01 -0.25361452860E+02  0.31886052108E+02  0.00000000000E+00 0. -1.
         11    1    3    3    0    0 -0.10385109616E+02 -0.54553489011E+01  0.77930542559E+01  0.14083430983E+02  0.51100000000E-03 0. -1.
        -11    1    3    3    0    0  0.29625678551E+02  0.13670312679E+02  0.59658052118E+01  0.33168495752E+02  0.51100000000E-03 0.  1.
        -12    1    3    3    0    0 -0.57548324494E+00 -0.32018206504E+01  0.11602593393E+02  0.12050021157E+02  0.00000000000E+00 0.  1.
</event>
<event>
 7    1  0.7755875E-012  0.5930194E+02  0.7816164E-02  0.1266605E+00
        -11   -1    0    0    0    0  0.00000000000E+00  0.00000000000E+00  0.45593999997E+02  0.45594000000E+02  0.51100000000E-03 0.  1.
         11   -1    0    0    0    0 -0.00000000000E+00 -0.00000000000E+00 -0.45593999997E+02  0.45594000000E+02  0.51100000000E-03 0. -1.
    9900012    2    1    2    0    0  0.95193236401E+01  0.26749928875E+02 -0.14510160950E+02  0.59301937399E+02  0.49999987911E+02 0.  0.
         12    1    1    2    0    0 -0.95193236401E+01 -0.26749928875E+02  0.14510160950E+02  0.31886062601E+02  0.00000000000E+00 0. -1.
         11    1    3    3    0    0 -0.39280893400E+01  0.10190860484E+02 -0.16011144343E+01  0.11038436980E+02  0.51100000000E-03 0. -1.
        -11    1    3    3    0    0  0.20551734552E+02  0.26896415777E+02 -0.79145476741E+01  0.34762494730E+02  0.51100000000E-03 0.  1.
        -12    1    3    3    0    0 -0.71043215718E+01 -0.10337347385E+02 -0.49944988414E+01  0.13501005689E+02  0.00000000000E+00 0.  1.
</event>
<event>
 7    1  0.7755875E-012  0.5930195E+02  0.7816164E-02  0.1266605E+00
        -11   -1    0    0    0    0  0.00000000000E+00  0.00000000000E+00  0.45593999997E+02  0.45594000000E+02  0.51100000000E-03 0.  1.
         11   -1    0    0    0    0 -0.00000000000E+00 -0.00000000000E+00 -0.45593999997E+02  0.45594000000E+02  0.51100000000E-03 0. -1.
    9900012    2    1    2    0    0 -0.94732328397E+01  0.63838958513E+01  0.29769511837E+02  0.59301951300E+02  0.50000013264E+02 0.  0.
         12    1    1    2    0    0  0.94732328397E+01 -0.63838958513E+01 -0.29769511837E+02  0.31886048700E+02  0.00000000000E+00 0. -1.
         11    1    3    3    0    0 -0.13390476038E+02 -0.14557958163E+02  0.17090499896E+02  0.26140470182E+02  0.51100000000E-03 0. -1.
        -11    1    3    3    0    0  0.77699094113E+01 -0.13970219858E+01  0.22500361827E+01  0.82088869997E+01  0.51100000000E-03 0.  1.
         12    1    3    3    0    0 -0.38526662127E+01  0.22338876000E+02  0.10428975758E+02  0.24952594119E+02  0.00000000000E+00 0. -1.
</event>
<event>
 7    1  0.7755875E-012  0.5930158E+02  0.7816164E-02  0.1266606E+00
        -11   -1    0    0    0    0  0.00000000000E+00  0.00000000000E+00  0.45593999997E+02  0.45594000000E+02  0.51100000000E-03 0. -1.
         11   -1    0    0    0    0 -0.00000000000E+00 -0.00000000000E+00 -0.45593999997E+02  0.45594000000E+02  0.51100000000E-03 0.  1.
    9900012    2    1    2    0    0 -0.15830349328E+02  0.79527762273E+01 -0.26512207299E+02  0.59301580548E+02  0.49999337096E+02 0.  0.
         12    1    1    2    0    0  0.15830349328E+02 -0.79527762273E+01  0.26512207299E+02  0.31886419452E+02  0.00000000000E+00 0. -1.
         11    1    3    3    0    0 -0.11828831546E+02 -0.19635247262E+02 -0.18725721361E+02  0.29599270794E+02  0.51100000000E-03 0. -1.
        -11    1    3    3    0    0 -0.17201360307E+01  0.21348925730E+02 -0.32627727580E+01  0.21665206764E+02  0.51100000000E-03 0.  1.
         12    1    3    3    0    0 -0.22813817514E+01  0.62390977585E+01 -0.45237131802E+01  0.80371029901E+01  0.00000000000E+00 0. -1.
</event>
<event>
 7    1  0.7755875E-012  0.5930193E+02  0.7816164E-02  0.1266605E+00
        -11   -1    0    0    0    0  0.00000000000E+00  0.00000000000E+00  0.45593999997E+02  0.45594000000E+02  0.51100000000E-03 0. -1.
         11   -1    0    0    0    0 -0.00000000000E+00 -0.00000000000E+00 -0.45593999997E+02  0.45594000000E+02  0.51100000000E-03 0.  1.
    9900012    2    1    2    0    0 -0.60139532486E+01 -0.26277120127E+02 -0.17031340672E+02  0.59301933436E+02  0.49999980683E+02 0.  0.
         12    1    1    2    0    0  0.60139532486E+01  0.26277120127E+02  0.17031340672E+02  0.31886066564E+02  0.00000000000E+00 0. -1.
         11    1    3    3    0    0 -0.11609604733E+02  0.87656436174E+01 -0.80906272793E+01  0.16645650486E+02  0.51100000000E-03 0. -1.
        -11    1    3    3    0    0  0.10749344161E+02 -0.31843164226E+02 -0.23376455982E+01  0.33689762466E+02  0.51100000000E-03 0.  1.
        -12    1    3    3    0    0 -0.51536926765E+01 -0.31995995183E+01 -0.66030677948E+01  0.89665204837E+01  0.00000000000E+00 0.  1.
</event>
<event>
 7    1  0.7755875E-012  0.5930198E+02  0.7816164E-02  0.1266605E+00
        -11   -1    0    0    0    0  0.00000000000E+00  0.00000000000E+00  0.45593999997E+02  0.45594000000E+02  0.51100000000E-03 0. -1.
         11   -1    0    0    0    0 -0.00000000000E+00 -0.00000000000E+00 -0.45593999997E+02  0.45594000000E+02  0.51100000000E-03 0.  1.
    9900012    2    1    2    0    0  0.23224977130E+02  0.19277934508E+02 -0.10280071106E+02  0.59301981379E+02  0.50000068119E+02 0.  0.
         12    1    1    2    0    0 -0.23224977130E+02 -0.19277934508E+02  0.10280071106E+02  0.31886018621E+02  0.00000000000E+00 0. -1.
         11    1    3    3    0    0  0.40928082509E+01  0.27315294239E+02 -0.21731464894E+01  0.27705576057E+02  0.51100000000E-03 0. -1.
        -11    1    3    3    0    0  0.22971072720E+02 -0.40354107691E+01 -0.20939682702E+01  0.23416648466E+02  0.51100000000E-03 0.  1.
         12    1    3    3    0    0 -0.38389038413E+01 -0.40019489617E+01 -0.60129563465E+01  0.81797568558E+01  0.00000000000E+00 0. -1.
</event>
<event>
 7    1  0.7755875E-012  0.5930197E+02  0.7816164E-02  0.1266605E+00
        -11   -1    0    0    0    0  0.00000000000E+00  0.00000000000E+00  0.45593999997E+02  0.45594000000E+02  0.51100000000E-03 0. -1.
         11   -1    0    0    0    0 -0.00000000000E+00 -0.00000000000E+00 -0.45593999997E+02  0.45594000000E+02  0.51100000000E-03 0.  1.
    9900012    2    1    2    0    0  0.64030990778E+00  0.17343827770E+02 -0.26748842842E+02  0.59301969330E+02  0.50000046145E+02 0.  0.
         12    1    1    2    0    0 -0.64030990778E+00 -0.17343827770E+02  0.26748842842E+02  0.31886030670E+02  0.00000000000E+00 0. -1.
         11    1    3    3    0    0 -0.77693416476E+00  0.24842567005E+02 -0.67466539536E+01  0.25754108448E+02  0.51100000000E-03 0. -1.
        -11    1    3    3    0    0  0.75772821259E+01 -0.78665714496E+01 -0.23880183490E+02  0.26259499511E+02  0.51100000000E-03 0.  1.
        -12    1    3    3    0    0 -0.61600380534E+01  0.36783221379E+00  0.38779946009E+01  0.72883613715E+01  0.00000000000E+00 0.  1.
</event>
<event>
 7    1  0.7755875E-012  0.5930196E+02  0.7816164E-02  0.1266605E+00
        -11   -1    0    0    0    0  0.00000000000E+00  0.00000000000E+00  0.45593999997E+02  0.45594000000E+02  0.51100000000E-03 0. -1.
         11   -1    0    0    0    0 -0.00000000000E+00 -0.00000000000E+00 -0.45593999997E+02  0.45594000000E+02  0.51100000000E-03 0.  1.
    9900012    2    1    2    0    0 -0.18993224664E+02 -0.25605228871E+02  0.59114853306E+00  0.59301956262E+02  0.50000022313E+02 0.  0.
         12    1    1    2    0    0  0.18993224664E+02  0.25605228871E+02 -0.59114853306E+00  0.31886043738E+02  0.00000000000E+00 0. -1.
         11    1    3    3    0    0  0.84465810156E+00 -0.17787356806E+02 -0.10719421773E+02  0.20784838533E+02  0.51100000000E-03 0.  1.
        -11    1    3    3    0    0 -0.69898857496E+01 -0.76131389522E+01  0.20337964142E+02  0.22813398984E+02  0.51100000000E-03 0. -1.
        -12    1    3    3    0    0 -0.12847997016E+02 -0.20473311293E+00 -0.90273938361E+01  0.15703718745E+02  0.00000000000E+00 0.  1.
</event>
<event>
 7    1  0.7755875E-012  0.5930191E+02  0.7816164E-02  0.1266605E+00
        -11   -1    0    0    0    0  0.00000000000E+00  0.00000000000E+00  0.45593999997E+02  0.45594000000E+02  0.51100000000E-03 0.  1.
         11   -1    0    0    0    0 -0.00000000000E+00 -0.00000000000E+00 -0.45593999997E+02  0.45594000000E+02  0.51100000000E-03 0. -1.
    9900012    2    1    2    0    0 -0.25308816308E+02 -0.19005868092E+02  0.38682493995E+01  0.59301912779E+02  0.49999943011E+02 0.  0.
         12    1    1    2    0    0  0.25308816308E+02  0.19005868092E+02 -0.38682493995E+01  0.31886087221E+02  0.00000000000E+00 0. -1.
         11    1    3    3    0    0 -0.12296446998E+02 -0.25261600690E+02  0.20662642939E+02  0.34875433928E+02  0.51100000000E-03 0. -1.
        -11    1    3    3    0    0 -0.41497008914E+01  0.39091161373E+01 -0.49099636435E+00  0.57220873948E+01  0.51100000000E-03 0.  1.
         12    1    3    3    0    0 -0.88626684183E+01  0.23466164611E+01 -0.16303397175E+02  0.18704391456E+02  0.00000000000E+00 0. -1.
</event>
<event>
 7    1  0.7755875E-012  0.5930201E+02  0.7816164E-02  0.1266605E+00
        -11   -1    0    0    0    0  0.00000000000E+00  0.00000000000E+00  0.45593999997E+02  0.45594000000E+02  0.51100000000E-03 0. -1.
         11   -1    0    0    0    0 -0.00000000000E+00 -0.00000000000E+00 -0.45593999997E+02  0.45594000000E+02  0.51100000000E-03 0.  1.
    9900012    2    1    2    0    0  0.11824754628E+02 -0.29534841536E+02 -0.21412566901E+01  0.59302005163E+02  0.50000111495E+02 0.  0.
         12    1    1    2    0    0 -0.11824754628E+02  0.29534841536E+02  0.21412566901E+01  0.31885994837E+02  0.00000000000E+00 0. -1.
         11    1    3    3    0    0  0.95088421276E+01  0.25449783949E+01 -0.11986663292E+02  0.15510483254E+02  0.51100000000E-03 0. -1.
        -11    1    3    3    0    0 -0.12390245861E+02 -0.19993607963E+02  0.38520184278E+01  0.23834860983E+02  0.51100000000E-03 0.  1.
        -12    1    3    3    0    0  0.14706158362E+02 -0.12086211968E+02  0.59933881736E+01  0.19956660925E+02  0.00000000000E+00 0.  1.
</event>
<event>
 7    1  0.7755875E-012  0.5930194E+02  0.7816164E-02  0.1266605E+00
        -11   -1    0    0    0    0  0.00000000000E+00  0.00000000000E+00  0.45593999997E+02  0.45594000000E+02  0.51100000000E-03 0.  1.
         11   -1    0    0    0    0 -0.00000000000E+00 -0.00000000000E+00 -0.45593999997E+02  0.45594000000E+02  0.51100000000E-03 0. -1.
    9900012    2    1    2    0    0  0.22511695377E+02  0.14367785670E+02  0.17421574545E+02  0.59301937944E+02  0.49999988904E+02 0.  0.
         12    1    1    2    0    0 -0.22511695377E+02 -0.14367785670E+02 -0.17421574545E+02  0.31886062056E+02  0.00000000000E+00 0. -1.
         11    1    3    3    0    0  0.27285003599E+02  0.19114494916E+01 -0.62623959105E-01  0.27351946595E+02  0.51100000000E-03 0. -1.
        -11    1    3    3    0    0 -0.80264401439E+01  0.18338880949E+02  0.13199266468E+02  0.23978301262E+02  0.51100000000E-03 0.  1.
        -12    1    3    3    0    0  0.32531319225E+01 -0.58825447704E+01  0.42849320358E+01  0.79716900864E+01  0.00000000000E+00 0.  1.
</event>
<event>
 7    1  0.7755875E-012  0.5930194E+02  0.7816164E-02  0.1266605E+00
        -11   -1    0    0    0    0  0.00000000000E+00  0.00000000000E+00  0.45593999997E+02  0.45594000000E+02  0.51100000000E-03 0.  1.
         11   -1    0    0    0    0 -0.00000000000E+00 -0.00000000000E+00 -0.45593999997E+02  0.45594000000E+02  0.51100000000E-03 0. -1.
    9900012    2    1    2    0    0 -0.20025987362E+02 -0.71784006790E+01  0.23751872669E+02  0.59301936251E+02  0.49999985816E+02 0.  0.
         12    1    1    2    0    0  0.20025987362E+02  0.71784006790E+01 -0.23751872669E+02  0.31886063749E+02  0.00000000000E+00 0. -1.
         11    1    3    3    0    0 -0.17540681957E+02  0.17551702428E+02  0.15963201496E+02  0.29505280611E+02  0.51100000000E-03 0. -1.
        -11    1    3    3    0    0  0.39033365004E+00 -0.70774995979E+01  0.94739694722E+01  0.11832136694E+02  0.51100000000E-03 0.  1.
         12    1    3    3    0    0 -0.28756390548E+01 -0.17652603509E+02 -0.16852982994E+01  0.17964518946E+02  0.00000000000E+00 0. -1.
</event>
<event>
 7    1  0.7755875E-012  0.5930194E+02  0.7816164E-02  0.1266605E+00
        -11   -1    0    0    0    0  0.00000000000E+00  0.00000000000E+00  0.45593999997E+02  0.45594000000E+02  0.51100000000E-03 0. -1.
         11   -1    0    0    0    0 -0.00000000000E+00 -0.00000000000E+00 -0.45593999997E+02  0.45594000000E+02  0.51100000000E-03 0.  1.
    9900012    2    1    2    0    0 -0.30058373687E+02  0.10333670415E+02  0.25358349928E+01  0.59301936711E+02  0.49999986657E+02 0.  0.
         12    1    1    2    0    0  0.30058373687E+02 -0.10333670415E+02 -0.25358349928E+01  0.31886063289E+02  0.00000000000E+00 0. -1.
         11    1    3    3    0    0 -0.11419391039E+02  0.20447560429E+02  0.78439019661E+01  0.24698826238E+02  0.51100000000E-03 0. -1.
        -11    1    3    3    0    0 -0.20104171927E+02 -0.17261444048E+02 -0.63091036248E+01  0.27238575005E+02  0.51100000000E-03 0.  1.
         12    1    3    3    0    0  0.14651892793E+01  0.71475540337E+01  0.10010366515E+01  0.73645354685E+01  0.00000000000E+00 0. -1.
</event>
<event>
 7    1  0.7755875E-012  0.5930191E+02  0.7816164E-02  0.1266605E+00
        -11   -1    0    0    0    0  0.00000000000E+00  0.00000000000E+00  0.45593999997E+02  0.45594000000E+02  0.51100000000E-03 0. -1.
         11   -1    0    0    0    0 -0.00000000000E+00 -0.00000000000E+00 -0.45593999997E+02  0.45594000000E+02  0.51100000000E-03 0.  1.
    9900012    2    1    2    0    0  0.13427816404E+02  0.88975417057E+00 -0.28907174014E+02  0.59301911727E+02  0.49999941091E+02 0.  0.
         12    1    1    2    0    0 -0.13427816404E+02 -0.88975417057E+00  0.28907174014E+02  0.31886088273E+02  0.00000000000E+00 0. -1.
         11    1    3    3    0    0 -0.78122639486E+01  0.13597001642E+02 -0.88954429885E+01  0.18028833236E+02  0.51100000000E-03 0. -1.
        -11    1    3    3    0    0  0.26150863000E+02 -0.11826319389E+02 -0.10553269112E+02  0.30579420451E+02  0.51100000000E-03 0.  1.
        -12    1    3    3    0    0 -0.49107826471E+01 -0.88092808228E+00 -0.94584619132E+01  0.10693658039E+02  0.00000000000E+00 0.  1.
</event>
<event>
 7    1  0.7755875E-012  0.5930197E+02  0.7816164E-02  0.1266605E+00
        -11   -1    0    0    0    0  0.00000000000E+00  0.00000000000E+00  0.45593999997E+02  0.45594000000E+02  0.51100000000E-03 0.  1.
         11   -1    0    0    0    0 -0.00000000000E+00 -0.00000000000E+00 -0.45593999997E+02  0.45594000000E+02  0.51100000000E-03 0. -1.
    9900012    2    1    2    0    0  0.36480531357E+01 -0.21322440352E+02  0.23425718570E+02  0.59301967874E+02  0.50000043490E+02 0.  0.
         12    1    1    2    0    0 -0.36480531357E+01  0.21322440352E+02 -0.23425718570E+02  0.31886032126E+02  0.00000000000E+00 0. -1.
         11    1    3    3    0    0 -0.16880241222E+02 -0.12540060108E+02  0.14498217781E+02  0.25542004039E+02  0.51100000000E-03 0. -1.
        -11    1    3    3    0    0  0.23263021919E+02 -0.13202020960E+02  0.49195370494E+01  0.27196753323E+02  0.51100000000E-03 0.  1.
        -12    1    3    3    0    0 -0.27347275615E+01  0.44196407161E+01  0.40079637392E+01  0.65632105124E+01  0.00000000000E+00 0.  1.
</event>
<event>
 7    1  0.7755875E-012  0.5930193E+02  0.7816164E-02  0.1266605E+00
        -11   -1    0    0    0    0  0.00000000000E+00  0.00000000000E+00  0.45593999997E+02  0.45594000000E+02  0.51100000000E-03 0.  1.
         11   -1    0    0    0    0 -0.00000000000E+00 -0.00000000000E+00 -0.45593999997E+02  0.45594000000E+02  0.51100000000E-03 0. -1.
    9900012    2    1    2    0    0 -0.30755000426E+01  0.69459495567E+01  0.30967997146E+02  0.59301925250E+02  0.49999965753E+02 0.  0.
         12    1    1    2    0    0  0.30755000426E+01 -0.69459495567E+01 -0.30967997146E+02  0.31886074750E+02  0.00000000000E+00 0. -1.
         11    1    3    3    0    0 -0.16265004961E+02 -0.49439326918E+01 -0.40798385156E+01  0.17482503809E+02  0.51100000000E-03 0. -1.
        -11    1    3    3    0    0  0.23460677959E+01 -0.88887775117E+00  0.17023453349E+02  0.17207326985E+02  0.51100000000E-03 0.  1.
         12    1    3    3    0    0  0.10843437123E+02  0.12778760000E+02  0.18024382312E+02  0.24612094456E+02  0.00000000000E+00 0. -1.
</event>
<event>
 7    1  0.7755875E-012  0.5930193E+02  0.7816164E-02  0.1266605E+00
        -11   -1    0    0    0    0  0.00000000000E+00  0.00000000000E+00  0.45593999997E+02  0.45594000000E+02  0.51100000000E-03 0.  1.
         11   -1    0    0    0    0 -0.00000000000E+00 -0.00000000000E+00 -0.45593999997E+02  0.45594000000E+02  0.51100000000E-03 0. -1.
    9900012    2    1    2    0    0 -0.74466006009E+01  0.14477310414E+02  0.27416727130E+02  0.59301932449E+02  0.49999978884E+02 0.  0.
         12    1    1    2    0    0  0.74466006009E+01 -0.14477310414E+02 -0.27416727130E+02  0.31886067551E+02  0.00000000000E+00 0. -1.
         11    1    3    3    0    0  0.61169680426E+01 -0.10541858654E+02 -0.56437886621E+01  0.13431322818E+02  0.51100000000E-03 0. -1.
        -11    1    3    3    0    0 -0.15636575987E+02  0.16406953067E+02  0.20933713205E+02  0.30853054409E+02  0.51100000000E-03 0.  1.
         12    1    3    3    0    0  0.20730073436E+01  0.86122160011E+01  0.12126802587E+02  0.15017555223E+02  0.00000000000E+00 0. -1.
</event>
<event>
 7    1  0.7755875E-012  0.5930191E+02  0.7816164E-02  0.1266605E+00
        -11   -1    0    0    0    0  0.00000000000E+00  0.00000000000E+00  0.45593999997E+02  0.45594000000E+02  0.51100000000E-03 0.  1.
         11   -1    0    0    0    0 -0.00000000000E+00 -0.00000000000E+00 -0.45593999997E+02  0.45594000000E+02  0.51100000000E-03 0. -1.
    9900012    2    1    2    0    0  0.43121680094E+01 -0.31214257856E+02  0.48783195813E+01  0.59301910738E+02  0.49999939288E+02 0.  0.
         12    1    1    2    0    0 -0.43121680094E+01  0.31214257856E+02 -0.48783195813E+01  0.31886089262E+02  0.00000000000E+00 0. -1.
         11    1    3    3    0    0 -0.12701736621E+02 -0.20566820152E+02  0.17760259780E+02  0.29995916923E+02  0.51100000000E-03 0. -1.
        -11    1    3    3    0    0  0.11695766078E+01 -0.96979699899E+01 -0.82093422558E+01  0.12759773975E+02  0.51100000000E-03 0.  1.
         12    1    3    3    0    0  0.15844328023E+02 -0.94946771473E+00 -0.46725979433E+01  0.16546219840E+02  0.00000000000E+00 0. -1.
</event>
<event>
 7    1  0.7755875E-012  0.5930196E+02  0.7816164E-02  0.1266605E+00
        -11   -1    0    0    0    0  0.00000000000E+00  0.00000000000E+00  0.45593999997E+02  0.45594000000E+02  0.51100000000E-03 0.  1.
         11   -1    0    0    0    0 -0.00000000000E+00 -0.00000000000E+00 -0.45593999997E+02  0.45594000000E+02  0.51100000000E-03 0. -1.
    9900012    2    1    2    0    0 -0.27995688741E+02 -0.14386214281E+02  0.50988020956E+01  0.59301960230E+02  0.50000029548E+02 0.  0.
         12    1    1    2    0    0  0.27995688741E+02  0.14386214281E+02 -0.50988020956E+01  0.31886039770E+02  0.00000000000E+00 0. -1.
         11    1    3    3    0    0 -0.26154321175E+02 -0.31125997142E+02  0.63819456644E+01  0.41153437826E+02  0.51100000000E-03 0. -1.
        -11    1    3    3    0    0  0.21887631107E+01  0.99298298710E+01 -0.27974570605E+00  0.10172043214E+02  0.51100000000E-03 0.  1.
         12    1    3    3    0    0 -0.40301306774E+01  0.68099529896E+01 -0.10033978627E+01  0.79764791900E+01  0.00000000000E+00 0. -1.
</event>
<event>
 7    1  0.7755875E-012  0.5930197E+02  0.7816164E-02  0.1266605E+00
        -11   -1    0    0    0    0  0.00000000000E+00  0.00000000000E+00  0.45593999997E+02  0.45594000000E+02  0.51100000000E-03 0.  1.
         11   -1    0    0    0    0 -0.00000000000E+00 -0.00000000000E+00 -0.45593999997E+02  0.45594000000E+02  0.51100000000E-03 0. -1.
    9900012    2    1    2    0    0  0.31059633501E+02 -0.20521051798E+01  0.69142485400E+01  0.59301971685E+02  0.50000050440E+02 0.  0.
         12    1    1    2    0    0 -0.31059633501E+02  0.20521051798E+01 -0.69142485400E+01  0.31886028315E+02  0.00000000000E+00 0. -1.
         11    1    3    3    0    0  0.16622162342E+02  0.18073868624E+01 -0.77865290689E+01  0.18444320627E+02  0.51100000000E-03 0. -1.
        -11    1    3    3    0    0 -0.12910817483E+00  0.11039858319E+02  0.16597954632E+02  0.19934573958E+02  0.51100000000E-03 0.  1.
        -12    1    3    3    0    0  0.14566579334E+02 -0.14899350362E+02 -0.18971770234E+01  0.20923077100E+02  0.00000000000E+00 0.  1.
</event>
<event>
 7    1  0.7755875E-012  0.5930194E+02  0.7816164E-02  0.1266605E+00
        -11   -1    0    0    0    0  0.00000000000E+00  0.00000000000E+00  0.45593999997E+02  0.45594000000E+02  0.51100000000E-03 0.  1.
         11   -1    0    0    0    0 -0.00000000000E+00 -0.00000000000E+00 -0.45593999997E+02  0.45594000000E+02  0.51100000000E-03 0. -1.
    9900012    2    1    2    0    0 -0.17319199075E+02  0.15089069086E+02  0.22115290898E+02  0.59301941071E+02  0.49999994608E+02 0.  0.
         12    1    1    2    0    0  0.17319199075E+02 -0.15089069086E+02 -0.22115290898E+02  0.31886058929E+02  0.00000000000E+00 0. -1.
         11    1    3    3    0    0 -0.11342214390E+02  0.13006373775E+02  0.13200096635E+02  0.21726806886E+02  0.51100000000E-03 0. -1.
        -11    1    3    3    0    0 -0.53838552045E+01 -0.16781914585E+02  0.45789986538E+01  0.18209497053E+02  0.51100000000E-03 0.  1.
        -12    1    3    3    0    0 -0.59312948045E+00  0.18864609896E+02  0.43361956100E+01  0.19365637131E+02  0.00000000000E+00 0.  1.
</event>
<event>
 7    1  0.7755875E-012  0.5930195E+02  0.7816164E-02  0.1266605E+00
        -11   -1    0    0    0    0  0.00000000000E+00  0.00000000000E+00  0.45593999997E+02  0.45594000000E+02  0.51100000000E-03 0.  1.
         11   -1    0    0    0    0 -0.00000000000E+00 -0.00000000000E+00 -0.45593999997E+02  0.45594000000E+02  0.51100000000E-03 0. -1.
    9900012    2    1    2    0    0  0.78074872960E+01  0.29702043109E+02  0.85762497860E+01  0.59301948455E+02  0.50000008074E+02 0.  0.
         12    1    1    2    0    0 -0.78074872960E+01 -0.29702043109E+02 -0.85762497860E+01  0.31886051545E+02  0.00000000000E+00 0. -1.
         11    1    3    3    0    0  0.24079583273E+02  0.63831560472E+01 -0.65772735427E+01  0.25764928473E+02  0.51100000000E-03 0. -1.
        -11    1    3    3    0    0 -0.10607854394E+02  0.77122548054E+01  0.86240516385E+01  0.15696487376E+02  0.51100000000E-03 0.  1.
         12    1    3    3    0    0 -0.56642415824E+01  0.15606632257E+02  0.65294716903E+01  0.17840532606E+02  0.00000000000E+00 0. -1.
</event>
<event>
 7    1  0.7755875E-012  0.5930191E+02  0.7816164E-02  0.1266605E+00
        -11   -1    0    0    0    0  0.00000000000E+00  0.00000000000E+00  0.45593999997E+02  0.45594000000E+02  0.51100000000E-03 0. -1.
         11   -1    0    0    0    0 -0.00000000000E+00 -0.00000000000E+00 -0.45593999997E+02  0.45594000000E+02  0.51100000000E-03 0.  1.
    9900012    2    1    2    0    0  0.11198384681E+02 -0.79365459283E+01 -0.28780725873E+02  0.59301909576E+02  0.49999937168E+02 0.  0.
         12    1    1    2    0    0 -0.11198384681E+02  0.79365459283E+01  0.28780725873E+02  0.31886090424E+02  0.00000000000E+00 0. -1.
         11    1    3    3    0    0  0.40599953139E+01  0.14001503948E+02 -0.20770532926E+01  0.14725482179E+02  0.51100000000E-03 0. -1.
        -11    1    3    3    0    0  0.16350497596E+02 -0.20710890908E+02 -0.19233675443E+02  0.32652933178E+02  0.51100000000E-03 0.  1.
        -12    1    3    3    0    0 -0.92121082289E+01 -0.12271589681E+01 -0.74699971377E+01  0.11923494219E+02  0.00000000000E+00 0.  1.
</event>
<event>
 7    1  0.7755875E-012  0.5930193E+02  0.7816164E-02  0.1266605E+00
        -11   -1    0    0    0    0  0.00000000000E+00  0.00000000000E+00  0.45593999997E+02  0.45594000000E+02  0.51100000000E-03 0. -1.
         11   -1    0    0    0    0 -0.00000000000E+00 -0.00000000000E+00 -0.45593999997E+02  0.45594000000E+02  0.51100000000E-03 0.  1.
    9900012    2    1    2    0    0  0.18702481544E+02 -0.24533825039E+02 -0.80641083165E+01  0.59301933609E+02  0.49999980999E+02 0.  0.
         12    1    1    2    0    0 -0.18702481544E+02  0.24533825039E+02  0.80641083165E+01  0.31886066391E+02  0.00000000000E+00 0. -1.
         11    1    3    3    0    0  0.11987736493E+02 -0.12549873328E+02  0.12519234950E+02  0.21399448375E+02  0.51100000000E-03 0.  1.
        -11    1    3    3    0    0 -0.98974965089E+01 -0.25917025844E+01 -0.56708701397E+00  0.10246899403E+02  0.51100000000E-03 0. -1.
         12    1    3    3    0    0  0.16612241560E+02 -0.93922491265E+01 -0.20016256252E+02  0.27655585831E+02  0.00000000000E+00 0. -1.
</event>
<event>
 7    1  0.7755875E-012  0.5930192E+02  0.7816164E-02  0.1266605E+00
        -11   -1    0    0    0    0  0.00000000000E+00  0.00000000000E+00  0.45593999997E+02  0.45594000000E+02  0.51100000000E-03 0. -1.
         11   -1    0    0    0    0 -0.00000000000E+00 -0.00000000000E+00 -0.45593999997E+02  0.45594000000E+02  0.51100000000E-03 0.  1.
    9900012    2    1    2    0    0  0.27835128449E+02  0.12709483584E+02 -0.89664309644E+01  0.59301917879E+02  0.49999952312E+02 0.  0.
         12    1    1    2    0    0 -0.27835128449E+02 -0.12709483584E+02  0.89664309644E+01  0.31886082121E+02  0.00000000000E+00 0. -1.
         11    1    3    3    0    0  0.23927978447E+01 -0.23617261471E+01  0.12100457362E+01  0.35731558689E+01  0.51100000000E-03 0. -1.
        -11    1    3    3    0    0  0.17438741675E+02  0.13676029666E+02 -0.28254527847E+02  0.35909077442E+02  0.51100000000E-03 0.  1.
        -12    1    3    3    0    0  0.80035889296E+01  0.13951800657E+01  0.18078051146E+02  0.19819684569E+02  0.00000000000E+00 0.  1.
</event>
<event>
 7    1  0.7755875E-012  0.5930195E+02  0.7816164E-02  0.1266605E+00
        -11   -1    0    0    0    0  0.00000000000E+00  0.00000000000E+00  0.45593999997E+02  0.45594000000E+02  0.51100000000E-03 0.  1.
         11   -1    0    0    0    0 -0.00000000000E+00 -0.00000000000E+00 -0.45593999997E+02  0.45594000000E+02  0.51100000000E-03 0. -1.
    9900012    2    1    2    0    0  0.31308750631E+02  0.59721080937E+01 -0.90336588162E+00  0.59301952721E+02  0.50000015854E+02 0.  0.
         12    1    1    2    0    0 -0.31308750631E+02 -0.59721080937E+01  0.90336588162E+00  0.31886047279E+02  0.00000000000E+00 0. -1.
         11    1    3    3    0    0  0.25143861018E+02  0.71851267914E+01 -0.93132606739E+01  0.27759261851E+02  0.51100000000E-03 0. -1.
        -11    1    3    3    0    0 -0.37533570016E+01 -0.12876759112E+02  0.91136002271E+01  0.16215928076E+02  0.51100000000E-03 0.  1.
         12    1    3    3    0    0  0.99182466151E+01  0.11663740415E+02 -0.70370543477E+00  0.15326762793E+02  0.00000000000E+00 0. -1.
</event>
<event>
 7    1  0.7755875E-012  0.5930196E+02  0.7816164E-02  0.1266605E+00
        -11   -1    0    0    0    0  0.00000000000E+00  0.00000000000E+00  0.45593999997E+02  0.45594000000E+02  0.51100000000E-03 0.  1.
         11   -1    0    0    0    0 -0.00000000000E+00 -0.00000000000E+00 -0.45593999997E+02  0.45594000000E+02  0.51100000000E-03 0. -1.
    9900012    2    1    2    0    0  0.39933518874E+01  0.31457935035E+02 -0.33423436171E+01  0.59301956081E+02  0.50000021982E+02 0.  0.
         12    1    1    2    0    0 -0.39933518874E+01 -0.31457935035E+02  0.33423436171E+01  0.31886043919E+02  0.00000000000E+00 0. -1.
         11    1    3    3    0    0  0.16766096437E+02  0.32751749165E+02 -0.47761034581E+01  0.37102428864E+02  0.51100000000E-03 0. -1.
        -11    1    3    3    0    0 -0.11045384342E+02  0.40186095185E+01  0.75080763583E+01  0.13947076704E+02  0.51100000000E-03 0.  1.
         12    1    3    3    0    0 -0.17273602072E+01 -0.53124236490E+01 -0.60743165173E+01  0.82524505127E+01  0.00000000000E+00 0. -1.
</event>
<event>
 7    1  0.7755875E-012  0.5930183E+02  0.7816164E-02  0.1266605E+00
        -11   -1    0    0    0    0  0.00000000000E+00  0.00000000000E+00  0.45593999997E+02  0.45594000000E+02  0.51100000000E-03 0. -1.
         11   -1    0    0    0    0 -0.00000000000E+00 -0.00000000000E+00 -0.45593999997E+02  0.45594000000E+02  0.51100000000E-03 0.  1.
    9900012    2    1    2    0    0 -0.13336931884E+02 -0.12695537110E+02 -0.26032239809E+02  0.59301828639E+02  0.49999789559E+02 0.  0.
         12    1    1    2    0    0  0.13336931884E+02  0.12695537110E+02  0.26032239809E+02  0.31886171361E+02  0.00000000000E+00 0. -1.
         11    1    3    3    0    0  0.79114219294E+01  0.36137627615E+00 -0.50511262675E+01  0.93933522551E+01  0.51100000000E-03 0. -1.
        -11    1    3    3    0    0 -0.21480320708E+02 -0.25252856586E+00 -0.28010587947E+02  0.35299589031E+02  0.51100000000E-03 0.  1.
        -12    1    3    3    0    0  0.23196689453E+00 -0.12804384820E+02  0.70294744057E+01  0.14608887353E+02  0.00000000000E+00 0.  1.
</event>
<event>
 7    1  0.7755875E-012  0.5930192E+02  0.7816164E-02  0.1266605E+00
        -11   -1    0    0    0    0  0.00000000000E+00  0.00000000000E+00  0.45593999997E+02  0.45594000000E+02  0.51100000000E-03 0.  1.
         11   -1    0    0    0    0 -0.00000000000E+00 -0.00000000000E+00 -0.45593999997E+02  0.45594000000E+02  0.51100000000E-03 0. -1.
    9900012    2    1    2    0    0 -0.24216222181E+02 -0.12685627538E+02  0.16412547859E+02  0.59301916986E+02  0.49999950683E+02 0.  0.
         12    1    1    2    0    0  0.24216222181E+02  0.12685627538E+02 -0.16412547859E+02  0.31886083014E+02  0.00000000000E+00 0. -1.
         11    1    3    3    0    0 -0.16002482608E+02 -0.76864386576E+01 -0.10958121348E+02  0.20862435442E+02  0.51100000000E-03 0. -1.
        -11    1    3    3    0    0  0.10197755032E+01 -0.13809407518E+02  0.17439905209E+02  0.22268587113E+02  0.51100000000E-03 0.  1.
        -12    1    3    3    0    0 -0.92335150761E+01  0.88102186371E+01  0.99307639981E+01  0.16170894430E+02  0.00000000000E+00 0.  1.
</event>
<event>
 7    1  0.7755875E-012  0.5930194E+02  0.7816164E-02  0.1266605E+00
        -11   -1    0    0    0    0  0.00000000000E+00  0.00000000000E+00  0.45593999997E+02  0.45594000000E+02  0.51100000000E-03 0.  1.
         11   -1    0    0    0    0 -0.00000000000E+00 -0.00000000000E+00 -0.45593999997E+02  0.45594000000E+02  0.51100000000E-03 0. -1.
    9900012    2    1    2    0    0  0.12259401070E+02 -0.29008146039E+02  0.49955039528E+01  0.59301944882E+02  0.50000001559E+02 0.  0.
         12    1    1    2    0    0 -0.12259401070E+02  0.29008146039E+02 -0.49955039528E+01  0.31886055118E+02  0.00000000000E+00 0. -1.
         11    1    3    3    0    0 -0.44191390240E+01 -0.27066515395E+02  0.30998656765E+01  0.27599532837E+02  0.51100000000E-03 0. -1.
        -11    1    3    3    0    0  0.43486730350E+01  0.12153188288E+02  0.35921452406E+00  0.12912783514E+02  0.51100000000E-03 0.  1.
        -12    1    3    3    0    0  0.12329867059E+02 -0.14094818932E+02  0.15364237522E+01  0.18789628532E+02  0.00000000000E+00 0.  1.
</event>
<event>
 7    1  0.7755875E-012  0.5930193E+02  0.7816164E-02  0.1266605E+00
        -11   -1    0    0    0    0  0.00000000000E+00  0.00000000000E+00  0.45593999997E+02  0.45594000000E+02  0.51100000000E-03 0.  1.
         11   -1    0    0    0    0 -0.00000000000E+00 -0.00000000000E+00 -0.45593999997E+02  0.45594000000E+02  0.51100000000E-03 0. -1.
    9900012    2    1    2    0    0 -0.26683517317E+01 -0.29782926609E+02 -0.11071535365E+02  0.59301926022E+02  0.49999967162E+02 0.  0.
         12    1    1    2    0    0  0.26683517317E+01  0.29782926609E+02  0.11071535365E+02  0.31886073978E+02  0.00000000000E+00 0. -1.
         11    1    3    3    0    0 -0.12916156346E+02  0.34617409991E+01 -0.15170452477E+02  0.20222595632E+02  0.51100000000E-03 0. -1.
        -11    1    3    3    0    0  0.55473367709E+01 -0.45707327467E+01  0.68035030676E+01  0.98970802433E+01  0.51100000000E-03 0.  1.
         12    1    3    3    0    0  0.47004678434E+01 -0.28673934862E+02 -0.27045859563E+01  0.29182250146E+02  0.00000000000E+00 0. -1.
</event>
<event>
 7    1  0.7755875E-012  0.5930196E+02  0.7816164E-02  0.1266605E+00
        -11   -1    0    0    0    0  0.00000000000E+00  0.00000000000E+00  0.45593999997E+02  0.45594000000E+02  0.51100000000E-03 0.  1.
         11   -1    0    0    0    0 -0.00000000000E+00 -0.00000000000E+00 -0.45593999997E+02  0.45594000000E+02  0.51100000000E-03 0. -1.
    9900012    2    1    2    0    0  0.25536950764E+01  0.15005603074E+02  0.28018385548E+02  0.59301962133E+02  0.50000033019E+02 0.  0.
         12    1    1    2    0    0 -0.25536950764E+01 -0.15005603074E+02 -0.28018385548E+02  0.31886037867E+02  0.00000000000E+00 0. -1.
         11    1    3    3    0    0  0.61118696293E+00 -0.59234444297E+01 -0.52504932586E+01  0.79390442205E+01  0.51100000000E-03 0. -1.
        -11    1    3    3    0    0 -0.26518873572E+01  0.11575452492E+02  0.38077212610E+02  0.39886059311E+02  0.51100000000E-03 0.  1.
         12    1    3    3    0    0  0.45943954707E+01  0.93535950117E+01 -0.48083338031E+01  0.11476858601E+02  0.00000000000E+00 0. -1.
</event>
<event>
 7    1  0.7755875E-012  0.5930193E+02  0.7816164E-02  0.1266605E+00
        -11   -1    0    0    0    0  0.00000000000E+00  0.00000000000E+00  0.45593999997E+02  0.45594000000E+02  0.51100000000E-03 0. -1.
         11   -1    0    0    0    0 -0.00000000000E+00 -0.00000000000E+00 -0.45593999997E+02  0.45594000000E+02  0.51100000000E-03 0.  1.
    9900012    2    1    2    0    0 -0.22085311598E+02 -0.11165177963E+02 -0.20107195459E+02  0.59301929428E+02  0.49999973373E+02 0.  0.
         12    1    1    2    0    0  0.22085311598E+02  0.11165177963E+02  0.20107195459E+02  0.31886070572E+02  0.00000000000E+00 0. -1.
         11    1    3    3    0    0 -0.13334095227E+02  0.11284368217E+02 -0.10869211674E+02  0.20573643923E+02  0.51100000000E-03 0.  1.
        -11    1    3    3    0    0 -0.10636043771E+02 -0.18363343020E+02  0.66314553053E+01  0.22233173271E+02  0.51100000000E-03 0. -1.
        -12    1    3    3    0    0  0.18848273994E+01 -0.40862031596E+01 -0.15869439090E+02  0.16495112234E+02  0.00000000000E+00 0.  1.
</event>
<event>
 7    1  0.7755875E-012  0.5930194E+02  0.7816164E-02  0.1266605E+00
        -11   -1    0    0    0    0  0.00000000000E+00  0.00000000000E+00  0.45593999997E+02  0.45594000000E+02  0.51100000000E-03 0.  1.
         11   -1    0    0    0    0 -0.00000000000E+00 -0.00000000000E+00 -0.45593999997E+02  0.45594000000E+02  0.51100000000E-03 0. -1.
    9900012    2    1    2    0    0  0.10060560404E+02  0.26109236017E+02  0.15290965906E+02  0.59301941615E+02  0.49999995600E+02 0.  0.
         12    1    1    2    0    0 -0.10060560404E+02 -0.26109236017E+02 -0.15290965906E+02  0.31886058385E+02  0.00000000000E+00 0. -1.
         11    1    3    3    0    0 -0.10722496898E+02  0.19436713581E+02  0.63970526995E+01  0.23101516358E+02  0.51100000000E-03 0. -1.
        -11    1    3    3    0    0  0.21133459910E+02  0.15241671023E+02  0.91613230299E+01  0.27619947560E+02  0.51100000000E-03 0.  1.
        -12    1    3    3    0    0 -0.35040260847E+00 -0.85691485867E+01 -0.26740982381E+00  0.85804776966E+01  0.00000000000E+00 0.  1.
</event>
<event>
 7    1  0.7755875E-012  0.5930195E+02  0.7816164E-02  0.1266605E+00
        -11   -1    0    0    0    0  0.00000000000E+00  0.00000000000E+00  0.45593999997E+02  0.45594000000E+02  0.51100000000E-03 0.  1.
         11   -1    0    0    0    0 -0.00000000000E+00 -0.00000000000E+00 -0.45593999997E+02  0.45594000000E+02  0.51100000000E-03 0. -1.
    9900012    2    1    2    0    0 -0.25153781007E+02 -0.38055326359E+01  0.19223049501E+02  0.59301946470E+02  0.50000004454E+02 0.  0.
         12    1    1    2    0    0  0.25153781007E+02  0.38055326359E+01 -0.19223049501E+02  0.31886053530E+02  0.00000000000E+00 0. -1.
         11    1    3    3    0    0 -0.26263864294E+02 -0.21117808970E+02  0.22385511827E+02  0.40458170539E+02  0.51100000000E-03 0. -1.
        -11    1    3    3    0    0  0.31001808479E+01  0.98303293359E+01  0.41316839234E+00  0.10315871486E+02  0.51100000000E-03 0.  1.
         12    1    3    3    0    0 -0.19900975609E+01  0.74819469980E+01 -0.35756307185E+01  0.85279044447E+01  0.00000000000E+00 0. -1.
</event>
<event>
 7    1  0.7755875E-012  0.5930196E+02  0.7816164E-02  0.1266605E+00
        -11   -1    0    0    0    0  0.00000000000E+00  0.00000000000E+00  0.45593999997E+02  0.45594000000E+02  0.51100000000E-03 0. -1.
         11   -1    0    0    0    0 -0.00000000000E+00 -0.00000000000E+00 -0.45593999997E+02  0.45594000000E+02  0.51100000000E-03 0.  1.
    9900012    2    1    2    0    0 -0.99408350240E+01  0.19379611134E+02 -0.23287981631E+02  0.59301958898E+02  0.50000027120E+02 0.  0.
         12    1    1    2    0    0  0.99408350240E+01 -0.19379611134E+02  0.23287981631E+02  0.31886041102E+02  0.00000000000E+00 0. -1.
         11    1    3    3    0    0 -0.14132228148E+02 -0.51288626336E+01 -0.11780792355E+01  0.15080218012E+02  0.51100000000E-03 0. -1.
        -11    1    3    3    0    0  0.68258711475E+01  0.90136053120E+01 -0.25719783966E+02  0.28095282258E+02  0.51100000000E-03 0.  1.
        -12    1    3    3    0    0 -0.26344780238E+01  0.15494868456E+02  0.36098815704E+01  0.16126458628E+02  0.00000000000E+00 0.  1.
</event>
<event>
 7    1  0.7755875E-012  0.5930195E+02  0.7816164E-02  0.1266605E+00
        -11   -1    0    0    0    0  0.00000000000E+00  0.00000000000E+00  0.45593999997E+02  0.45594000000E+02  0.51100000000E-03 0.  1.
         11   -1    0    0    0    0 -0.00000000000E+00 -0.00000000000E+00 -0.45593999997E+02  0.45594000000E+02  0.51100000000E-03 0. -1.
    9900012    2    1    2    0    0  0.20967687235E+02 -0.95960710999E+01  0.22022524703E+02  0.59301951596E+02  0.50000013802E+02 0.  0.
         12    1    1    2    0    0 -0.20967687235E+02  0.95960710999E+01 -0.22022524703E+02  0.31886048404E+02  0.00000000000E+00 0. -1.
         11    1    3    3    0    0  0.22516414872E+02  0.63851984146E+01 -0.46462176913E+01  0.23860994040E+02  0.51100000000E-03 0. -1.
        -11    1    3    3    0    0 -0.11907364053E+01 -0.12923325693E+02  0.55768873371E+01  0.14125575131E+02  0.51100000000E-03 0.  1.
         12    1    3    3    0    0 -0.35799123129E+00 -0.30579438213E+01  0.21091855057E+02  0.21315382424E+02  0.00000000000E+00 0. -1.
</event>
<event>
 7    1  0.7755875E-012  0.5930198E+02  0.7816164E-02  0.1266605E+00
        -11   -1    0    0    0    0  0.00000000000E+00  0.00000000000E+00  0.45593999997E+02  0.45594000000E+02  0.51100000000E-03 0.  1.
         11   -1    0    0    0    0 -0.00000000000E+00 -0.00000000000E+00 -0.45593999997E+02  0.45594000000E+02  0.51100000000E-03 0. -1.
    9900012    2    1    2    0    0  0.22462497785E+02 -0.19391855762E+02 -0.11666627295E+02  0.59301983173E+02  0.50000071392E+02 0.  0.
         12    1    1    2    0    0 -0.22462497785E+02  0.19391855762E+02  0.11666627295E+02  0.31886016827E+02  0.00000000000E+00 0. -1.
         11    1    3    3    0    0  0.56498756864E+01 -0.14386049342E+02 -0.26597391307E+02  0.30762001488E+02  0.51100000000E-03 0. -1.
        -11    1    3    3    0    0  0.18438301261E+02 -0.11193836401E+00  0.85182415252E+01  0.20311177281E+02  0.51100000000E-03 0.  1.
         12    1    3    3    0    0 -0.16256791626E+01 -0.48938680558E+01  0.64125224863E+01  0.82288044043E+01  0.00000000000E+00 0. -1.
</event>
<event>
 7    1  0.7755875E-012  0.5930196E+02  0.7816164E-02  0.1266605E+00
        -11   -1    0    0    0    0  0.00000000000E+00  0.00000000000E+00  0.45593999997E+02  0.45594000000E+02  0.51100000000E-03 0. -1.
         11   -1    0    0    0    0 -0.00000000000E+00 -0.00000000000E+00 -0.45593999997E+02  0.45594000000E+02  0.51100000000E-03 0.  1.
    9900012    2    1    2    0    0  0.25616863560E+02  0.10335044693E+02 -0.15927427164E+02  0.59301956290E+02  0.50000022363E+02 0.  0.
         12    1    1    2    0    0 -0.25616863560E+02 -0.10335044693E+02  0.15927427164E+02  0.31886043710E+02  0.00000000000E+00 0. -1.
         11    1    3    3    0    0  0.25627534913E+02  0.19064820105E+02 -0.59271331081E+01  0.32486440533E+02  0.51100000000E-03 0.  1.
        -11    1    3    3    0    0 -0.63463780162E+01 -0.86029312153E+01 -0.15224311483E+02  0.18602865365E+02  0.51100000000E-03 0. -1.
         12    1    3    3    0    0  0.63357066632E+01 -0.12684419755E+00  0.52240174269E+01  0.82126503913E+01  0.00000000000E+00 0. -1.
</event>
<event>
 7    1  0.7755875E-012  0.5930199E+02  0.7816164E-02  0.1266605E+00
        -11   -1    0    0    0    0  0.00000000000E+00  0.00000000000E+00  0.45593999997E+02  0.45594000000E+02  0.51100000000E-03 0.  1.
         11   -1    0    0    0    0 -0.00000000000E+00 -0.00000000000E+00 -0.45593999997E+02  0.45594000000E+02  0.51100000000E-03 0. -1.
    9900012    2    1    2    0    0  0.16437412866E+01  0.10439148841E+02  0.30083882596E+02  0.59301988866E+02  0.50000081775E+02 0.  0.
         12    1    1    2    0    0 -0.16437412866E+01 -0.10439148841E+02 -0.30083882596E+02  0.31886011134E+02  0.00000000000E+00 0. -1.
         11    1    3    3    0    0 -0.16917934344E+02  0.79712081215E+01  0.24490179369E+02  0.30814372412E+02  0.51100000000E-03 0. -1.
        -11    1    3    3    0    0  0.19524473356E+02 -0.46760243480E+01  0.67624693626E+01  0.21184929919E+02  0.51100000000E-03 0.  1.
        -12    1    3    3    0    0 -0.96279772564E+00  0.71439650679E+01 -0.11687661350E+01  0.73026865351E+01  0.00000000000E+00 0.  1.
</event>
<event>
 7    1  0.7755875E-012  0.5930193E+02  0.7816164E-02  0.1266605E+00
        -11   -1    0    0    0    0  0.00000000000E+00  0.00000000000E+00  0.45593999997E+02  0.45594000000E+02  0.51100000000E-03 0. -1.
         11   -1    0    0    0    0 -0.00000000000E+00 -0.00000000000E+00 -0.45593999997E+02  0.45594000000E+02  0.51100000000E-03 0.  1.
    9900012    2    1    2    0    0  0.25247544150E+02 -0.34910496084E+01 -0.19159739292E+02  0.59301929018E+02  0.49999972625E+02 0.  0.
         12    1    1    2    0    0 -0.25247544150E+02  0.34910496084E+01  0.19159739292E+02  0.31886070982E+02  0.00000000000E+00 0. -1.
         11    1    3    3    0    0  0.54662739031E+01  0.22348777924E+02 -0.41880508944E+01  0.23385632248E+02  0.51100000000E-03 0. -1.
        -11    1    3    3    0    0  0.39487322662E+01 -0.69978281496E+01 -0.35521541413E+01  0.87852082859E+01  0.51100000000E-03 0.  1.
         12    1    3    3    0    0  0.15832537981E+02 -0.18841999383E+02 -0.11419534256E+02  0.27131088483E+02  0.00000000000E+00 0. -1.
</event>
<event>
 7    1  0.7755875E-012  0.5930194E+02  0.7816164E-02  0.1266605E+00
        -11   -1    0    0    0    0  0.00000000000E+00  0.00000000000E+00  0.45593999997E+02  0.45594000000E+02  0.51100000000E-03 0. -1.
         11   -1    0    0    0    0 -0.00000000000E+00 -0.00000000000E+00 -0.45593999997E+02  0.45594000000E+02  0.51100000000E-03 0.  1.
    9900012    2    1    2    0    0 -0.24997450578E+02 -0.19791455758E+02  0.38254370965E+00  0.59301943547E+02  0.49999999124E+02 0.  0.
         12    1    1    2    0    0  0.24997450578E+02  0.19791455758E+02 -0.38254370965E+00  0.31886056453E+02  0.00000000000E+00 0. -1.
         11    1    3    3    0    0  0.15938587405E+01  0.58212371214E+01  0.11390144590E+02  0.12890406563E+02  0.51100000000E-03 0. -1.
        -11    1    3    3    0    0 -0.31800080702E+02 -0.22863534569E+02 -0.10147277179E+02  0.40459282990E+02  0.51100000000E-03 0.  1.
        -12    1    3    3    0    0  0.52087713841E+01 -0.27491583110E+01 -0.86032370108E+00  0.59522539950E+01  0.00000000000E+00 0.  1.
</event>
<event>
 7    1  0.7755875E-012  0.5930189E+02  0.7816164E-02  0.1266605E+00
        -11   -1    0    0    0    0  0.00000000000E+00  0.00000000000E+00  0.45593999997E+02  0.45594000000E+02  0.51100000000E-03 0. -1.
         11   -1    0    0    0    0 -0.00000000000E+00 -0.00000000000E+00 -0.45593999997E+02  0.45594000000E+02  0.51100000000E-03 0.  1.
    9900012    2    1    2    0    0  0.91896383592E+01 -0.20292430520E+02 -0.22814284746E+02  0.59301893652E+02  0.49999908126E+02 0.  0.
         12    1    1    2    0    0 -0.91896383592E+01  0.20292430520E+02  0.22814284746E+02  0.31886106348E+02  0.00000000000E+00 0. -1.
         11    1    3    3    0    0  0.49111072447E-01 -0.29972528251E+02 -0.53252014605E+01  0.30441955136E+02  0.51100000000E-03 0. -1.
        -11    1    3    3    0    0  0.64059355945E+01  0.13393552030E+02 -0.18903000367E+02  0.24036361413E+02  0.51100000000E-03 0.  1.
        -12    1    3    3    0    0  0.27345916923E+01 -0.37134542990E+01  0.14139170814E+01  0.48235771029E+01  0.00000000000E+00 0.  1.
</event>
<event>
 7    1  0.7755875E-012  0.5930195E+02  0.7816164E-02  0.1266605E+00
        -11   -1    0    0    0    0  0.00000000000E+00  0.00000000000E+00  0.45593999997E+02  0.45594000000E+02  0.51100000000E-03 0. -1.
         11   -1    0    0    0    0 -0.00000000000E+00 -0.00000000000E+00 -0.45593999997E+02  0.45594000000E+02  0.51100000000E-03 0.  1.
    9900012    2    1    2    0    0  0.18677389491E+02  0.25808269080E+02 -0.13448774061E+01  0.59301947778E+02  0.50000006839E+02 0.  0.
         12    1    1    2    0    0 -0.18677389491E+02 -0.25808269080E+02  0.13448774061E+01  0.31886052222E+02  0.00000000000E+00 0. -1.
         11    1    3    3    0    0 -0.89922920481E+01  0.63820952472E+01  0.15508164935E+02  0.19028810681E+02  0.51100000000E-03 0. -1.
        -11    1    3    3    0    0  0.73295784287E+01  0.58853527916E+01 -0.12196137393E+02  0.15398242270E+02  0.51100000000E-03 0.  1.
         12    1    3    3    0    0  0.20340103110E+02  0.13540821041E+02 -0.46569049477E+01  0.24874894828E+02  0.00000000000E+00 0. -1.
</event>
<event>
 7    1  0.7755875E-012  0.5930195E+02  0.7816164E-02  0.1266605E+00
        -11   -1    0    0    0    0  0.00000000000E+00  0.00000000000E+00  0.45593999997E+02  0.45594000000E+02  0.51100000000E-03 0.  1.
         11   -1    0    0    0    0 -0.00000000000E+00 -0.00000000000E+00 -0.45593999997E+02  0.45594000000E+02  0.51100000000E-03 0. -1.
    9900012    2    1    2    0    0 -0.13525046826E+02  0.28798288735E+02  0.21100088725E+01  0.59301945632E+02  0.50000002926E+02 0.  0.
         12    1    1    2    0    0  0.13525046826E+02 -0.28798288735E+02 -0.21100088725E+01  0.31886054368E+02  0.00000000000E+00 0. -1.
         11    1    3    3    0    0 -0.15574424393E+02  0.86151443255E+01 -0.14923577781E+02  0.23227065699E+02  0.51100000000E-03 0. -1.
        -11    1    3    3    0    0 -0.57687049923E+01  0.60251598807E+01  0.18035130866E+02  0.19870743683E+02  0.51100000000E-03 0.  1.
         12    1    3    3    0    0  0.78180825597E+01  0.14157984529E+02 -0.10015442125E+01  0.16204136251E+02  0.00000000000E+00 0. -1.
</event>
<event>
 7    1  0.7755875E-012  0.5930194E+02  0.7816164E-02  0.1266605E+00
        -11   -1    0    0    0    0  0.00000000000E+00  0.00000000000E+00  0.45593999997E+02  0.45594000000E+02  0.51100000000E-03 0.  1.
         11   -1    0    0    0    0 -0.00000000000E+00 -0.00000000000E+00 -0.45593999997E+02  0.45594000000E+02  0.51100000000E-03 0. -1.
    9900012    2    1    2    0    0 -0.23189744805E+02  0.21531948231E+02 -0.39155410981E+01  0.59301944728E+02  0.50000001276E+02 0.  0.
         12    1    1    2    0    0  0.23189744805E+02 -0.21531948231E+02  0.39155410981E+01  0.31886055272E+02  0.00000000000E+00 0. -1.
         11    1    3    3    0    0 -0.23358188755E+01  0.95987843143E+01 -0.17689922424E+02  0.20261442835E+02  0.51100000000E-03 0.  1.
        -11    1    3    3    0    0 -0.50539572853E+01 -0.84776269493E+01  0.77146621363E+01  0.12527116790E+02  0.51100000000E-03 0. -1.
        -12    1    3    3    0    0 -0.15799968644E+02  0.20410790866E+02  0.60597191897E+01  0.26513385102E+02  0.00000000000E+00 0.  1.
</event>
<event>
 7    1  0.7755875E-012  0.5930194E+02  0.7816164E-02  0.1266605E+00
        -11   -1    0    0    0    0  0.00000000000E+00  0.00000000000E+00  0.45593999997E+02  0.45594000000E+02  0.51100000000E-03 0. -1.
         11   -1    0    0    0    0 -0.00000000000E+00 -0.00000000000E+00 -0.45593999997E+02  0.45594000000E+02  0.51100000000E-03 0.  1.
    9900012    2    1    2    0    0  0.10519115032E+02  0.21290501489E+02 -0.21278714493E+02  0.59301938387E+02  0.49999989713E+02 0.  0.
         12    1    1    2    0    0 -0.10519115032E+02 -0.21290501489E+02  0.21278714493E+02  0.31886061613E+02  0.00000000000E+00 0. -1.
         11    1    3    3    0    0  0.28738628410E+01  0.16889751741E+02 -0.24982948085E+02  0.30293076713E+02  0.51100000000E-03 0.  1.
        -11    1    3    3    0    0  0.36410671143E+01 -0.26888656069E+00  0.15382363775E+02  0.15809705414E+02  0.51100000000E-03 0. -1.
         12    1    3    3    0    0  0.40041850771E+01  0.46696363085E+01 -0.11678130183E+02  0.13199156260E+02  0.00000000000E+00 0. -1.
</event>
<event>
 7    1  0.7755875E-012  0.5930194E+02  0.7816164E-02  0.1266605E+00
        -11   -1    0    0    0    0  0.00000000000E+00  0.00000000000E+00  0.45593999997E+02  0.45594000000E+02  0.51100000000E-03 0.  1.
         11   -1    0    0    0    0 -0.00000000000E+00 -0.00000000000E+00 -0.45593999997E+02  0.45594000000E+02  0.51100000000E-03 0. -1.
    9900012    2    1    2    0    0  0.23236417126E+02  0.16378151049E+02  0.14441118576E+02  0.59301940062E+02  0.49999992768E+02 0.  0.
         12    1    1    2    0    0 -0.23236417126E+02 -0.16378151049E+02 -0.14441118576E+02  0.31886059938E+02  0.00000000000E+00 0. -1.
         11    1    3    3    0    0 -0.12028260495E+01  0.80619557816E+01 -0.32485111645E+01  0.87746650407E+01  0.51100000000E-03 0. -1.
        -11    1    3    3    0    0  0.22891494534E+02 -0.11391619560E+02  0.26862123565E+01  0.25710022468E+02  0.51100000000E-03 0.  1.
        -12    1    3    3    0    0  0.15477486408E+01  0.19707814828E+02  0.15003417384E+02  0.24817252554E+02  0.00000000000E+00 0.  1.
</event>
<event>
 7    1  0.7755875E-012  0.5930195E+02  0.7816164E-02  0.1266605E+00
        -11   -1    0    0    0    0  0.00000000000E+00  0.00000000000E+00  0.45593999997E+02  0.45594000000E+02  0.51100000000E-03 0. -1.
         11   -1    0    0    0    0 -0.00000000000E+00 -0.00000000000E+00 -0.45593999997E+02  0.45594000000E+02  0.51100000000E-03 0.  1.
    9900012    2    1    2    0    0 -0.24760539978E+02  0.59029722431E+01 -0.19203928162E+02  0.59301948533E+02  0.50000008217E+02 0.  0.
         12    1    1    2    0    0  0.24760539978E+02 -0.59029722431E+01  0.19203928162E+02  0.31886051467E+02  0.00000000000E+00 0. -1.
         11    1    3    3    0    0  0.46432011768E+01  0.13257162311E+02 -0.11563885665E+02  0.18194370604E+02  0.51100000000E-03 0. -1.
        -11    1    3    3    0    0 -0.20297815740E+02 -0.17414393238E+02 -0.38591472730E+01  0.27021388446E+02  0.51100000000E-03 0.  1.
         12    1    3    3    0    0 -0.91059254149E+01  0.10060203169E+02 -0.37808952234E+01  0.14086189483E+02  0.00000000000E+00 0. -1.
</event>
<event>
 7    1  0.7755875E-012  0.5930198E+02  0.7816164E-02  0.1266605E+00
        -11   -1    0    0    0    0  0.00000000000E+00  0.00000000000E+00  0.45593999997E+02  0.45594000000E+02  0.51100000000E-03 0.  1.
         11   -1    0    0    0    0 -0.00000000000E+00 -0.00000000000E+00 -0.45593999997E+02  0.45594000000E+02  0.51100000000E-03 0. -1.
    9900012    2    1    2    0    0  0.16181363410E+02 -0.27164562244E+02  0.41192621694E+01  0.59301979794E+02  0.50000065229E+02 0.  0.
         12    1    1    2    0    0 -0.16181363410E+02  0.27164562244E+02 -0.41192621694E+01  0.31886020206E+02  0.00000000000E+00 0. -1.
         11    1    3    3    0    0  0.81203731825E+01 -0.32593491927E+02  0.23517755640E+01  0.33672051098E+02  0.51100000000E-03 0.  1.
        -11    1    3    3    0    0 -0.67528596313E+01  0.64498143558E+01  0.47616089418E+01  0.10482086548E+02  0.51100000000E-03 0. -1.
        -12    1    3    3    0    0  0.14813849859E+02 -0.10208846732E+01 -0.29941223363E+01  0.15147842148E+02  0.00000000000E+00 0.  1.
</event>
<event>
 7    1  0.7755875E-012  0.5930194E+02  0.7816164E-02  0.1266605E+00
        -11   -1    0    0    0    0  0.00000000000E+00  0.00000000000E+00  0.45593999997E+02  0.45594000000E+02  0.51100000000E-03 0.  1.
         11   -1    0    0    0    0 -0.00000000000E+00 -0.00000000000E+00 -0.45593999997E+02  0.45594000000E+02  0.51100000000E-03 0. -1.
    9900012    2    1    2    0    0  0.16471502859E+02 -0.17136804058E+02  0.21254181460E+02  0.59301942086E+02  0.49999996459E+02 0.  0.
         12    1    1    2    0    0 -0.16471502859E+02  0.17136804058E+02 -0.21254181460E+02  0.31886057914E+02  0.00000000000E+00 0. -1.
         11    1    3    3    0    0 -0.13731403625E+02  0.47679048184E+01  0.68816492297E+01  0.16082333731E+02  0.51100000000E-03 0. -1.
        -11    1    3    3    0    0  0.22312739405E+02 -0.22447654695E+02  0.70170992751E+01  0.32419056487E+02  0.51100000000E-03 0.  1.
        -12    1    3    3    0    0  0.78901670785E+01  0.54294581787E+00  0.73554329549E+01  0.10800551867E+02  0.00000000000E+00 0.  1.
</event>
<event>
 7    1  0.7755875E-012  0.5930194E+02  0.7816164E-02  0.1266605E+00
        -11   -1    0    0    0    0  0.00000000000E+00  0.00000000000E+00  0.45593999997E+02  0.45594000000E+02  0.51100000000E-03 0. -1.
         11   -1    0    0    0    0 -0.00000000000E+00 -0.00000000000E+00 -0.45593999997E+02  0.45594000000E+02  0.51100000000E-03 0.  1.
    9900012    2    1    2    0    0 -0.26820732742E+02  0.11482742459E+02 -0.12865296139E+02  0.59301938406E+02  0.49999989747E+02 0.  0.
         12    1    1    2    0    0  0.26820732742E+02 -0.11482742459E+02  0.12865296139E+02  0.31886061594E+02  0.00000000000E+00 0. -1.
         11    1    3    3    0    0  0.10633849391E+02  0.44603522842E+01 -0.99911517865E+01  0.15257673796E+02  0.51100000000E-03 0. -1.
        -11    1    3    3    0    0 -0.30583823099E+02  0.34388411461E+01 -0.11124486476E+02  0.32725373388E+02  0.51100000000E-03 0.  1.
         12    1    3    3    0    0 -0.68707590351E+01  0.35835490291E+01  0.82503421227E+01  0.11318891222E+02  0.00000000000E+00 0. -1.
</event>
<event>
 7    1  0.7755875E-012  0.5930195E+02  0.7816164E-02  0.1266605E+00
        -11   -1    0    0    0    0  0.00000000000E+00  0.00000000000E+00  0.45593999997E+02  0.45594000000E+02  0.51100000000E-03 0.  1.
         11   -1    0    0    0    0 -0.00000000000E+00 -0.00000000000E+00 -0.45593999997E+02  0.45594000000E+02  0.51100000000E-03 0. -1.
    9900012    2    1    2    0    0  0.48272176429E+01 -0.28006203621E+02  0.14459286435E+02  0.59301946063E+02  0.50000003712E+02 0.  0.
         12    1    1    2    0    0 -0.48272176429E+01  0.28006203621E+02 -0.14459286435E+02  0.31886053937E+02  0.00000000000E+00 0. -1.
         11    1    3    3    0    0  0.11726639714E+02 -0.12393296337E+02  0.25723126265E+01  0.17254699812E+02  0.51100000000E-03 0. -1.
        -11    1    3    3    0    0 -0.10242007349E+02 -0.62967700742E+01 -0.11509206831E+02  0.16643613492E+02  0.51100000000E-03 0.  1.
        -12    1    3    3    0    0  0.33425852781E+01 -0.93161372102E+01  0.23396180640E+02  0.25403632760E+02  0.00000000000E+00 0.  1.
</event>
<event>
 7    1  0.7755875E-012  0.5930193E+02  0.7816164E-02  0.1266605E+00
        -11   -1    0    0    0    0  0.00000000000E+00  0.00000000000E+00  0.45593999997E+02  0.45594000000E+02  0.51100000000E-03 0.  1.
         11   -1    0    0    0    0 -0.00000000000E+00 -0.00000000000E+00 -0.45593999997E+02  0.45594000000E+02  0.51100000000E-03 0. -1.
    9900012    2    1    2    0    0  0.10189446718E+02 -0.24124890406E+02 -0.18190284081E+02  0.59301927861E+02  0.49999970516E+02 0.  0.
         12    1    1    2    0    0 -0.10189446718E+02  0.24124890406E+02  0.18190284081E+02  0.31886072139E+02  0.00000000000E+00 0. -1.
         11    1    3    3    0    0 -0.80170935077E+01 -0.34486924585E+02 -0.12220242533E+02  0.37456055365E+02  0.51100000000E-03 0. -1.
        -11    1    3    3    0    0  0.81798483234E+01  0.42386146772E+01 -0.18572438516E+01  0.93981449213E+01  0.51100000000E-03 0.  1.
         12    1    3    3    0    0  0.10026691902E+02  0.61234195024E+01 -0.41127976967E+01  0.12447727575E+02  0.00000000000E+00 0. -1.
</event>
<event>
 7    1  0.7755875E-012  0.5930213E+02  0.7816164E-02  0.1266604E+00
        -11   -1    0    0    0    0  0.00000000000E+00  0.00000000000E+00  0.45593999997E+02  0.45594000000E+02  0.51100000000E-03 0.  1.
         11   -1    0    0    0    0 -0.00000000000E+00 -0.00000000000E+00 -0.45593999997E+02  0.45594000000E+02  0.51100000000E-03 0. -1.
    9900012    2    1    2    0    0 -0.75990568336E+01 -0.23626121186E+02  0.20019231191E+02  0.59302127195E+02  0.50000334053E+02 0.  0.
         12    1    1    2    0    0  0.75990568336E+01  0.23626121186E+02 -0.20019231191E+02  0.31885872805E+02  0.00000000000E+00 0. -1.
         11    1    3    3    0    0 -0.18427979663E+02  0.32569459282E+01  0.24090760766E+01  0.18868009408E+02  0.51100000000E-03 0. -1.
        -11    1    3    3    0    0  0.15063084395E+02 -0.10603853694E+02  0.14229380390E+02  0.23276887490E+02  0.51100000000E-03 0.  1.
        -12    1    3    3    0    0 -0.42341615660E+01 -0.16279213420E+02  0.33807747239E+01  0.17157230297E+02  0.00000000000E+00 0.  1.
</event>
<event>
 7    1  0.7755875E-012  0.5930196E+02  0.7816164E-02  0.1266605E+00
        -11   -1    0    0    0    0  0.00000000000E+00  0.00000000000E+00  0.45593999997E+02  0.45594000000E+02  0.51100000000E-03 0.  1.
         11   -1    0    0    0    0 -0.00000000000E+00 -0.00000000000E+00 -0.45593999997E+02  0.45594000000E+02  0.51100000000E-03 0. -1.
    9900012    2    1    2    0    0  0.11412936431E+02  0.29758705787E+02  0.94016364493E+00  0.59301959234E+02  0.50000027732E+02 0.  0.
         12    1    1    2    0    0 -0.11412936431E+02 -0.29758705787E+02 -0.94016364493E+00  0.31886040766E+02  0.00000000000E+00 0. -1.
         11    1    3    3    0    0  0.42975304243E+00 -0.13990448927E+01  0.23712555024E+00  0.14826473205E+01  0.51100000000E-03 0. -1.
        -11    1    3    3    0    0  0.23787795658E+02  0.35945684883E+02  0.52269439669E+01  0.43419723945E+02  0.51100000000E-03 0.  1.
        -12    1    3    3    0    0 -0.12804612270E+02 -0.47879342032E+01 -0.45239058722E+01  0.14399587968E+02  0.00000000000E+00 0.  1.
</event>
<event>
 7    1  0.7755875E-012  0.5930195E+02  0.7816164E-02  0.1266605E+00
        -11   -1    0    0    0    0  0.00000000000E+00  0.00000000000E+00  0.45593999997E+02  0.45594000000E+02  0.51100000000E-03 0.  1.
         11   -1    0    0    0    0 -0.00000000000E+00 -0.00000000000E+00 -0.45593999997E+02  0.45594000000E+02  0.51100000000E-03 0. -1.
    9900012    2    1    2    0    0  0.23595207323E+02  0.17527656570E+02 -0.12359912424E+02  0.59301953074E+02  0.50000016499E+02 0.  0.
         12    1    1    2    0    0 -0.23595207323E+02 -0.17527656570E+02  0.12359912424E+02  0.31886046926E+02  0.00000000000E+00 0. -1.
         11    1    3    3    0    0 -0.15253313666E+01  0.75941892104E-01 -0.22642296139E+02  0.22693743139E+02  0.51100000000E-03 0. -1.
        -11    1    3    3    0    0  0.97730969130E+01  0.13042309467E+02  0.12429051411E+02  0.20496257677E+02  0.51100000000E-03 0.  1.
         12    1    3    3    0    0  0.15347441776E+02  0.44094052102E+01 -0.21466676963E+01  0.16111952259E+02  0.00000000000E+00 0. -1.
</event>
<event>
 7    1  0.7755875E-012  0.5930197E+02  0.7816164E-02  0.1266605E+00
        -11   -1    0    0    0    0  0.00000000000E+00  0.00000000000E+00  0.45593999997E+02  0.45594000000E+02  0.51100000000E-03 0.  1.
         11   -1    0    0    0    0 -0.00000000000E+00 -0.00000000000E+00 -0.45593999997E+02  0.45594000000E+02  0.51100000000E-03 0. -1.
    9900012    2    1    2    0    0 -0.36592141778E+01 -0.16045355351E+00  0.31674966416E+02  0.59301967145E+02  0.50000042161E+02 0.  0.
         12    1    1    2    0    0  0.36592141778E+01  0.16045355351E+00 -0.31674966416E+02  0.31886032855E+02  0.00000000000E+00 0. -1.
         11    1    3    3    0    0  0.30861697237E+01 -0.15777249446E+02 -0.55730805885E+01  0.17014854427E+02  0.51100000000E-03 0. -1.
        -11    1    3    3    0    0 -0.46017901330E+01  0.75360771397E+01  0.29832989314E+02  0.31112315612E+02  0.51100000000E-03 0.  1.
        -12    1    3    3    0    0 -0.21435937685E+01  0.80807187532E+01  0.74150576909E+01  0.11174797107E+02  0.00000000000E+00 0.  1.
</event>
<event>
 7    1  0.7755875E-012  0.5930194E+02  0.7816164E-02  0.1266605E+00
        -11   -1    0    0    0    0  0.00000000000E+00  0.00000000000E+00  0.45593999997E+02  0.45594000000E+02  0.51100000000E-03 0. -1.
         11   -1    0    0    0    0 -0.00000000000E+00 -0.00000000000E+00 -0.45593999997E+02  0.45594000000E+02  0.51100000000E-03 0.  1.
    9900012    2    1    2    0    0 -0.10831841480E+02  0.71133858284E+01 -0.29134029205E+02  0.59301941832E+02  0.49999995996E+02 0.  0.
         12    1    1    2    0    0  0.10831841480E+02 -0.71133858284E+01  0.29134029205E+02  0.31886058168E+02  0.00000000000E+00 0. -1.
         11    1    3    3    0    0  0.13911508230E+02 -0.91685858259E+01 -0.11679216575E+02  0.20346919358E+02  0.51100000000E-03 0. -1.
        -11    1    3    3    0    0 -0.12237421403E+02  0.72273479638E+01 -0.18674118086E+02  0.23467247979E+02  0.51100000000E-03 0.  1.
         12    1    3    3    0    0 -0.12505928307E+02  0.90546236905E+01  0.12193054559E+01  0.15487774495E+02  0.00000000000E+00 0. -1.
</event>
<event>
 7    1  0.7755875E-012  0.5930195E+02  0.7816164E-02  0.1266605E+00
        -11   -1    0    0    0    0  0.00000000000E+00  0.00000000000E+00  0.45593999997E+02  0.45594000000E+02  0.51100000000E-03 0.  1.
         11   -1    0    0    0    0 -0.00000000000E+00 -0.00000000000E+00 -0.45593999997E+02  0.45594000000E+02  0.51100000000E-03 0. -1.
    9900012    2    1    2    0    0 -0.71226221151E+01 -0.16078317709E+02  0.26598419922E+02  0.59301953076E+02  0.50000016501E+02 0.  0.
         12    1    1    2    0    0  0.71226221151E+01  0.16078317709E+02 -0.26598419922E+02  0.31886046924E+02  0.00000000000E+00 0. -1.
         11    1    3    3    0    0 -0.82750533554E+01 -0.12804311747E+02 -0.72709708943E+01  0.16890646090E+02  0.51100000000E-03 0. -1.
        -11    1    3    3    0    0 -0.97696934945E+01 -0.37276989779E+01  0.28243411416E+02  0.30116987554E+02  0.51100000000E-03 0.  1.
         12    1    3    3    0    0  0.10922124735E+02  0.45369301576E+00  0.56259794001E+01  0.12294319432E+02  0.00000000000E+00 0. -1.
</event>
<event>
 7    1  0.7755875E-012  0.5930189E+02  0.7816164E-02  0.1266605E+00
        -11   -1    0    0    0    0  0.00000000000E+00  0.00000000000E+00  0.45593999997E+02  0.45594000000E+02  0.51100000000E-03 0. -1.
         11   -1    0    0    0    0 -0.00000000000E+00 -0.00000000000E+00 -0.45593999997E+02  0.45594000000E+02  0.51100000000E-03 0.  1.
    9900012    2    1    2    0    0 -0.28364835843E+02  0.90223402725E+01  0.11434912360E+02  0.59301893981E+02  0.49999908726E+02 0.  0.
         12    1    1    2    0    0  0.28364835843E+02 -0.90223402725E+01 -0.11434912360E+02  0.31886106019E+02  0.00000000000E+00 0. -1.
         11    1    3    3    0    0  0.17362778850E+01  0.71719365597E+01  0.13261232356E+02  0.15176021177E+02  0.51100000000E-03 0. -1.
        -11    1    3    3    0    0 -0.28854100215E+02 -0.84250327275E+01  0.66045804294E+01  0.30775976972E+02  0.51100000000E-03 0.  1.
         12    1    3    3    0    0 -0.12470135133E+01  0.10275436440E+02 -0.84309004250E+01  0.13349895832E+02  0.00000000000E+00 0. -1.
</event>
<event>
 7    1  0.7755875E-012  0.5930194E+02  0.7816164E-02  0.1266605E+00
        -11   -1    0    0    0    0  0.00000000000E+00  0.00000000000E+00  0.45593999997E+02  0.45594000000E+02  0.51100000000E-03 0.  1.
         11   -1    0    0    0    0 -0.00000000000E+00 -0.00000000000E+00 -0.45593999997E+02  0.45594000000E+02  0.51100000000E-03 0. -1.
    9900012    2    1    2    0    0 -0.27595003031E+02 -0.15823418485E+02 -0.22036483113E+01  0.59301939868E+02  0.49999992414E+02 0.  0.
         12    1    1    2    0    0  0.27595003031E+02  0.15823418485E+02  0.22036483113E+01  0.31886060132E+02  0.00000000000E+00 0. -1.
         11    1    3    3    0    0 -0.14816439194E+02 -0.27059690134E+02 -0.15385772425E+02  0.34474275829E+02  0.51100000000E-03 0. -1.
        -11    1    3    3    0    0 -0.65664091472E+01 -0.28254707114E+00  0.88877266699E+01  0.11053924532E+02  0.51100000000E-03 0.  1.
         12    1    3    3    0    0 -0.62121546895E+01  0.11518818720E+02  0.42943974441E+01  0.13773739507E+02  0.00000000000E+00 0. -1.
</event>
<event>
 7    1  0.7755875E-012  0.5930195E+02  0.7816164E-02  0.1266605E+00
        -11   -1    0    0    0    0  0.00000000000E+00  0.00000000000E+00  0.45593999997E+02  0.45594000000E+02  0.51100000000E-03 0.  1.
         11   -1    0    0    0    0 -0.00000000000E+00 -0.00000000000E+00 -0.45593999997E+02  0.45594000000E+02  0.51100000000E-03 0. -1.
    9900012    2    1    2    0    0  0.11849388596E+02 -0.13061312985E+02  0.26565287975E+02  0.59301946118E+02  0.50000003812E+02 0.  0.
         12    1    1    2    0    0 -0.11849388596E+02  0.13061312985E+02 -0.26565287975E+02  0.31886053882E+02  0.00000000000E+00 0. -1.
         11    1    3    3    0    0  0.12596814638E+02  0.12984112041E+02  0.20480063195E+02  0.27325810020E+02  0.51100000000E-03 0. -1.
        -11    1    3    3    0    0 -0.30855300650E+01 -0.12978048001E+02  0.11526039111E+02  0.17629515125E+02  0.51100000000E-03 0.  1.
         12    1    3    3    0    0  0.23381040232E+01 -0.13067377025E+02 -0.54408143313E+01  0.14346620972E+02  0.00000000000E+00 0. -1.
</event>
<event>
 7    1  0.7755875E-012  0.5930198E+02  0.7816164E-02  0.1266605E+00
        -11   -1    0    0    0    0  0.00000000000E+00  0.00000000000E+00  0.45593999997E+02  0.45594000000E+02  0.51100000000E-03 0.  1.
         11   -1    0    0    0    0 -0.00000000000E+00 -0.00000000000E+00 -0.45593999997E+02  0.45594000000E+02  0.51100000000E-03 0. -1.
    9900012    2    1    2    0    0 -0.19464170135E+02 -0.24129295360E+02 -0.74593010106E+01  0.59301984489E+02  0.50000073791E+02 0.  0.
         12    1    1    2    0    0  0.19464170135E+02  0.24129295360E+02  0.74593010106E+01  0.31886015511E+02  0.00000000000E+00 0. -1.
         11    1    3    3    0    0  0.49060222138E+01 -0.99057074470E+01 -0.40305776825E+01  0.11765953030E+02  0.51100000000E-03 0. -1.
        -11    1    3    3    0    0 -0.23111236482E+02 -0.26884123230E+01  0.13584512867E+02  0.26942453538E+02  0.51100000000E-03 0.  1.
         12    1    3    3    0    0 -0.12589558672E+01 -0.11535175590E+02 -0.17013236195E+02  0.20593577921E+02  0.00000000000E+00 0. -1.
</event>
<event>
 7    1  0.7755875E-012  0.5930201E+02  0.7816164E-02  0.1266605E+00
        -11   -1    0    0    0    0  0.00000000000E+00  0.00000000000E+00  0.45593999997E+02  0.45594000000E+02  0.51100000000E-03 0. -1.
         11   -1    0    0    0    0 -0.00000000000E+00 -0.00000000000E+00 -0.45593999997E+02  0.45594000000E+02  0.51100000000E-03 0.  1.
    9900012    2    1    2    0    0 -0.16467890912E+02  0.24731549824E+02 -0.11570449924E+02  0.59302010926E+02  0.50000122006E+02 0.  0.
         12    1    1    2    0    0  0.16467890912E+02 -0.24731549824E+02  0.11570449924E+02  0.31885989074E+02  0.00000000000E+00 0. -1.
         11    1    3    3    0    0 -0.20000719096E+02  0.10682079070E+02 -0.12085512629E+02  0.25694263823E+02  0.51100000000E-03 0.  1.
        -11    1    3    3    0    0  0.13608478310E+02  0.18116032801E+02  0.14364542784E+01  0.22703407839E+02  0.51100000000E-03 0. -1.
        -12    1    3    3    0    0 -0.10075650127E+02 -0.40665620472E+01 -0.92139157343E+00  0.10904339264E+02  0.00000000000E+00 0.  1.
</event>
<event>
 7    1  0.7755875E-012  0.5930195E+02  0.7816164E-02  0.1266605E+00
        -11   -1    0    0    0    0  0.00000000000E+00  0.00000000000E+00  0.45593999997E+02  0.45594000000E+02  0.51100000000E-03 0.  1.
         11   -1    0    0    0    0 -0.00000000000E+00 -0.00000000000E+00 -0.45593999997E+02  0.45594000000E+02  0.51100000000E-03 0. -1.
    9900012    2    1    2    0    0 -0.24341117238E+02  0.11799655443E+02  0.16881901312E+02  0.59301945856E+02  0.50000003335E+02 0.  0.
         12    1    1    2    0    0  0.24341117238E+02 -0.11799655443E+02 -0.16881901312E+02  0.31886054144E+02  0.00000000000E+00 0. -1.
         11    1    3    3    0    0 -0.60398183254E+01 -0.11509559837E+02 -0.20044384148E+01  0.13151697482E+02  0.51100000000E-03 0. -1.
        -11    1    3    3    0    0 -0.74314497157E+01  0.28370731752E+02  0.17313416025E+02  0.34056999864E+02  0.51100000000E-03 0.  1.
        -12    1    3    3    0    0 -0.10869849196E+02 -0.50615164716E+01  0.15729237013E+01  0.12093248510E+02  0.00000000000E+00 0.  1.
</event>
<event>
 7    1  0.7755875E-012  0.5930194E+02  0.7816164E-02  0.1266605E+00
        -11   -1    0    0    0    0  0.00000000000E+00  0.00000000000E+00  0.45593999997E+02  0.45594000000E+02  0.51100000000E-03 0.  1.
         11   -1    0    0    0    0 -0.00000000000E+00 -0.00000000000E+00 -0.45593999997E+02  0.45594000000E+02  0.51100000000E-03 0. -1.
    9900012    2    1    2    0    0 -0.27437292643E+02 -0.11734774248E+02  0.11234366400E+02  0.59301938113E+02  0.49999989213E+02 0.  0.
         12    1    1    2    0    0  0.27437292643E+02  0.11734774248E+02 -0.11234366400E+02  0.31886061887E+02  0.00000000000E+00 0. -1.
         11    1    3    3    0    0  0.22302449700E+00 -0.11198611292E+02 -0.12872116797E+02  0.17063118879E+02  0.51100000000E-03 0. -1.
        -11    1    3    3    0    0 -0.22966164260E+02 -0.50182372317E+01  0.79310473846E+01  0.24809855272E+02  0.51100000000E-03 0.  1.
         12    1    3    3    0    0 -0.46941528802E+01  0.44820742753E+01  0.16175435812E+02  0.17428963962E+02  0.00000000000E+00 0. -1.
</event>
<event>
 7    1  0.7755875E-012  0.5930193E+02  0.7816164E-02  0.1266605E+00
        -11   -1    0    0    0    0  0.00000000000E+00  0.00000000000E+00  0.45593999997E+02  0.45594000000E+02  0.51100000000E-03 0.  1.
         11   -1    0    0    0    0 -0.00000000000E+00 -0.00000000000E+00 -0.45593999997E+02  0.45594000000E+02  0.51100000000E-03 0. -1.
    9900012    2    1    2    0    0  0.10098679206E+01 -0.28461845570E+02  0.14339639270E+02  0.59301925597E+02  0.49999966386E+02 0.  0.
         12    1    1    2    0    0 -0.10098679206E+01  0.28461845570E+02 -0.14339639270E+02  0.31886074403E+02  0.00000000000E+00 0. -1.
         11    1    3    3    0    0 -0.66424899180E+01  0.43759545893E+01  0.27883935283E+01  0.84289257683E+01  0.51100000000E-03 0. -1.
        -11    1    3    3    0    0  0.91237553760E+01 -0.28445780041E+02  0.23531750071E+02  0.38028260228E+02  0.51100000000E-03 0.  1.
        -12    1    3    3    0    0 -0.14713975375E+01 -0.43920201177E+01 -0.11980504329E+02  0.12844739600E+02  0.00000000000E+00 0.  1.
</event>
<event>
 7    1  0.7755875E-012  0.5930194E+02  0.7816164E-02  0.1266605E+00
        -11   -1    0    0    0    0  0.00000000000E+00  0.00000000000E+00  0.45593999997E+02  0.45594000000E+02  0.51100000000E-03 0.  1.
         11   -1    0    0    0    0 -0.00000000000E+00 -0.00000000000E+00 -0.45593999997E+02  0.45594000000E+02  0.51100000000E-03 0. -1.
    9900012    2    1    2    0    0 -0.24994693104E+02  0.12608124638E+02  0.15265043568E+02  0.59301936502E+02  0.49999986275E+02 0.  0.
         12    1    1    2    0    0  0.24994693104E+02 -0.12608124638E+02 -0.15265043568E+02  0.31886063498E+02  0.00000000000E+00 0. -1.
         11    1    3    3    0    0 -0.27699029988E+02  0.10729774990E+02  0.20459777438E+02  0.36068917737E+02  0.51100000000E-03 0. -1.
        -11    1    3    3    0    0 -0.73156130453E+01 -0.44567398731E+01 -0.72243368558E+01  0.11205880947E+02  0.51100000000E-03 0.  1.
         12    1    3    3    0    0  0.10019949929E+02  0.63350895205E+01  0.20296029862E+01  0.12027137818E+02  0.00000000000E+00 0. -1.
</event>
<event>
 7    1  0.7755875E-012  0.5930195E+02  0.7816164E-02  0.1266605E+00
        -11   -1    0    0    0    0  0.00000000000E+00  0.00000000000E+00  0.45593999997E+02  0.45594000000E+02  0.51100000000E-03 0. -1.
         11   -1    0    0    0    0 -0.00000000000E+00 -0.00000000000E+00 -0.45593999997E+02  0.45594000000E+02  0.51100000000E-03 0.  1.
    9900012    2    1    2    0    0  0.24915461898E+02  0.10506914435E+01 -0.19870473400E+02  0.59301954350E+02  0.50000018825E+02 0.  0.
         12    1    1    2    0    0 -0.24915461898E+02 -0.10506914435E+01  0.19870473400E+02  0.31886045650E+02  0.00000000000E+00 0. -1.
         11    1    3    3    0    0  0.30472788715E+02  0.14761145097E+02 -0.51094282193E+01  0.34243079792E+02  0.51100000000E-03 0. -1.
        -11    1    3    3    0    0  0.40893834955E+01 -0.79774107158E+01 -0.75472820139E+01  0.11718515485E+02  0.51100000000E-03 0.  1.
         12    1    3    3    0    0 -0.96467103127E+01 -0.57330429379E+01 -0.72137631665E+01  0.13340359073E+02  0.00000000000E+00 0. -1.
</event>
<event>
 7    1  0.7755875E-012  0.5930197E+02  0.7816164E-02  0.1266605E+00
        -11   -1    0    0    0    0  0.00000000000E+00  0.00000000000E+00  0.45593999997E+02  0.45594000000E+02  0.51100000000E-03 0. -1.
         11   -1    0    0    0    0 -0.00000000000E+00 -0.00000000000E+00 -0.45593999997E+02  0.45594000000E+02  0.51100000000E-03 0.  1.
    9900012    2    1    2    0    0  0.56815305845E+01 -0.31375576268E+02 -0.11134110459E+00  0.59301969003E+02  0.50000045549E+02 0.  0.
         12    1    1    2    0    0 -0.56815305845E+01  0.31375576268E+02  0.11134110459E+00  0.31886030997E+02  0.00000000000E+00 0. -1.
         11    1    3    3    0    0  0.10522514083E+02 -0.38874581127E+01 -0.57222652843E+01  0.12592853269E+02  0.51100000000E-03 0.  1.
        -11    1    3    3    0    0 -0.18766493427E+02 -0.10308567319E+02  0.10818926769E+02  0.23989518804E+02  0.51100000000E-03 0. -1.
         12    1    3    3    0    0  0.13925509929E+02 -0.17179550836E+02 -0.52080025895E+01  0.22719596930E+02  0.00000000000E+00 0. -1.
</event>
<event>
 7    1  0.7755875E-012  0.5930194E+02  0.7816164E-02  0.1266605E+00
        -11   -1    0    0    0    0  0.00000000000E+00  0.00000000000E+00  0.45593999997E+02  0.45594000000E+02  0.51100000000E-03 0.  1.
         11   -1    0    0    0    0 -0.00000000000E+00 -0.00000000000E+00 -0.45593999997E+02  0.45594000000E+02  0.51100000000E-03 0. -1.
    9900012    2    1    2    0    0 -0.18267092515E+02  0.18804165019E+02 -0.18150414876E+02  0.59301939548E+02  0.49999991829E+02 0.  0.
         12    1    1    2    0    0  0.18267092515E+02 -0.18804165019E+02  0.18150414876E+02  0.31886060452E+02  0.00000000000E+00 0. -1.
         11    1    3    3    0    0  0.11996909677E+02  0.54316810781E+01 -0.17995267628E+02  0.22299297262E+02  0.51100000000E-03 0. -1.
        -11    1    3    3    0    0 -0.36970017315E+01  0.71408733682E+01 -0.47368528142E+01  0.93326131982E+01  0.51100000000E-03 0.  1.
         12    1    3    3    0    0 -0.26567000460E+02  0.62316105730E+01  0.45817055661E+01  0.27670029087E+02  0.00000000000E+00 0. -1.
</event>
<event>
 7    1  0.7755875E-012  0.5930175E+02  0.7816164E-02  0.1266605E+00
        -11   -1    0    0    0    0  0.00000000000E+00  0.00000000000E+00  0.45593999997E+02  0.45594000000E+02  0.51100000000E-03 0.  1.
         11   -1    0    0    0    0 -0.00000000000E+00 -0.00000000000E+00 -0.45593999997E+02  0.45594000000E+02  0.51100000000E-03 0. -1.
    9900012    2    1    2    0    0  0.34283617338E+01 -0.61800139477E+01  0.31093198776E+02  0.59301745177E+02  0.49999637342E+02 0.  0.
         12    1    1    2    0    0 -0.34283617338E+01  0.61800139477E+01 -0.31093198776E+02  0.31886254823E+02  0.00000000000E+00 0. -1.
         11    1    3    3    0    0  0.20556719970E+02  0.10790031275E+02  0.13272830233E+02  0.26742691217E+02  0.51100000000E-03 0. -1.
        -11    1    3    3    0    0 -0.14578620374E+02 -0.71678787305E+01  0.68570787356E+01  0.17633326021E+02  0.51100000000E-03 0.  1.
         12    1    3    3    0    0 -0.25497378620E+01 -0.98021664926E+01  0.10963289807E+02  0.14925727939E+02  0.00000000000E+00 0. -1.
</event>
<event>
 7    1  0.7755875E-012  0.5930195E+02  0.7816164E-02  0.1266605E+00
        -11   -1    0    0    0    0  0.00000000000E+00  0.00000000000E+00  0.45593999997E+02  0.45594000000E+02  0.51100000000E-03 0.  1.
         11   -1    0    0    0    0 -0.00000000000E+00 -0.00000000000E+00 -0.45593999997E+02  0.45594000000E+02  0.51100000000E-03 0. -1.
    9900012    2    1    2    0    0  0.43591503801E+01  0.12539348543E+02  0.28991082338E+02  0.59301948049E+02  0.50000007334E+02 0.  0.
         12    1    1    2    0    0 -0.43591503801E+01 -0.12539348543E+02 -0.28991082338E+02  0.31886051951E+02  0.00000000000E+00 0. -1.
         11    1    3    3    0    0  0.42573247369E+00 -0.37628546552E+01  0.10696437953E+01  0.39350300387E+01  0.51100000000E-03 0. -1.
        -11    1    3    3    0    0  0.10390143858E+02  0.29595774092E+02  0.11841971634E+02  0.33527559201E+02  0.51100000000E-03 0.  1.
        -12    1    3    3    0    0 -0.64567259519E+01 -0.13293570895E+02  0.16079466908E+02  0.21839358809E+02  0.00000000000E+00 0.  1.
</event>
<event>
 7    1  0.7755875E-012  0.5930195E+02  0.7816164E-02  0.1266605E+00
        -11   -1    0    0    0    0  0.00000000000E+00  0.00000000000E+00  0.45593999997E+02  0.45594000000E+02  0.51100000000E-03 0. -1.
         11   -1    0    0    0    0 -0.00000000000E+00 -0.00000000000E+00 -0.45593999997E+02  0.45594000000E+02  0.51100000000E-03 0.  1.
    9900012    2    1    2    0    0 -0.12685686451E+01  0.72618050602E+00 -0.31852530966E+02  0.59301947665E+02  0.50000006634E+02 0.  0.
         12    1    1    2    0    0  0.12685686451E+01 -0.72618050602E+00  0.31852530966E+02  0.31886052335E+02  0.00000000000E+00 0. -1.
         11    1    3    3    0    0 -0.20842190011E+01  0.89489783203E+01  0.11346468016E+02  0.14600360219E+02  0.51100000000E-03 0. -1.
        -11    1    3    3    0    0  0.26198516228E+01 -0.54302841688E+01 -0.38357615788E+02  0.38828575790E+02  0.51100000000E-03 0.  1.
         12    1    3    3    0    0 -0.18042012667E+01 -0.27925136455E+01 -0.48413831951E+01  0.58730116561E+01  0.00000000000E+00 0. -1.
</event>
<event>
 7    1  0.7755875E-012  0.5930191E+02  0.7816164E-02  0.1266605E+00
        -11   -1    0    0    0    0  0.00000000000E+00  0.00000000000E+00  0.45593999997E+02  0.45594000000E+02  0.51100000000E-03 0. -1.
         11   -1    0    0    0    0 -0.00000000000E+00 -0.00000000000E+00 -0.45593999997E+02  0.45594000000E+02  0.51100000000E-03 0.  1.
    9900012    2    1    2    0    0 -0.20588068341E+01  0.27701974763E+01 -0.31698736891E+02  0.59301912123E+02  0.49999941814E+02 0.  0.
         12    1    1    2    0    0  0.20588068341E+01 -0.27701974763E+01  0.31698736891E+02  0.31886087877E+02  0.00000000000E+00 0. -1.
         11    1    3    3    0    0  0.13164328210E+02 -0.59447246559E+01 -0.18201490055E+02  0.23236469804E+02  0.51100000000E-03 0.  1.
        -11    1    3    3    0    0 -0.15386954689E+02  0.10054164403E+02 -0.21307272249E+02  0.28139730762E+02  0.51100000000E-03 0. -1.
         12    1    3    3    0    0  0.16381964443E+00 -0.13392422706E+01  0.78100254131E+01  0.79257115572E+01  0.00000000000E+00 0. -1.
</event>
<event>
 7    1  0.7755875E-012  0.5930194E+02  0.7816164E-02  0.1266605E+00
        -11   -1    0    0    0    0  0.00000000000E+00  0.00000000000E+00  0.45593999997E+02  0.45594000000E+02  0.51100000000E-03 0.  1.
         11   -1    0    0    0    0 -0.00000000000E+00 -0.00000000000E+00 -0.45593999997E+02  0.45594000000E+02  0.51100000000E-03 0. -1.
    9900012    2    1    2    0    0 -0.14253401212E+02  0.40301157165E+00  0.28520144968E+02  0.59301944530E+02  0.50000000916E+02 0.  0.
         12    1    1    2    0    0  0.14253401212E+02 -0.40301157165E+00 -0.28520144968E+02  0.31886055470E+02  0.00000000000E+00 0. -1.
         11    1    3    3    0    0  0.28730571911E+01  0.31045522212E+00  0.10643370874E+00  0.28917414241E+01  0.51100000000E-03 0. -1.
        -11    1    3    3    0    0 -0.31865788434E+02 -0.37406463868E+01  0.12641358148E+02  0.34485139466E+02  0.51100000000E-03 0.  1.
        -12    1    3    3    0    0  0.14739330030E+02  0.38332027363E+01  0.15772353111E+02  0.21925063640E+02  0.00000000000E+00 0.  1.
</event>
<event>
 7    1  0.7755875E-012  0.5930197E+02  0.7816164E-02  0.1266605E+00
        -11   -1    0    0    0    0  0.00000000000E+00  0.00000000000E+00  0.45593999997E+02  0.45594000000E+02  0.51100000000E-03 0. -1.
         11   -1    0    0    0    0 -0.00000000000E+00 -0.00000000000E+00 -0.45593999997E+02  0.45594000000E+02  0.51100000000E-03 0.  1.
    9900012    2    1    2    0    0  0.12979605889E+01  0.31189745249E+02 -0.64987780831E+01  0.59301968153E+02  0.50000043998E+02 0.  0.
         12    1    1    2    0    0 -0.12979605889E+01 -0.31189745249E+02  0.64987780831E+01  0.31886031847E+02  0.00000000000E+00 0. -1.
         11    1    3    3    0    0  0.17434057173E+02 -0.24811070325E+01  0.15861310060E+00  0.17610434407E+02  0.51100000000E-03 0. -1.
        -11    1    3    3    0    0 -0.11643853530E+02  0.26459910681E+02  0.27220102080E+01  0.29036451886E+02  0.51100000000E-03 0.  1.
         12    1    3    3    0    0 -0.44922430535E+01  0.72109416007E+01 -0.93794013917E+01  0.12655081860E+02  0.00000000000E+00 0. -1.
</event>
<event>
 7    1  0.7755875E-012  0.5930195E+02  0.7816164E-02  0.1266605E+00
        -11   -1    0    0    0    0  0.00000000000E+00  0.00000000000E+00  0.45593999997E+02  0.45594000000E+02  0.51100000000E-03 0. -1.
         11   -1    0    0    0    0 -0.00000000000E+00 -0.00000000000E+00 -0.45593999997E+02  0.45594000000E+02  0.51100000000E-03 0.  1.
    9900012    2    1    2    0    0  0.22910038712E+01 -0.16342956354E+02 -0.27283314489E+02  0.59301950219E+02  0.50000011292E+02 0.  0.
         12    1    1    2    0    0 -0.22910038712E+01  0.16342956354E+02  0.27283314489E+02  0.31886049781E+02  0.00000000000E+00 0. -1.
         11    1    3    3    0    0  0.67653669328E+01  0.26092343009E+01 -0.52713942494E+01  0.89647025029E+01  0.51100000000E-03 0. -1.
        -11    1    3    3    0    0 -0.17897329538E+02  0.35576001476E+01 -0.13781908839E+02  0.22867267763E+02  0.51100000000E-03 0.  1.
        -12    1    3    3    0    0  0.13422966477E+02 -0.22509790802E+02 -0.82300114001E+01  0.27469979954E+02  0.00000000000E+00 0.  1.
</event>
<event>
 7    1  0.7755875E-012  0.5930195E+02  0.7816164E-02  0.1266605E+00
        -11   -1    0    0    0    0  0.00000000000E+00  0.00000000000E+00  0.45593999997E+02  0.45594000000E+02  0.51100000000E-03 0.  1.
         11   -1    0    0    0    0 -0.00000000000E+00 -0.00000000000E+00 -0.45593999997E+02  0.45594000000E+02  0.51100000000E-03 0. -1.
    9900012    2    1    2    0    0  0.24726644622E+02 -0.18302101720E+02  0.83872668347E+01  0.59301950910E+02  0.50000012551E+02 0.  0.
         12    1    1    2    0    0 -0.24726644622E+02  0.18302101720E+02 -0.83872668347E+01  0.31886049090E+02  0.00000000000E+00 0. -1.
         11    1    3    3    0    0 -0.12509227108E+01  0.28751643501E+01 -0.41106326518E+01  0.51699786003E+01  0.51100000000E-03 0. -1.
        -11    1    3    3    0    0  0.36557362307E+02 -0.20759971040E+02  0.91235231942E+01  0.43019249322E+02  0.51100000000E-03 0.  1.
        -12    1    3    3    0    0 -0.10579794975E+02 -0.41729503005E+00  0.33743762922E+01  0.11112722988E+02  0.00000000000E+00 0.  1.
</event>
<event>
 7    1  0.7755875E-012  0.5930195E+02  0.7816164E-02  0.1266605E+00
        -11   -1    0    0    0    0  0.00000000000E+00  0.00000000000E+00  0.45593999997E+02  0.45594000000E+02  0.51100000000E-03 0. -1.
         11   -1    0    0    0    0 -0.00000000000E+00 -0.00000000000E+00 -0.45593999997E+02  0.45594000000E+02  0.51100000000E-03 0.  1.
    9900012    2    1    2    0    0 -0.25437820715E+02  0.68413421272E+01 -0.17967573865E+02  0.59301946694E+02  0.50000004863E+02 0.  0.
         12    1    1    2    0    0  0.25437820715E+02 -0.68413421272E+01  0.17967573865E+02  0.31886053306E+02  0.00000000000E+00 0. -1.
         11    1    3    3    0    0 -0.71675546547E+00  0.12899503582E+02 -0.21963840582E+02  0.25481782207E+02  0.51100000000E-03 0. -1.
        -11    1    3    3    0    0 -0.11654582391E+02 -0.47533262721E+01 -0.88997336771E+01  0.15415208761E+02  0.51100000000E-03 0.  1.
         12    1    3    3    0    0 -0.13066482859E+02 -0.13048351832E+01  0.12896000393E+02  0.18404955727E+02  0.00000000000E+00 0. -1.
</event>
<event>
 7    1  0.7755875E-012  0.5930197E+02  0.7816164E-02  0.1266605E+00
        -11   -1    0    0    0    0  0.00000000000E+00  0.00000000000E+00  0.45593999997E+02  0.45594000000E+02  0.51100000000E-03 0.  1.
         11   -1    0    0    0    0 -0.00000000000E+00 -0.00000000000E+00 -0.45593999997E+02  0.45594000000E+02  0.51100000000E-03 0. -1.
    9900012    2    1    2    0    0 -0.23338689188E+02 -0.54712079510E+01  0.21025952550E+02  0.59301965281E+02  0.50000038762E+02 0.  0.
         12    1    1    2    0    0  0.23338689188E+02  0.54712079510E+01 -0.21025952550E+02  0.31886034719E+02  0.00000000000E+00 0. -1.
         11    1    3    3    0    0 -0.22981718132E+02  0.16998575207E+02  0.17520151361E+02  0.33527102937E+02  0.51100000000E-03 0. -1.
        -11    1    3    3    0    0 -0.48910166784E+01 -0.51342549245E+01  0.33809135526E+01  0.78557745951E+01  0.51100000000E-03 0.  1.
         12    1    3    3    0    0  0.45340456220E+01 -0.17335528234E+02  0.12488763554E+00  0.17919087749E+02  0.00000000000E+00 0. -1.
</event>
<event>
 7    1  0.7755875E-012  0.5930195E+02  0.7816164E-02  0.1266605E+00
        -11   -1    0    0    0    0  0.00000000000E+00  0.00000000000E+00  0.45593999997E+02  0.45594000000E+02  0.51100000000E-03 0.  1.
         11   -1    0    0    0    0 -0.00000000000E+00 -0.00000000000E+00 -0.45593999997E+02  0.45594000000E+02  0.51100000000E-03 0. -1.
    9900012    2    1    2    0    0  0.14238043577E+02  0.11109533716E+02  0.26278825994E+02  0.59301947879E+02  0.50000007024E+02 0.  0.
         12    1    1    2    0    0 -0.14238043577E+02 -0.11109533716E+02 -0.26278825994E+02  0.31886052121E+02  0.00000000000E+00 0. -1.
         11    1    3    3    0    0 -0.11600496417E+02  0.11274314270E+01 -0.39154368658E+01  0.12295253753E+02  0.51100000000E-03 0. -1.
        -11    1    3    3    0    0  0.17658366281E+02  0.79351719343E+01  0.43780439029E+01  0.19848227176E+02  0.51100000000E-03 0.  1.
         12    1    3    3    0    0  0.81801737131E+01  0.20469303544E+01  0.25816218957E+02  0.27158466950E+02  0.00000000000E+00 0. -1.
</event>
<event>
 7    1  0.7755875E-012  0.5930195E+02  0.7816164E-02  0.1266605E+00
        -11   -1    0    0    0    0  0.00000000000E+00  0.00000000000E+00  0.45593999997E+02  0.45594000000E+02  0.51100000000E-03 0.  1.
         11   -1    0    0    0    0 -0.00000000000E+00 -0.00000000000E+00 -0.45593999997E+02  0.45594000000E+02  0.51100000000E-03 0. -1.
    9900012    2    1    2    0    0  0.48309276661E+01 -0.28713445640E+02 -0.12996940871E+02  0.59301948274E+02  0.50000007744E+02 0.  0.
         12    1    1    2    0    0 -0.48309276661E+01  0.28713445640E+02  0.12996940871E+02  0.31886051726E+02  0.00000000000E+00 0. -1.
         11    1    3    3    0    0 -0.19265404312E+02 -0.71710420171E+01 -0.10637460603E+02  0.23145954620E+02  0.51100000000E-03 0. -1.
        -11    1    3    3    0    0  0.14787995836E+02 -0.32244424614E+01  0.16366354993E+01  0.15223679780E+02  0.51100000000E-03 0.  1.
         12    1    3    3    0    0  0.93083361423E+01 -0.18317961162E+02 -0.39961157675E+01  0.20932313873E+02  0.00000000000E+00 0. -1.
</event>
<event>
 7    1  0.7755875E-012  0.5930194E+02  0.7816164E-02  0.1266605E+00
        -11   -1    0    0    0    0  0.00000000000E+00  0.00000000000E+00  0.45593999997E+02  0.45594000000E+02  0.51100000000E-03 0.  1.
         11   -1    0    0    0    0 -0.00000000000E+00 -0.00000000000E+00 -0.45593999997E+02  0.45594000000E+02  0.51100000000E-03 0. -1.
    9900012    2    1    2    0    0  0.19235710044E+02 -0.23713630430E+02  0.91854170956E+01  0.59301941976E+02  0.49999996259E+02 0.  0.
         12    1    1    2    0    0 -0.19235710044E+02  0.23713630430E+02 -0.91854170956E+01  0.31886058024E+02  0.00000000000E+00 0. -1.
         11    1    3    3    0    0  0.19162963631E+02 -0.35754933865E+02 -0.18117128899E+01  0.40606856252E+02  0.51100000000E-03 0. -1.
        -11    1    3    3    0    0  0.41078614224E+01  0.90637089944E+01  0.85277846162E+01  0.13105283550E+02  0.51100000000E-03 0.  1.
         12    1    3    3    0    0 -0.40351150100E+01  0.29775944406E+01  0.24693453692E+01  0.55898021744E+01  0.00000000000E+00 0. -1.
</event>
<event>
 7    1  0.7755875E-012  0.5930170E+02  0.7816164E-02  0.1266606E+00
        -11   -1    0    0    0    0  0.00000000000E+00  0.00000000000E+00  0.45593999997E+02  0.45594000000E+02  0.51100000000E-03 0.  1.
         11   -1    0    0    0    0 -0.00000000000E+00 -0.00000000000E+00 -0.45593999997E+02  0.45594000000E+02  0.51100000000E-03 0. -1.
    9900012    2    1    2    0    0  0.73047004717E+01  0.12249035422E+01  0.31014144951E+02  0.59301698479E+02  0.49999552176E+02 0.  0.
         12    1    1    2    0    0 -0.73047004717E+01 -0.12249035422E+01 -0.31014144951E+02  0.31886301521E+02  0.00000000000E+00 0. -1.
         11    1    3    3    0    0  0.76737434866E+01 -0.89494285797E+01  0.17681949717E+02  0.21251587166E+02  0.51100000000E-03 0. -1.
        -11    1    3    3    0    0 -0.98587855193E+01  0.13059814797E+02 -0.50822261590E+01  0.17134276682E+02  0.51100000000E-03 0.  1.
        -12    1    3    3    0    0  0.94897425044E+01 -0.28854826747E+01  0.18414421393E+02  0.20915834631E+02  0.00000000000E+00 0.  1.
</event>
<event>
 7    1  0.7755875E-012  0.5930190E+02  0.7816164E-02  0.1266605E+00
        -11   -1    0    0    0    0  0.00000000000E+00  0.00000000000E+00  0.45593999997E+02  0.45594000000E+02  0.51100000000E-03 0. -1.
         11   -1    0    0    0    0 -0.00000000000E+00 -0.00000000000E+00 -0.45593999997E+02  0.45594000000E+02  0.51100000000E-03 0.  1.
    9900012    2    1    2    0    0 -0.23264090402E+02 -0.15972455657E+02 -0.14845399837E+02  0.59301903684E+02  0.49999926424E+02 0.  0.
         12    1    1    2    0    0  0.23264090402E+02  0.15972455657E+02  0.14845399837E+02  0.31886096316E+02  0.00000000000E+00 0. -1.
         11    1    3    3    0    0  0.80540735313E+01  0.14233327075E+01  0.20029410121E+00  0.81813259580E+01  0.51100000000E-03 0.  1.
        -11    1    3    3    0    0 -0.32276370647E+02 -0.12880673595E+01 -0.13139461034E+02  0.34872175960E+02  0.51100000000E-03 0. -1.
        -12    1    3    3    0    0  0.95820671405E+00 -0.16107721005E+02 -0.19062329039E+01  0.16248401766E+02  0.00000000000E+00 0.  1.
</event>
<event>
 7    1  0.7755875E-012  0.5930194E+02  0.7816164E-02  0.1266605E+00
        -11   -1    0    0    0    0  0.00000000000E+00  0.00000000000E+00  0.45593999997E+02  0.45594000000E+02  0.51100000000E-03 0.  1.
         11   -1    0    0    0    0 -0.00000000000E+00 -0.00000000000E+00 -0.45593999997E+02  0.45594000000E+02  0.51100000000E-03 0. -1.
    9900012    2    1    2    0    0 -0.11187951804E+02  0.82452974828E+01  0.28697829418E+02  0.59301943338E+02  0.49999998742E+02 0.  0.
         12    1    1    2    0    0  0.11187951804E+02 -0.82452974828E+01 -0.28697829418E+02  0.31886056662E+02  0.00000000000E+00 0. -1.
         11    1    3    3    0    0  0.60168026439E+01 -0.59611041867E+00  0.16513807872E+02  0.17585878209E+02  0.51100000000E-03 0.  1.
        -11    1    3    3    0    0 -0.21567161876E+02 -0.89650496898E+00 -0.43674659185E+01  0.22023191217E+02  0.51100000000E-03 0. -1.
         12    1    3    3    0    0  0.43624074282E+01  0.97379128704E+01  0.16551487464E+02  0.19692873912E+02  0.00000000000E+00 0. -1.
</event>
<event>
 7    1  0.7755875E-012  0.5930198E+02  0.7816164E-02  0.1266605E+00
        -11   -1    0    0    0    0  0.00000000000E+00  0.00000000000E+00  0.45593999997E+02  0.45594000000E+02  0.51100000000E-03 0. -1.
         11   -1    0    0    0    0 -0.00000000000E+00 -0.00000000000E+00 -0.45593999997E+02  0.45594000000E+02  0.51100000000E-03 0.  1.
    9900012    2    1    2    0    0 -0.18611559633E+02  0.23878303907E+02 -0.10007724769E+02  0.59301982618E+02  0.50000070380E+02 0.  0.
         12    1    1    2    0    0  0.18611559633E+02 -0.23878303907E+02  0.10007724769E+02  0.31886017382E+02  0.00000000000E+00 0. -1.
         11    1    3    3    0    0  0.25102844476E+00 -0.75173859665E+01  0.82577534210E+01  0.11169807468E+02  0.51100000000E-03 0. -1.
        -11    1    3    3    0    0 -0.13064844933E+02  0.21653227959E+02 -0.24485629114E+02  0.35200830779E+02  0.51100000000E-03 0.  1.
         12    1    3    3    0    0 -0.57977431440E+01  0.97424619142E+01  0.62201509241E+01  0.12931344371E+02  0.00000000000E+00 0. -1.
</event>
<event>
 7    1  0.7755875E-012  0.5930189E+02  0.7816164E-02  0.1266605E+00
        -11   -1    0    0    0    0  0.00000000000E+00  0.00000000000E+00  0.45593999997E+02  0.45594000000E+02  0.51100000000E-03 0. -1.
         11   -1    0    0    0    0 -0.00000000000E+00 -0.00000000000E+00 -0.45593999997E+02  0.45594000000E+02  0.51100000000E-03 0.  1.
    9900012    2    1    2    0    0  0.16771074371E+02  0.26303307429E+02 -0.66023323718E+01  0.59301894719E+02  0.49999910073E+02 0.  0.
         12    1    1    2    0    0 -0.16771074371E+02 -0.26303307429E+02  0.66023323718E+01  0.31886105281E+02  0.00000000000E+00 0. -1.
         11    1    3    3    0    0 -0.14472510633E+02  0.61539285376E+01 -0.28882537270E+01  0.15989571924E+02  0.51100000000E-03 0. -1.
        -11    1    3    3    0    0  0.29306734576E+02  0.22513397512E+02 -0.82283502044E+01  0.37860843974E+02  0.51100000000E-03 0.  1.
         12    1    3    3    0    0  0.19368504276E+01 -0.23640186211E+01  0.45142715596E+01  0.54514788208E+01  0.00000000000E+00 0. -1.
</event>
<event>
 7    1  0.7755875E-012  0.5930193E+02  0.7816164E-02  0.1266605E+00
        -11   -1    0    0    0    0  0.00000000000E+00  0.00000000000E+00  0.45593999997E+02  0.45594000000E+02  0.51100000000E-03 0. -1.
         11   -1    0    0    0    0 -0.00000000000E+00 -0.00000000000E+00 -0.45593999997E+02  0.45594000000E+02  0.51100000000E-03 0.  1.
    9900012    2    1    2    0    0 -0.75433227415E+01  0.30116345805E+02  0.72681212615E+01  0.59301927973E+02  0.49999970720E+02 0.  0.
         12    1    1    2    0    0  0.75433227415E+01 -0.30116345805E+02 -0.72681212615E+01  0.31886072027E+02  0.00000000000E+00 0. -1.
         11    1    3    3    0    0 -0.17119811587E+01  0.13221852307E+02  0.11924766264E+02  0.17887098944E+02  0.51100000000E-03 0. -1.
        -11    1    3    3    0    0 -0.61708044366E+00  0.23578904776E+02 -0.15067540806E+02  0.27988860729E+02  0.51100000000E-03 0.  1.
        -12    1    3    3    0    0 -0.52142611391E+01 -0.66844112777E+01  0.10410895804E+02  0.13425968300E+02  0.00000000000E+00 0.  1.
</event>
<event>
 7    1  0.7755875E-012  0.5930194E+02  0.7816164E-02  0.1266605E+00
        -11   -1    0    0    0    0  0.00000000000E+00  0.00000000000E+00  0.45593999997E+02  0.45594000000E+02  0.51100000000E-03 0.  1.
         11   -1    0    0    0    0 -0.00000000000E+00 -0.00000000000E+00 -0.45593999997E+02  0.45594000000E+02  0.51100000000E-03 0. -1.
    9900012    2    1    2    0    0 -0.11943564956E+02 -0.23239900024E+02 -0.18275101862E+02  0.59301936508E+02  0.49999986286E+02 0.  0.
         12    1    1    2    0    0  0.11943564956E+02  0.23239900024E+02  0.18275101862E+02  0.31886063492E+02  0.00000000000E+00 0. -1.
         11    1    3    3    0    0 -0.24380216896E+02 -0.17667124751E+02 -0.21375593311E+02  0.36924764894E+02  0.51100000000E-03 0. -1.
        -11    1    3    3    0    0  0.15831427757E+02 -0.73517101507E+01  0.49189856910E+01  0.18134998414E+02  0.51100000000E-03 0.  1.
        -12    1    3    3    0    0 -0.33947758175E+01  0.17789348781E+01 -0.18184942414E+01  0.42421731998E+01  0.00000000000E+00 0.  1.
</event>
<event>
 7    1  0.7755875E-012  0.5930194E+02  0.7816164E-02  0.1266605E+00
        -11   -1    0    0    0    0  0.00000000000E+00  0.00000000000E+00  0.45593999997E+02  0.45594000000E+02  0.51100000000E-03 0.  1.
         11   -1    0    0    0    0 -0.00000000000E+00 -0.00000000000E+00 -0.45593999997E+02  0.45594000000E+02  0.51100000000E-03 0. -1.
    9900012    2    1    2    0    0 -0.44487384227E+01  0.20802143799E+02  0.23752902234E+02  0.59301939963E+02  0.49999992586E+02 0.  0.
         12    1    1    2    0    0  0.44487384227E+01 -0.20802143799E+02 -0.23752902234E+02  0.31886060037E+02  0.00000000000E+00 0. -1.
         11    1    3    3    0    0  0.52028084075E+01  0.12767818110E+02  0.76713655791E+01  0.15777713545E+02  0.51100000000E-03 0. -1.
        -11    1    3    3    0    0  0.49905519524E+01 -0.13442587785E+02  0.72800081041E+01  0.16081271511E+02  0.51100000000E-03 0.  1.
        -12    1    3    3    0    0 -0.14642098783E+02  0.21476913474E+02  0.88015285504E+01  0.27442954906E+02  0.00000000000E+00 0.  1.
</event>
<event>
 7    1  0.7755875E-012  0.5930195E+02  0.7816164E-02  0.1266605E+00
        -11   -1    0    0    0    0  0.00000000000E+00  0.00000000000E+00  0.45593999997E+02  0.45594000000E+02  0.51100000000E-03 0. -1.
         11   -1    0    0    0    0 -0.00000000000E+00 -0.00000000000E+00 -0.45593999997E+02  0.45594000000E+02  0.51100000000E-03 0.  1.
    9900012    2    1    2    0    0 -0.25925572644E+02  0.15390224132E+02  0.10379118285E+02  0.59301946432E+02  0.50000004385E+02 0.  0.
         12    1    1    2    0    0  0.25925572644E+02 -0.15390224132E+02 -0.10379118285E+02  0.31886053568E+02  0.00000000000E+00 0. -1.
         11    1    3    3    0    0 -0.13323428774E+02  0.10457680425E+02  0.75100637843E+01  0.18527760050E+02  0.51100000000E-03 0.  1.
        -11    1    3    3    0    0  0.72311135012E+01  0.13936172629E+02  0.90640565002E+01  0.18129065903E+02  0.51100000000E-03 0. -1.
        -12    1    3    3    0    0 -0.19833257371E+02 -0.90036289220E+01 -0.61950019997E+01  0.22645120479E+02  0.00000000000E+00 0.  1.
</event>
<event>
 7    1  0.7755875E-012  0.5930193E+02  0.7816164E-02  0.1266605E+00
        -11   -1    0    0    0    0  0.00000000000E+00  0.00000000000E+00  0.45593999997E+02  0.45594000000E+02  0.51100000000E-03 0. -1.
         11   -1    0    0    0    0 -0.00000000000E+00 -0.00000000000E+00 -0.45593999997E+02  0.45594000000E+02  0.51100000000E-03 0.  1.
    9900012    2    1    2    0    0 -0.19752869621E+02  0.23158136515E+02  0.94997897969E+01  0.59301934842E+02  0.49999983247E+02 0.  0.
         12    1    1    2    0    0  0.19752869621E+02 -0.23158136515E+02 -0.94997897969E+01  0.31886065158E+02  0.00000000000E+00 0. -1.
         11    1    3    3    0    0 -0.83578873573E+01 -0.54824783750E+01  0.21246849034E+02  0.23480639777E+02  0.51100000000E-03 0. -1.
        -11    1    3    3    0    0 -0.59151156784E+01  0.91431073324E+01 -0.11112101981E+02  0.15558400171E+02  0.51100000000E-03 0.  1.
        -12    1    3    3    0    0 -0.54798665852E+01  0.19497507558E+02 -0.63495725559E+00  0.20262894894E+02  0.00000000000E+00 0.  1.
</event>
<event>
 7    1  0.7755875E-012  0.5930193E+02  0.7816164E-02  0.1266605E+00
        -11   -1    0    0    0    0  0.00000000000E+00  0.00000000000E+00  0.45593999997E+02  0.45594000000E+02  0.51100000000E-03 0.  1.
         11   -1    0    0    0    0 -0.00000000000E+00 -0.00000000000E+00 -0.45593999997E+02  0.45594000000E+02  0.51100000000E-03 0. -1.
    9900012    2    1    2    0    0  0.79374348274E+01  0.30801992592E+02 -0.22261598646E+01  0.59301930832E+02  0.49999975934E+02 0.  0.
         12    1    1    2    0    0 -0.79374348274E+01 -0.30801992592E+02  0.22261598646E+01  0.31886069168E+02  0.00000000000E+00 0. -1.
         11    1    3    3    0    0 -0.88544650568E+00  0.44635484895E+01 -0.12998000720E+02  0.13771539624E+02  0.51100000000E-03 0. -1.
        -11    1    3    3    0    0 -0.10804045258E+02  0.14000266909E+02  0.13415722722E+02  0.22197217931E+02  0.51100000000E-03 0.  1.
        -12    1    3    3    0    0  0.19626926591E+02  0.12338177193E+02 -0.26438818667E+01  0.23333173277E+02  0.00000000000E+00 0.  1.
</event>
<event>
 7    1  0.7755875E-012  0.5930195E+02  0.7816164E-02  0.1266605E+00
        -11   -1    0    0    0    0  0.00000000000E+00  0.00000000000E+00  0.45593999997E+02  0.45594000000E+02  0.51100000000E-03 0.  1.
         11   -1    0    0    0    0 -0.00000000000E+00 -0.00000000000E+00 -0.45593999997E+02  0.45594000000E+02  0.51100000000E-03 0. -1.
    9900012    2    1    2    0    0  0.94151986378E+01  0.11163509882E+02  0.28345200624E+02  0.59301947929E+02  0.50000007115E+02 0.  0.
         12    1    1    2    0    0 -0.94151986378E+01 -0.11163509882E+02 -0.28345200624E+02  0.31886052071E+02  0.00000000000E+00 0. -1.
         11    1    3    3    0    0 -0.39087902521E+01 -0.72229610803E+01 -0.31077278515E+01  0.87811036130E+01  0.51100000000E-03 0. -1.
        -11    1    3    3    0    0  0.17955941424E+02  0.49934644376E+01  0.31205399011E+02  0.36347316919E+02  0.51100000000E-03 0.  1.
        -12    1    3    3    0    0 -0.46319525340E+01  0.13393006525E+02  0.24752946458E+00  0.14173527397E+02  0.00000000000E+00 0.  1.
</event>
<event>
 7    1  0.7755875E-012  0.5930189E+02  0.7816164E-02  0.1266605E+00
        -11   -1    0    0    0    0  0.00000000000E+00  0.00000000000E+00  0.45593999997E+02  0.45594000000E+02  0.51100000000E-03 0.  1.
         11   -1    0    0    0    0 -0.00000000000E+00 -0.00000000000E+00 -0.45593999997E+02  0.45594000000E+02  0.51100000000E-03 0. -1.
    9900012    2    1    2    0    0 -0.11955979936E+02 -0.13543777744E+02  0.26274409922E+02  0.59301890350E+02  0.49999902105E+02 0.  0.
         12    1    1    2    0    0  0.11955979936E+02  0.13543777744E+02 -0.26274409922E+02  0.31886109650E+02  0.00000000000E+00 0. -1.
         11    1    3    3    0    0  0.83689853442E+01 -0.10850241702E+02  0.72270836615E+01  0.15491881719E+02  0.51100000000E-03 0. -1.
        -11    1    3    3    0    0 -0.17418762521E+02 -0.48884040805E+01  0.28456476718E+02  0.33720629438E+02  0.51100000000E-03 0.  1.
        -12    1    3    3    0    0 -0.29062027592E+01  0.21948680381E+01 -0.94091504573E+01  0.10089379194E+02  0.00000000000E+00 0.  1.
</event>
<event>
 7    1  0.7755875E-012  0.5930193E+02  0.7816164E-02  0.1266605E+00
        -11   -1    0    0    0    0  0.00000000000E+00  0.00000000000E+00  0.45593999997E+02  0.45594000000E+02  0.51100000000E-03 0.  1.
         11   -1    0    0    0    0 -0.00000000000E+00 -0.00000000000E+00 -0.45593999997E+02  0.45594000000E+02  0.51100000000E-03 0. -1.
    9900012    2    1    2    0    0  0.22823829386E+02  0.17726806407E+01  0.22195758422E+02  0.59301932880E+02  0.49999979668E+02 0.  0.
         12    1    1    2    0    0 -0.22823829386E+02 -0.17726806407E+01 -0.22195758422E+02  0.31886067120E+02  0.00000000000E+00 0. -1.
         11    1    3    3    0    0  0.12568560724E+01  0.20049585696E+02  0.19756285448E+02  0.28175812122E+02  0.51100000000E-03 0. -1.
        -11    1    3    3    0    0  0.13885001486E+02 -0.46491163410E+01  0.45668505159E+01  0.15338307368E+02  0.51100000000E-03 0.  1.
         12    1    3    3    0    0  0.76819718276E+01 -0.13627788714E+02 -0.21273775426E+01  0.15787813389E+02  0.00000000000E+00 0. -1.
</event>
<event>
 7    1  0.7755875E-012  0.5930193E+02  0.7816164E-02  0.1266605E+00
        -11   -1    0    0    0    0  0.00000000000E+00  0.00000000000E+00  0.45593999997E+02  0.45594000000E+02  0.51100000000E-03 0. -1.
         11   -1    0    0    0    0 -0.00000000000E+00 -0.00000000000E+00 -0.45593999997E+02  0.45594000000E+02  0.51100000000E-03 0.  1.
    9900012    2    1    2    0    0  0.15876284204E+02  0.43396361493E+01 -0.27309933509E+02  0.59301932348E+02  0.49999978699E+02 0.  0.
         12    1    1    2    0    0 -0.15876284204E+02 -0.43396361493E+01  0.27309933509E+02  0.31886067652E+02  0.00000000000E+00 0. -1.
         11    1    3    3    0    0  0.42759929202E+01 -0.80368749017E+01  0.52541078822E+01  0.10511000121E+02  0.51100000000E-03 0. -1.
        -11    1    3    3    0    0  0.20706197416E+02  0.16034095247E+02 -0.26491124335E+02  0.37250751544E+02  0.51100000000E-03 0.  1.
         12    1    3    3    0    0 -0.91059061318E+01 -0.36575841956E+01 -0.60729170560E+01  0.11540180683E+02  0.00000000000E+00 0. -1.
</event>
<event>
 7    1  0.7755875E-012  0.5930203E+02  0.7816164E-02  0.1266604E+00
        -11   -1    0    0    0    0  0.00000000000E+00  0.00000000000E+00  0.45593999997E+02  0.45594000000E+02  0.51100000000E-03 0. -1.
         11   -1    0    0    0    0 -0.00000000000E+00 -0.00000000000E+00 -0.45593999997E+02  0.45594000000E+02  0.51100000000E-03 0.  1.
    9900012    2    1    2    0    0  0.22769986254E+02 -0.58864528972E+01 -0.21531202228E+02  0.59302027048E+02  0.50000151408E+02 0.  0.
         12    1    1    2    0    0 -0.22769986254E+02  0.58864528972E+01  0.21531202228E+02  0.31885972952E+02  0.00000000000E+00 0. -1.
         11    1    3    3    0    0  0.69519048253E+01  0.43578236067E+01 -0.13924821112E+02  0.16162309567E+02  0.51100000000E-03 0. -1.
        -11    1    3    3    0    0 -0.50289255279E+01 -0.18228332395E+02 -0.86454172687E+01  0.20791955989E+02  0.51100000000E-03 0.  1.
        -12    1    3    3    0    0  0.20847006957E+02  0.79840558907E+01  0.10390361527E+01  0.22347761491E+02  0.00000000000E+00 0.  1.
</event>
<event>
 7    1  0.7755875E-012  0.5930194E+02  0.7816164E-02  0.1266605E+00
        -11   -1    0    0    0    0  0.00000000000E+00  0.00000000000E+00  0.45593999997E+02  0.45594000000E+02  0.51100000000E-03 0.  1.
         11   -1    0    0    0    0 -0.00000000000E+00 -0.00000000000E+00 -0.45593999997E+02  0.45594000000E+02  0.51100000000E-03 0. -1.
    9900012    2    1    2    0    0  0.13545967076E+02 -0.28053512967E+02  0.67991218997E+01  0.59301939214E+02  0.49999991221E+02 0.  0.
         12    1    1    2    0    0 -0.13545967076E+02  0.28053512967E+02 -0.67991218997E+01  0.31886060786E+02  0.00000000000E+00 0. -1.
         11    1    3    3    0    0  0.14799916699E+02  0.10331408447E+02  0.14137580588E+01  0.18104536638E+02  0.51100000000E-03 0. -1.
        -11    1    3    3    0    0  0.34130659127E+01 -0.11184299917E+02  0.68649267712E+01  0.13559675637E+02  0.51100000000E-03 0.  1.
         12    1    3    3    0    0 -0.46670155352E+01 -0.27200621497E+02 -0.14795629304E+01  0.27637726938E+02  0.00000000000E+00 0. -1.
</event>
<event>
 7    1  0.7755875E-012  0.5930192E+02  0.7816164E-02  0.1266605E+00
        -11   -1    0    0    0    0  0.00000000000E+00  0.00000000000E+00  0.45593999997E+02  0.45594000000E+02  0.51100000000E-03 0.  1.
         11   -1    0    0    0    0 -0.00000000000E+00 -0.00000000000E+00 -0.45593999997E+02  0.45594000000E+02  0.51100000000E-03 0. -1.
    9900012    2    1    2    0    0 -0.30326206696E+02 -0.63092739829E+00  0.98308312384E+01  0.59301919576E+02  0.49999955406E+02 0.  0.
         12    1    1    2    0    0  0.30326206696E+02  0.63092739829E+00 -0.98308312384E+01  0.31886080424E+02  0.00000000000E+00 0. -1.
         11    1    3    3    0    0 -0.32244352984E+02  0.48872072646E+01 -0.63127975781E+01  0.33217984703E+02  0.51100000000E-03 0. -1.
        -11    1    3    3    0    0 -0.28298044939E+01  0.18823348185E+01  0.16919204382E+02  0.17257185605E+02  0.51100000000E-03 0.  1.
         12    1    3    3    0    0  0.47479507820E+01 -0.74004694814E+01 -0.77557556525E+00  0.88267492675E+01  0.00000000000E+00 0. -1.
</event>
<event>
 7    1  0.1119963E-011  0.5930194E+02  0.7816164E-02  0.1266605E+00
        -11   -1    0    0    0    0  0.00000000000E+00  0.00000000000E+00  0.45593999997E+02  0.45594000000E+02  0.51100000000E-03 0. -1.
         11   -1    0    0    0    0 -0.00000000000E+00 -0.00000000000E+00 -0.45593999997E+02  0.45594000000E+02  0.51100000000E-03 0.  1.
    9900012    2    1    2    0    0  0.17588944578E+02 -0.16349004784E+02 -0.20977597474E+02  0.59301944669E+02  0.50000001170E+02 0.  0.
         12    1    1    2    0    0 -0.17588944578E+02  0.16349004784E+02  0.20977597474E+02  0.31886055331E+02  0.00000000000E+00 0. -1.
         11    1    3    3    0    0  0.94550394548E+01 -0.56853935914E+01  0.11455171290E+02  0.15904163635E+02  0.51100000000E-03 0. -1.
        -11    1    3    3    0    0 -0.81506512471E+01  0.15640361494E+01 -0.11620280458E+02  0.14279714388E+02  0.51100000000E-03 0.  1.
        -12    1    3    3    0    0  0.16284556370E+02 -0.12227647342E+02 -0.20812488307E+02  0.29118066646E+02  0.00000000000E+00 0.  1.
</event>
<event>
 7    1  0.7755875E-012  0.5930193E+02  0.7816164E-02  0.1266605E+00
        -11   -1    0    0    0    0  0.00000000000E+00  0.00000000000E+00  0.45593999997E+02  0.45594000000E+02  0.51100000000E-03 0.  1.
         11   -1    0    0    0    0 -0.00000000000E+00 -0.00000000000E+00 -0.45593999997E+02  0.45594000000E+02  0.51100000000E-03 0. -1.
    9900012    2    1    2    0    0 -0.23304545462E+02  0.25179523565E+01  0.21616653842E+02  0.59301927075E+02  0.49999969082E+02 0.  0.
         12    1    1    2    0    0  0.23304545462E+02 -0.25179523565E+01 -0.21616653842E+02  0.31886072925E+02  0.00000000000E+00 0. -1.
         11    1    3    3    0    0 -0.12936099475E+02 -0.90399692943E+01 -0.10830843464E+02  0.19140817246E+02  0.51100000000E-03 0. -1.
        -11    1    3    3    0    0 -0.14335983822E+02  0.41073507874E+01  0.23727887096E+02  0.28025049312E+02  0.51100000000E-03 0.  1.
         12    1    3    3    0    0  0.39675378349E+01  0.74505708634E+01  0.87196102094E+01  0.12136060517E+02  0.00000000000E+00 0. -1.
</event>
<event>
 7    1  0.7755875E-012  0.5930193E+02  0.7816164E-02  0.1266605E+00
        -11   -1    0    0    0    0  0.00000000000E+00  0.00000000000E+00  0.45593999997E+02  0.45594000000E+02  0.51100000000E-03 0.  1.
         11   -1    0    0    0    0 -0.00000000000E+00 -0.00000000000E+00 -0.45593999997E+02  0.45594000000E+02  0.51100000000E-03 0. -1.
    9900012    2    1    2    0    0  0.16284441081E+02  0.26844611241E+02  0.55592383403E+01  0.59301932433E+02  0.49999978853E+02 0.  0.
         12    1    1    2    0    0 -0.16284441081E+02 -0.26844611241E+02 -0.55592383403E+01  0.31886067567E+02  0.00000000000E+00 0. -1.
         11    1    3    3    0    0  0.12662546481E+02  0.24591640863E+02 -0.93040584248E+01  0.29183118188E+02  0.51100000000E-03 0. -1.
        -11    1    3    3    0    0  0.64063837007E+01  0.81748045137E+01  0.19503687793E+02  0.22096674382E+02  0.51100000000E-03 0.  1.
         12    1    3    3    0    0 -0.27844891008E+01 -0.59218341366E+01 -0.46403910274E+01  0.80221398629E+01  0.00000000000E+00 0. -1.
</event>
<event>
 7    1  0.7755875E-012  0.5930196E+02  0.7816164E-02  0.1266605E+00
        -11   -1    0    0    0    0  0.00000000000E+00  0.00000000000E+00  0.45593999997E+02  0.45594000000E+02  0.51100000000E-03 0.  1.
         11   -1    0    0    0    0 -0.00000000000E+00 -0.00000000000E+00 -0.45593999997E+02  0.45594000000E+02  0.51100000000E-03 0. -1.
    9900012    2    1    2    0    0 -0.22768694809E+02 -0.12769944420E+01  0.22286213606E+02  0.59301960814E+02  0.50000030614E+02 0.  0.
         12    1    1    2    0    0  0.22768694809E+02  0.12769944420E+01 -0.22286213606E+02  0.31886039186E+02  0.00000000000E+00 0. -1.
         11    1    3    3    0    0 -0.22580006690E+02 -0.21408695898E+02  0.15704073500E+02  0.34854079918E+02  0.51100000000E-03 0. -1.
        -11    1    3    3    0    0  0.47259855882E+01  0.16349317227E+02  0.29848590233E+01  0.17278440243E+02  0.51100000000E-03 0.  1.
         12    1    3    3    0    0 -0.49146737071E+01  0.37823842288E+01  0.35972810824E+01  0.71694406537E+01  0.00000000000E+00 0. -1.
</event>
<event>
 7    1  0.7755875E-012  0.5930194E+02  0.7816164E-02  0.1266605E+00
        -11   -1    0    0    0    0  0.00000000000E+00  0.00000000000E+00  0.45593999997E+02  0.45594000000E+02  0.51100000000E-03 0.  1.
         11   -1    0    0    0    0 -0.00000000000E+00 -0.00000000000E+00 -0.45593999997E+02  0.45594000000E+02  0.51100000000E-03 0. -1.
    9900012    2    1    2    0    0  0.12496915450E+02  0.27527180949E+02  0.10139136391E+02  0.59301942333E+02  0.49999996909E+02 0.  0.
         12    1    1    2    0    0 -0.12496915450E+02 -0.27527180949E+02 -0.10139136391E+02  0.31886057667E+02  0.00000000000E+00 0. -1.
         11    1    3    3    0    0 -0.50923052091E+01 -0.95735965752E+01 -0.13194325084E+01  0.10923654431E+02  0.51100000000E-03 0. -1.
        -11    1    3    3    0    0  0.72078153010E+01  0.21267867586E+02 -0.53232744063E+01  0.23078389107E+02  0.51100000000E-03 0.  1.
         12    1    3    3    0    0  0.10381405358E+02  0.15832909938E+02  0.16781843306E+02  0.25299898795E+02  0.00000000000E+00 0. -1.
</event>
<event>
 7    1  0.7755875E-012  0.5930192E+02  0.7816164E-02  0.1266605E+00
        -11   -1    0    0    0    0  0.00000000000E+00  0.00000000000E+00  0.45593999997E+02  0.45594000000E+02  0.51100000000E-03 0. -1.
         11   -1    0    0    0    0 -0.00000000000E+00 -0.00000000000E+00 -0.45593999997E+02  0.45594000000E+02  0.51100000000E-03 0.  1.
    9900012    2    1    2    0    0 -0.14257826011E+02  0.17420581904E+02 -0.22582290049E+02  0.59301919961E+02  0.49999956107E+02 0.  0.
         12    1    1    2    0    0  0.14257826011E+02 -0.17420581904E+02  0.22582290049E+02  0.31886080039E+02  0.00000000000E+00 0. -1.
         11    1    3    3    0    0 -0.26943946270E+02  0.64202286239E+01 -0.97983423999E+01  0.29380318076E+02  0.51100000000E-03 0. -1.
        -11    1    3    3    0    0  0.13361377105E+02 -0.24511478010E+01 -0.64968259255E+01  0.15057996914E+02  0.51100000000E-03 0.  1.
        -12    1    3    3    0    0 -0.67525684566E+00  0.13451501082E+02 -0.62871217232E+01  0.14863604970E+02  0.00000000000E+00 0.  1.
</event>
<event>
 7    1  0.7755875E-012  0.5930192E+02  0.7816164E-02  0.1266605E+00
        -11   -1    0    0    0    0  0.00000000000E+00  0.00000000000E+00  0.45593999997E+02  0.45594000000E+02  0.51100000000E-03 0.  1.
         11   -1    0    0    0    0 -0.00000000000E+00 -0.00000000000E+00 -0.45593999997E+02  0.45594000000E+02  0.51100000000E-03 0. -1.
    9900012    2    1    2    0    0  0.48769658284E-01  0.20529578211E+02  0.24397865277E+02  0.59301924824E+02  0.49999964977E+02 0.  0.
         12    1    1    2    0    0 -0.48769658284E-01 -0.20529578211E+02 -0.24397865277E+02  0.31886075176E+02  0.00000000000E+00 0. -1.
         11    1    3    3    0    0  0.58424172495E+01 -0.13790110095E+02  0.63853584119E+01  0.16281086514E+02  0.51100000000E-03 0. -1.
        -11    1    3    3    0    0  0.51020162251E+00  0.25690263132E+02  0.19465338022E+02  0.32235838907E+02  0.51100000000E-03 0.  1.
         12    1    3    3    0    0 -0.63038492137E+01  0.86294251750E+01 -0.14528311567E+01  0.10784999403E+02  0.00000000000E+00 0. -1.
</event>
<event>
 7    1  0.7755875E-012  0.5930192E+02  0.7816164E-02  0.1266605E+00
        -11   -1    0    0    0    0  0.00000000000E+00  0.00000000000E+00  0.45593999997E+02  0.45594000000E+02  0.51100000000E-03 0.  1.
         11   -1    0    0    0    0 -0.00000000000E+00 -0.00000000000E+00 -0.45593999997E+02  0.45594000000E+02  0.51100000000E-03 0. -1.
    9900012    2    1    2    0    0 -0.10737073080E+02 -0.28599593318E+02  0.91378622761E+01  0.59301921482E+02  0.49999958881E+02 0.  0.
         12    1    1    2    0    0  0.10737073080E+02  0.28599593318E+02 -0.91378622761E+01  0.31886078518E+02  0.00000000000E+00 0. -1.
         11    1    3    3    0    0 -0.28826250928E+02 -0.20358839677E+02  0.10309779915E+02  0.36765835469E+02  0.51100000000E-03 0. -1.
        -11    1    3    3    0    0  0.20203214494E+01 -0.55143817946E+01 -0.20332495495E+01  0.62148378360E+01  0.51100000000E-03 0.  1.
         12    1    3    3    0    0  0.16068856398E+02 -0.27263718467E+01  0.86133191013E+00  0.16321248177E+02  0.00000000000E+00 0. -1.
</event>
<event>
 7    1  0.7755875E-012  0.5930193E+02  0.7816164E-02  0.1266605E+00
        -11   -1    0    0    0    0  0.00000000000E+00  0.00000000000E+00  0.45593999997E+02  0.45594000000E+02  0.51100000000E-03 0. -1.
         11   -1    0    0    0    0 -0.00000000000E+00 -0.00000000000E+00 -0.45593999997E+02  0.45594000000E+02  0.51100000000E-03 0.  1.
    9900012    2    1    2    0    0 -0.26897942588E+02 -0.53656945855E+01  0.16261357096E+02  0.59301925791E+02  0.49999966740E+02 0.  0.
         12    1    1    2    0    0  0.26897942588E+02  0.53656945855E+01 -0.16261357096E+02  0.31886074209E+02  0.00000000000E+00 0. -1.
         11    1    3    3    0    0 -0.26255639313E+02  0.48279770790E+01 -0.90165060613E+01  0.28177390585E+02  0.51100000000E-03 0.  1.
        -11    1    3    3    0    0  0.18626707569E+01  0.29699116653E+01  0.14630920584E+01  0.37987572021E+01  0.51100000000E-03 0. -1.
         12    1    3    3    0    0 -0.25049740328E+01 -0.13163583330E+02  0.23814771099E+02  0.27325778003E+02  0.00000000000E+00 0. -1.
</event>
<event>
 7    1  0.7755875E-012  0.5930196E+02  0.7816164E-02  0.1266605E+00
        -11   -1    0    0    0    0  0.00000000000E+00  0.00000000000E+00  0.45593999997E+02  0.45594000000E+02  0.51100000000E-03 0. -1.
         11   -1    0    0    0    0 -0.00000000000E+00 -0.00000000000E+00 -0.45593999997E+02  0.45594000000E+02  0.51100000000E-03 0.  1.
    9900012    2    1    2    0    0  0.31711286354E+02 -0.27742864779E+01 -0.18485893599E+01  0.59301958692E+02  0.50000026743E+02 0.  0.
         12    1    1    2    0    0 -0.31711286354E+02  0.27742864779E+01  0.18485893599E+01  0.31886041308E+02  0.00000000000E+00 0. -1.
         11    1    3    3    0    0 -0.52057231519E+01  0.41219163266E+00  0.59342272961E+01  0.79047143743E+01  0.51100000000E-03 0. -1.
        -11    1    3    3    0    0  0.43103749492E+02 -0.62063940342E+01 -0.45307367804E+01  0.43783331568E+02  0.51100000000E-03 0.  1.
        -12    1    3    3    0    0 -0.61867399857E+01  0.30199159236E+01 -0.32520798756E+01  0.76139127493E+01  0.00000000000E+00 0.  1.
</event>
<event>
 7    1  0.7755875E-012  0.5930195E+02  0.7816164E-02  0.1266605E+00
        -11   -1    0    0    0    0  0.00000000000E+00  0.00000000000E+00  0.45593999997E+02  0.45594000000E+02  0.51100000000E-03 0. -1.
         11   -1    0    0    0    0 -0.00000000000E+00 -0.00000000000E+00 -0.45593999997E+02  0.45594000000E+02  0.51100000000E-03 0.  1.
    9900012    2    1    2    0    0 -0.30797545427E+02  0.11238100793E+00 -0.82594510120E+01  0.59301953446E+02  0.50000017176E+02 0.  0.
         12    1    1    2    0    0  0.30797545427E+02 -0.11238100793E+00  0.82594510120E+01  0.31886046554E+02  0.00000000000E+00 0. -1.
         11    1    3    3    0    0  0.10802395068E+01  0.22871292673E+01 -0.15857268529E+00  0.25343684094E+01  0.51100000000E-03 0. -1.
        -11    1    3    3    0    0 -0.26944503598E+02 -0.17748104604E+01  0.16519140716E+02  0.31654987547E+02  0.51100000000E-03 0.  1.
        -12    1    3    3    0    0 -0.49332813356E+01 -0.39993779898E+00 -0.24620019043E+02  0.25112597489E+02  0.00000000000E+00 0.  1.
</event>
<event>
 7    1  0.7755875E-012  0.5930196E+02  0.7816164E-02  0.1266605E+00
        -11   -1    0    0    0    0  0.00000000000E+00  0.00000000000E+00  0.45593999997E+02  0.45594000000E+02  0.51100000000E-03 0.  1.
         11   -1    0    0    0    0 -0.00000000000E+00 -0.00000000000E+00 -0.45593999997E+02  0.45594000000E+02  0.51100000000E-03 0. -1.
    9900012    2    1    2    0    0 -0.26580701704E+02 -0.11878602671E+02  0.13003246065E+02  0.59301963672E+02  0.50000035826E+02 0.  0.
         12    1    1    2    0    0  0.26580701704E+02  0.11878602671E+02 -0.13003246065E+02  0.31886036328E+02  0.00000000000E+00 0. -1.
         11    1    3    3    0    0 -0.66587871965E+01  0.18591463134E+01 -0.92650962931E+01  0.11560185186E+02  0.51100000000E-03 0. -1.
        -11    1    3    3    0    0  0.11426979804E+01 -0.83582377423E+01  0.24476284384E+02  0.25889271800E+02  0.51100000000E-03 0.  1.
        -12    1    3    3    0    0 -0.21064612488E+02 -0.53795112420E+01 -0.22079420256E+01  0.21852506686E+02  0.00000000000E+00 0.  1.
</event>
<event>
 7    1  0.7755875E-012  0.5930200E+02  0.7816164E-02  0.1266605E+00
        -11   -1    0    0    0    0  0.00000000000E+00  0.00000000000E+00  0.45593999997E+02  0.45594000000E+02  0.51100000000E-03 0.  1.
         11   -1    0    0    0    0 -0.00000000000E+00 -0.00000000000E+00 -0.45593999997E+02  0.45594000000E+02  0.51100000000E-03 0. -1.
    9900012    2    1    2    0    0 -0.46846286293E+01 -0.27986244910E+02 -0.14544471519E+02  0.59301995213E+02  0.50000093349E+02 0.  0.
         12    1    1    2    0    0  0.46846286293E+01  0.27986244910E+02  0.14544471519E+02  0.31886004787E+02  0.00000000000E+00 0. -1.
         11    1    3    3    0    0  0.11853454125E+02 -0.22740119169E+02 -0.21335839365E+02  0.33359188183E+02  0.51100000000E-03 0. -1.
        -11    1    3    3    0    0 -0.13163940231E+02 -0.56079162638E-01 -0.37767250766E+01  0.13695112991E+02  0.51100000000E-03 0.  1.
         12    1    3    3    0    0 -0.33741425229E+01 -0.51900465775E+01  0.10568092923E+02  0.12247694039E+02  0.00000000000E+00 0. -1.
</event>
<event>
 7    1  0.7755875E-012  0.5930194E+02  0.7816164E-02  0.1266605E+00
        -11   -1    0    0    0    0  0.00000000000E+00  0.00000000000E+00  0.45593999997E+02  0.45594000000E+02  0.51100000000E-03 0.  1.
         11   -1    0    0    0    0 -0.00000000000E+00 -0.00000000000E+00 -0.45593999997E+02  0.45594000000E+02  0.51100000000E-03 0. -1.
    9900012    2    1    2    0    0 -0.29244832373E+02  0.12166500695E+02  0.36656542782E+01  0.59301937513E+02  0.49999988118E+02 0.  0.
         12    1    1    2    0    0  0.29244832373E+02 -0.12166500695E+02 -0.36656542782E+01  0.31886062487E+02  0.00000000000E+00 0. -1.
         11    1    3    3    0    0  0.18883331343E+01 -0.37614118684E+01  0.38602817724E+01  0.57110241545E+01  0.51100000000E-03 0. -1.
        -11    1    3    3    0    0 -0.15284235901E+02  0.12992771138E+02 -0.19816376650E+02  0.28197672825E+02  0.51100000000E-03 0.  1.
        -12    1    3    3    0    0 -0.15848929606E+02  0.29351414248E+01  0.19621749156E+02  0.25393240533E+02  0.00000000000E+00 0.  1.
</event>
<event>
 7    1  0.7755875E-012  0.5930202E+02  0.7816164E-02  0.1266605E+00
        -11   -1    0    0    0    0  0.00000000000E+00  0.00000000000E+00  0.45593999997E+02  0.45594000000E+02  0.51100000000E-03 0.  1.
         11   -1    0    0    0    0 -0.00000000000E+00 -0.00000000000E+00 -0.45593999997E+02  0.45594000000E+02  0.51100000000E-03 0. -1.
    9900012    2    1    2    0    0 -0.24808607461E+02  0.18621734103E+00  0.20030333405E+02  0.59302016600E+02  0.50000132354E+02 0.  0.
         12    1    1    2    0    0  0.24808607461E+02 -0.18621734103E+00 -0.20030333405E+02  0.31885983400E+02  0.00000000000E+00 0. -1.
         11    1    3    3    0    0  0.37034096389E+01 -0.50384405407E+01 -0.91488519817E+01  0.11081634305E+02  0.51100000000E-03 0. -1.
        -11    1    3    3    0    0 -0.13213311074E+02 -0.86935888701E+01  0.20244041877E+02  0.25690296004E+02  0.51100000000E-03 0.  1.
         12    1    3    3    0    0 -0.15298706026E+02  0.13918246752E+02  0.89351435101E+01  0.22530086291E+02  0.00000000000E+00 0. -1.
</event>
<event>
 7    1  0.7755875E-012  0.5930194E+02  0.7816164E-02  0.1266605E+00
        -11   -1    0    0    0    0  0.00000000000E+00  0.00000000000E+00  0.45593999997E+02  0.45594000000E+02  0.51100000000E-03 0. -1.
         11   -1    0    0    0    0 -0.00000000000E+00 -0.00000000000E+00 -0.45593999997E+02  0.45594000000E+02  0.51100000000E-03 0.  1.
    9900012    2    1    2    0    0  0.15220351141E+02  0.26957374756E+02 -0.76394675124E+01  0.59301943385E+02  0.49999998827E+02 0.  0.
         12    1    1    2    0    0 -0.15220351141E+02 -0.26957374756E+02  0.76394675124E+01  0.31886056615E+02  0.00000000000E+00 0. -1.
         11    1    3    3    0    0  0.17469784093E+02  0.70775319989E+01 -0.27259960198E+01  0.19045100945E+02  0.51100000000E-03 0. -1.
        -11    1    3    3    0    0 -0.18295007594E+02  0.83224650927E+01 -0.11856201947E+01  0.20133961945E+02  0.51100000000E-03 0.  1.
        -12    1    3    3    0    0  0.16045574643E+02  0.11557377665E+02 -0.37278512980E+01  0.20122880495E+02  0.00000000000E+00 0.  1.
</event>
<event>
 7    1  0.7755875E-012  0.5930198E+02  0.7816164E-02  0.1266605E+00
        -11   -1    0    0    0    0  0.00000000000E+00  0.00000000000E+00  0.45593999997E+02  0.45594000000E+02  0.51100000000E-03 0.  1.
         11   -1    0    0    0    0 -0.00000000000E+00 -0.00000000000E+00 -0.45593999997E+02  0.45594000000E+02  0.51100000000E-03 0. -1.
    9900012    2    1    2    0    0 -0.14903642331E+02  0.19308409170E+02  0.20537405821E+02  0.59301980223E+02  0.50000066011E+02 0.  0.
         12    1    1    2    0    0  0.14903642331E+02 -0.19308409170E+02 -0.20537405821E+02  0.31886019777E+02  0.00000000000E+00 0. -1.
         11    1    3    3    0    0 -0.48257706903E+01  0.48764329703E+01 -0.12299657799E+02  0.14083651639E+02  0.51100000000E-03 0. -1.
        -11    1    3    3    0    0 -0.15049627604E+02  0.17886332596E+02  0.19029617683E+02  0.30141972964E+02  0.51100000000E-03 0.  1.
         12    1    3    3    0    0  0.49717559638E+01 -0.34543563957E+01  0.13807445936E+02  0.15076355619E+02  0.00000000000E+00 0. -1.
</event>
<event>
 7    1  0.7755875E-012  0.5930190E+02  0.7816164E-02  0.1266605E+00
        -11   -1    0    0    0    0  0.00000000000E+00  0.00000000000E+00  0.45593999997E+02  0.45594000000E+02  0.51100000000E-03 0.  1.
         11   -1    0    0    0    0 -0.00000000000E+00 -0.00000000000E+00 -0.45593999997E+02  0.45594000000E+02  0.51100000000E-03 0. -1.
    9900012    2    1    2    0    0  0.29595760596E+02  0.46929235248E+01  0.10899128459E+02  0.59301896794E+02  0.49999913857E+02 0.  0.
         12    1    1    2    0    0 -0.29595760596E+02 -0.46929235248E+01 -0.10899128459E+02  0.31886103206E+02  0.00000000000E+00 0. -1.
         11    1    3    3    0    0  0.15045081177E+02  0.19660516792E+02 -0.87105493672E+01  0.26244314788E+02  0.51100000000E-03 0. -1.
        -11    1    3    3    0    0  0.12632155426E+02 -0.19572582421E+01  0.13383006743E+02  0.18506946811E+02  0.51100000000E-03 0.  1.
         12    1    3    3    0    0  0.19185239936E+01 -0.13010335025E+02  0.62266710830E+01  0.14550635195E+02  0.00000000000E+00 0. -1.
</event>
<event>
 7    1  0.7755875E-012  0.5930193E+02  0.7816164E-02  0.1266605E+00
        -11   -1    0    0    0    0  0.00000000000E+00  0.00000000000E+00  0.45593999997E+02  0.45594000000E+02  0.51100000000E-03 0. -1.
         11   -1    0    0    0    0 -0.00000000000E+00 -0.00000000000E+00 -0.45593999997E+02  0.45594000000E+02  0.51100000000E-03 0.  1.
    9900012    2    1    2    0    0  0.56785321497E+01  0.31905093984E+01 -0.31213722540E+02  0.59301928552E+02  0.49999971776E+02 0.  0.
         12    1    1    2    0    0 -0.56785321497E+01 -0.31905093984E+01  0.31213722540E+02  0.31886071448E+02  0.00000000000E+00 0. -1.
         11    1    3    3    0    0 -0.35733335053E+01 -0.56026842826E+01 -0.44433011407E+01  0.79938544394E+01  0.51100000000E-03 0. -1.
        -11    1    3    3    0    0  0.12096822298E+02  0.19889549741E+02 -0.31284508406E+02  0.38995483906E+02  0.51100000000E-03 0.  1.
        -12    1    3    3    0    0 -0.28449566428E+01 -0.11096356060E+02  0.45140870065E+01  0.12312590207E+02  0.00000000000E+00 0.  1.
</event>
<event>
 7    1  0.7755875E-012  0.5930193E+02  0.7816164E-02  0.1266605E+00
        -11   -1    0    0    0    0  0.00000000000E+00  0.00000000000E+00  0.45593999997E+02  0.45594000000E+02  0.51100000000E-03 0.  1.
         11   -1    0    0    0    0 -0.00000000000E+00 -0.00000000000E+00 -0.45593999997E+02  0.45594000000E+02  0.51100000000E-03 0. -1.
    9900012    2    1    2    0    0 -0.99390187265E+01  0.63729847340E+01  0.29619626315E+02  0.59301932655E+02  0.49999979260E+02 0.  0.
         12    1    1    2    0    0  0.99390187265E+01 -0.63729847340E+01 -0.29619626315E+02  0.31886067345E+02  0.00000000000E+00 0. -1.
         11    1    3    3    0    0  0.18395030362E+01  0.75790271502E+01 -0.12104758007E+02  0.14399673282E+02  0.51100000000E-03 0. -1.
        -11    1    3    3    0    0  0.41776564467E+00 -0.24542014214E+00  0.19717050090E+02  0.19723002400E+02  0.51100000000E-03 0.  1.
         12    1    3    3    0    0 -0.12196287407E+02 -0.96062227409E+00  0.22007334233E+02  0.25179256973E+02  0.00000000000E+00 0. -1.
</event>
<event>
 7    1  0.7755875E-012  0.5930194E+02  0.7816164E-02  0.1266605E+00
        -11   -1    0    0    0    0  0.00000000000E+00  0.00000000000E+00  0.45593999997E+02  0.45594000000E+02  0.51100000000E-03 0. -1.
         11   -1    0    0    0    0 -0.00000000000E+00 -0.00000000000E+00 -0.45593999997E+02  0.45594000000E+02  0.51100000000E-03 0.  1.
    9900012    2    1    2    0    0 -0.42520344716E+01  0.84138273794E+01 -0.30460602693E+02  0.59301943412E+02  0.49999998876E+02 0.  0.
         12    1    1    2    0    0  0.42520344716E+01 -0.84138273794E+01  0.30460602693E+02  0.31886056588E+02  0.00000000000E+00 0. -1.
         11    1    3    3    0    0 -0.16350245772E+02  0.16704018316E+02 -0.45924527402E+01  0.23821112214E+02  0.51100000000E-03 0. -1.
        -11    1    3    3    0    0  0.32202717490E+01 -0.10636416929E+01 -0.23560386486E+02  0.23803220274E+02  0.51100000000E-03 0.  1.
         12    1    3    3    0    0  0.88779395515E+01 -0.72265492435E+01 -0.23077634670E+01  0.11677610923E+02  0.00000000000E+00 0. -1.
</event>
<event>
 7    1  0.7755875E-012  0.5930169E+02  0.7816164E-02  0.1266606E+00
        -11   -1    0    0    0    0  0.00000000000E+00  0.00000000000E+00  0.45593999997E+02  0.45594000000E+02  0.51100000000E-03 0.  1.
         11   -1    0    0    0    0 -0.00000000000E+00 -0.00000000000E+00 -0.45593999997E+02  0.45594000000E+02  0.51100000000E-03 0. -1.
    9900012    2    1    2    0    0  0.12114193939E+02 -0.15481406416E+02  0.25105960268E+02  0.59301688197E+02  0.49999533424E+02 0.  0.
         12    1    1    2    0    0 -0.12114193939E+02  0.15481406416E+02 -0.25105960268E+02  0.31886311803E+02  0.00000000000E+00 0. -1.
         11    1    3    3    0    0 -0.10934786482E+02 -0.11163847878E+02 -0.28521487808E+01  0.15885081296E+02  0.51100000000E-03 0. -1.
        -11    1    3    3    0    0  0.19168443161E+02 -0.11553638538E+02  0.27120576322E+02  0.35163069220E+02  0.51100000000E-03 0.  1.
        -12    1    3    3    0    0  0.38805372596E+01  0.72360799994E+01  0.83753272679E+00  0.82535376809E+01  0.00000000000E+00 0.  1.
</event>
<event>
 7    1  0.7755875E-012  0.5930194E+02  0.7816164E-02  0.1266605E+00
        -11   -1    0    0    0    0  0.00000000000E+00  0.00000000000E+00  0.45593999997E+02  0.45594000000E+02  0.51100000000E-03 0. -1.
         11   -1    0    0    0    0 -0.00000000000E+00 -0.00000000000E+00 -0.45593999997E+02  0.45594000000E+02  0.51100000000E-03 0.  1.
    9900012    2    1    2    0    0  0.28312541290E+01  0.31316405995E+02  0.52903459437E+01  0.59301936514E+02  0.49999986297E+02 0.  0.
         12    1    1    2    0    0 -0.28312541290E+01 -0.31316405995E+02 -0.52903459437E+01  0.31886063486E+02  0.00000000000E+00 0. -1.
         11    1    3    3    0    0 -0.10003910439E+02  0.14445118762E+02  0.68531509149E+01  0.18860152646E+02  0.51100000000E-03 0. -1.
        -11    1    3    3    0    0  0.18024933322E+02 -0.23680550039E+01  0.59753392053E+01  0.19136629396E+02  0.51100000000E-03 0.  1.
        -12    1    3    3    0    0 -0.51897687537E+01  0.19239342238E+02 -0.75381441765E+01  0.21305154472E+02  0.00000000000E+00 0.  1.
</event>
<event>
 7    1  0.7755875E-012  0.5930195E+02  0.7816164E-02  0.1266605E+00
        -11   -1    0    0    0    0  0.00000000000E+00  0.00000000000E+00  0.45593999997E+02  0.45594000000E+02  0.51100000000E-03 0. -1.
         11   -1    0    0    0    0 -0.00000000000E+00 -0.00000000000E+00 -0.45593999997E+02  0.45594000000E+02  0.51100000000E-03 0.  1.
    9900012    2    1    2    0    0 -0.14842330968E+02 -0.12045772440E+02 -0.25521059188E+02  0.59301954709E+02  0.50000019480E+02 0.  0.
         12    1    1    2    0    0  0.14842330968E+02  0.12045772440E+02  0.25521059188E+02  0.31886045291E+02  0.00000000000E+00 0. -1.
         11    1    3    3    0    0 -0.11007844390E+02 -0.13739939162E+01  0.11759303505E+02  0.16166066825E+02  0.51100000000E-03 0. -1.
        -11    1    3    3    0    0 -0.29084871481E+01 -0.15966788478E+02 -0.26178874791E+02  0.30801479143E+02  0.51100000000E-03 0.  1.
        -12    1    3    3    0    0 -0.92599942943E+00  0.52950099538E+01 -0.11101487902E+02  0.12334408741E+02  0.00000000000E+00 0.  1.
</event>
<event>
 7    1  0.7755875E-012  0.5930198E+02  0.7816164E-02  0.1266605E+00
        -11   -1    0    0    0    0  0.00000000000E+00  0.00000000000E+00  0.45593999997E+02  0.45594000000E+02  0.51100000000E-03 0.  1.
         11   -1    0    0    0    0 -0.00000000000E+00 -0.00000000000E+00 -0.45593999997E+02  0.45594000000E+02  0.51100000000E-03 0. -1.
    9900012    2    1    2    0    0  0.53080938732E+01  0.95793717489E+01  0.29946252045E+02  0.59301980568E+02  0.50000066641E+02 0.  0.
         12    1    1    2    0    0 -0.53080938732E+01 -0.95793717489E+01 -0.29946252045E+02  0.31886019432E+02  0.00000000000E+00 0. -1.
         11    1    3    3    0    0  0.18883424925E+02  0.43188189035E+01 -0.13239512880E+01  0.19416198930E+02  0.51100000000E-03 0.  1.
        -11    1    3    3    0    0 -0.18283455314E+02  0.15418620039E+01  0.26443080310E+02  0.32185378252E+02  0.51100000000E-03 0. -1.
         12    1    3    3    0    0  0.47081242617E+01  0.37186908415E+01  0.48271230227E+01  0.77004033865E+01  0.00000000000E+00 0. -1.
</event>
<event>
 7    1  0.7755875E-012  0.5930195E+02  0.7816164E-02  0.1266605E+00
        -11   -1    0    0    0    0  0.00000000000E+00  0.00000000000E+00  0.45593999997E+02  0.45594000000E+02  0.51100000000E-03 0.  1.
         11   -1    0    0    0    0 -0.00000000000E+00 -0.00000000000E+00 -0.45593999997E+02  0.45594000000E+02  0.51100000000E-03 0. -1.
    9900012    2    1    2    0    0 -0.15223977920E+02 -0.16648724362E+02  0.22533773955E+02  0.59301945129E+02  0.50000002008E+02 0.  0.
         12    1    1    2    0    0  0.15223977920E+02  0.16648724362E+02 -0.22533773955E+02  0.31886054871E+02  0.00000000000E+00 0. -1.
         11    1    3    3    0    0 -0.75974908750E+01 -0.18203665113E+02 -0.57864553326E+01  0.20556710747E+02  0.51100000000E-03 0. -1.
        -11    1    3    3    0    0 -0.39386112600E+01 -0.32736891426E+01  0.31482050957E+02  0.31895912465E+02  0.51100000000E-03 0.  1.
         12    1    3    3    0    0 -0.36878757850E+01  0.48286298933E+01 -0.31618216698E+01  0.68493219171E+01  0.00000000000E+00 0. -1.
</event>
<event>
 7    1  0.7755875E-012  0.5930192E+02  0.7816164E-02  0.1266605E+00
        -11   -1    0    0    0    0  0.00000000000E+00  0.00000000000E+00  0.45593999997E+02  0.45594000000E+02  0.51100000000E-03 0.  1.
         11   -1    0    0    0    0 -0.00000000000E+00 -0.00000000000E+00 -0.45593999997E+02  0.45594000000E+02  0.51100000000E-03 0. -1.
    9900012    2    1    2    0    0  0.25426129658E+02 -0.14893748264E+02  0.12182377032E+02  0.59301919699E+02  0.49999955631E+02 0.  0.
         12    1    1    2    0    0 -0.25426129658E+02  0.14893748264E+02 -0.12182377032E+02  0.31886080301E+02  0.00000000000E+00 0. -1.
         11    1    3    3    0    0  0.12726704995E+02  0.95369367242E+01 -0.13380390133E+01  0.15959715874E+02  0.51100000000E-03 0. -1.
        -11    1    3    3    0    0  0.13476612455E+02 -0.12494586137E+02  0.22010536171E+02  0.28673985924E+02  0.51100000000E-03 0.  1.
        -12    1    3    3    0    0 -0.77718779094E+00 -0.11936098851E+02 -0.84901201255E+01  0.14668217901E+02  0.00000000000E+00 0.  1.
</event>
<event>
 7    1  0.7755875E-012  0.5930193E+02  0.7816164E-02  0.1266605E+00
        -11   -1    0    0    0    0  0.00000000000E+00  0.00000000000E+00  0.45593999997E+02  0.45594000000E+02  0.51100000000E-03 0. -1.
         11   -1    0    0    0    0 -0.00000000000E+00 -0.00000000000E+00 -0.45593999997E+02  0.45594000000E+02  0.51100000000E-03 0.  1.
    9900012    2    1    2    0    0  0.24733748336E+02  0.19812856302E+02  0.35232958246E+01  0.59301934155E+02  0.49999981995E+02 0.  0.
         12    1    1    2    0    0 -0.24733748336E+02 -0.19812856302E+02 -0.35232958246E+01  0.31886065845E+02  0.00000000000E+00 0. -1.
         11    1    3    3    0    0  0.17946783365E+02 -0.14068754430E+02  0.55892688905E+01  0.23478858817E+02  0.51100000000E-03 0. -1.
        -11    1    3    3    0    0  0.67476704061E+01  0.16468443020E+02  0.20936535602E+01  0.17919934623E+02  0.51100000000E-03 0.  1.
         12    1    3    3    0    0  0.39294565125E-01  0.17413167712E+02 -0.41596266261E+01  0.17903140716E+02  0.00000000000E+00 0. -1.
</event>
<event>
 7    1  0.7755875E-012  0.5930194E+02  0.7816164E-02  0.1266605E+00
        -11   -1    0    0    0    0  0.00000000000E+00  0.00000000000E+00  0.45593999997E+02  0.45594000000E+02  0.51100000000E-03 0.  1.
         11   -1    0    0    0    0 -0.00000000000E+00 -0.00000000000E+00 -0.45593999997E+02  0.45594000000E+02  0.51100000000E-03 0. -1.
    9900012    2    1    2    0    0  0.86654192413E+00 -0.25935803218E+02  0.18528458521E+02  0.59301944135E+02  0.50000000196E+02 0.  0.
         12    1    1    2    0    0 -0.86654192413E+00  0.25935803218E+02 -0.18528458521E+02  0.31886055865E+02  0.00000000000E+00 0. -1.
         11    1    3    3    0    0 -0.16853806638E+02 -0.35874932113E+01  0.18817414883E+02  0.25515015361E+02  0.51100000000E-03 0. -1.
        -11    1    3    3    0    0  0.62854825880E+01 -0.19680440770E+02 -0.47968859617E+01  0.21209364806E+02  0.51100000000E-03 0.  1.
         12    1    3    3    0    0  0.11434865974E+02 -0.26678692360E+01  0.45079295994E+01  0.12577563968E+02  0.00000000000E+00 0. -1.
</event>
<event>
 7    1  0.7755875E-012  0.5930195E+02  0.7816164E-02  0.1266605E+00
        -11   -1    0    0    0    0  0.00000000000E+00  0.00000000000E+00  0.45593999997E+02  0.45594000000E+02  0.51100000000E-03 0.  1.
         11   -1    0    0    0    0 -0.00000000000E+00 -0.00000000000E+00 -0.45593999997E+02  0.45594000000E+02  0.51100000000E-03 0. -1.
    9900012    2    1    2    0    0 -0.67901581769E+01  0.86923508125E+01  0.29917503422E+02  0.59301949418E+02  0.50000009831E+02 0.  0.
         12    1    1    2    0    0  0.67901581769E+01 -0.86923508125E+01 -0.29917503422E+02  0.31886050582E+02  0.00000000000E+00 0. -1.
         11    1    3    3    0    0 -0.21683542513E+02 -0.26642892796E+01  0.22676515344E+02  0.31488073960E+02  0.51100000000E-03 0. -1.
        -11    1    3    3    0    0  0.10137931626E+02  0.73748624814E+01  0.13896922246E+02  0.18716054671E+02  0.51100000000E-03 0.  1.
         12    1    3    3    0    0  0.47554527102E+01  0.39817776107E+01 -0.66559341689E+01  0.90978207874E+01  0.00000000000E+00 0. -1.
</event>
<event>
 7    1  0.7755875E-012  0.5930193E+02  0.7816164E-02  0.1266605E+00
        -11   -1    0    0    0    0  0.00000000000E+00  0.00000000000E+00  0.45593999997E+02  0.45594000000E+02  0.51100000000E-03 0. -1.
         11   -1    0    0    0    0 -0.00000000000E+00 -0.00000000000E+00 -0.45593999997E+02  0.45594000000E+02  0.51100000000E-03 0.  1.
    9900012    2    1    2    0    0 -0.17377619199E+02 -0.71426542715E+01 -0.25762805331E+02  0.59301932548E+02  0.49999979063E+02 0.  0.
         12    1    1    2    0    0  0.17377619199E+02  0.71426542715E+01  0.25762805331E+02  0.31886067452E+02  0.00000000000E+00 0. -1.
         11    1    3    3    0    0  0.24900566709E+01 -0.16908968710E+02 -0.52251253792E+01  0.17872200216E+02  0.51100000000E-03 0. -1.
        -11    1    3    3    0    0 -0.66957407928E+01  0.12794080316E+02 -0.23510660115E+02  0.27591168428E+02  0.51100000000E-03 0.  1.
         12    1    3    3    0    0 -0.13171935077E+02 -0.30277658774E+01  0.29729801634E+01  0.13838563904E+02  0.00000000000E+00 0. -1.
</event>
<event>
 7    1  0.7755875E-012  0.5930194E+02  0.7816164E-02  0.1266605E+00
        -11   -1    0    0    0    0  0.00000000000E+00  0.00000000000E+00  0.45593999997E+02  0.45594000000E+02  0.51100000000E-03 0.  1.
         11   -1    0    0    0    0 -0.00000000000E+00 -0.00000000000E+00 -0.45593999997E+02  0.45594000000E+02  0.51100000000E-03 0. -1.
    9900012    2    1    2    0    0 -0.13642330837E+02 -0.42218995440E+01  0.28509351797E+02  0.59301940879E+02  0.49999994257E+02 0.  0.
         12    1    1    2    0    0  0.13642330837E+02  0.42218995440E+01 -0.28509351797E+02  0.31886059121E+02  0.00000000000E+00 0. -1.
         11    1    3    3    0    0 -0.32791975606E+01  0.52372745296E+01 -0.12541119046E+02  0.13980767086E+02  0.51100000000E-03 0. -1.
        -11    1    3    3    0    0 -0.55993089562E+01 -0.12108925200E+02  0.24509044136E+02  0.27904687330E+02  0.51100000000E-03 0.  1.
         12    1    3    3    0    0 -0.47638243204E+01  0.26497511261E+01  0.16541426707E+02  0.17416486462E+02  0.00000000000E+00 0. -1.
</event>
<event>
 7    1  0.7755875E-012  0.5930193E+02  0.7816164E-02  0.1266605E+00
        -11   -1    0    0    0    0  0.00000000000E+00  0.00000000000E+00  0.45593999997E+02  0.45594000000E+02  0.51100000000E-03 0.  1.
         11   -1    0    0    0    0 -0.00000000000E+00 -0.00000000000E+00 -0.45593999997E+02  0.45594000000E+02  0.51100000000E-03 0. -1.
    9900012    2    1    2    0    0 -0.78613651313E+01 -0.14684342441E+02  0.27189891496E+02  0.59301934482E+02  0.49999982590E+02 0.  0.
         12    1    1    2    0    0  0.78613651313E+01  0.14684342441E+02 -0.27189891496E+02  0.31886065518E+02  0.00000000000E+00 0. -1.
         11    1    3    3    0    0 -0.23555918416E+02 -0.12322949819E+02  0.17772825551E+00  0.26585108092E+02  0.51100000000E-03 0. -1.
        -11    1    3    3    0    0  0.86755651961E+01 -0.59958833124E+01  0.14934945183E+02  0.18283014961E+02  0.51100000000E-03 0.  1.
         12    1    3    3    0    0  0.70189880882E+01  0.36344906905E+01  0.12077218058E+02  0.14433811429E+02  0.00000000000E+00 0. -1.
</event>
<event>
 7    1  0.7755875E-012  0.5930188E+02  0.7816164E-02  0.1266605E+00
        -11   -1    0    0    0    0  0.00000000000E+00  0.00000000000E+00  0.45593999997E+02  0.45594000000E+02  0.51100000000E-03 0.  1.
         11   -1    0    0    0    0 -0.00000000000E+00 -0.00000000000E+00 -0.45593999997E+02  0.45594000000E+02  0.51100000000E-03 0. -1.
    9900012    2    1    2    0    0  0.24038800714E+02  0.20900191960E+02 -0.14291376917E+01  0.59301883927E+02  0.49999890390E+02 0.  0.
         12    1    1    2    0    0 -0.24038800714E+02 -0.20900191960E+02  0.14291376917E+01  0.31886116073E+02  0.00000000000E+00 0. -1.
         11    1    3    3    0    0  0.16405837776E+02  0.22434791826E+02 -0.11688826577E+02  0.30151286281E+02  0.51100000000E-03 0. -1.
        -11    1    3    3    0    0  0.14531819592E+01 -0.12920625757E+02  0.64586811074E+00  0.13018120203E+02  0.51100000000E-03 0.  1.
         12    1    3    3    0    0  0.61797809785E+01  0.11386025891E+02  0.96138207749E+01  0.16132477442E+02  0.00000000000E+00 0. -1.
</event>
<event>
 7    1  0.7755875E-012  0.5930193E+02  0.7816164E-02  0.1266605E+00
        -11   -1    0    0    0    0  0.00000000000E+00  0.00000000000E+00  0.45593999997E+02  0.45594000000E+02  0.51100000000E-03 0. -1.
         11   -1    0    0    0    0 -0.00000000000E+00 -0.00000000000E+00 -0.45593999997E+02  0.45594000000E+02  0.51100000000E-03 0.  1.
    9900012    2    1    2    0    0  0.26131750737E+02 -0.17773880952E+02  0.42357967433E+01  0.59301933846E+02  0.49999981431E+02 0.  0.
         12    1    1    2    0    0 -0.26131750737E+02  0.17773880952E+02 -0.42357967433E+01  0.31886066154E+02  0.00000000000E+00 0. -1.
         11    1    3    3    0    0  0.14774109571E+02 -0.15538869868E+02  0.22327506497E+02  0.30955586523E+02  0.51100000000E-03 0. -1.
        -11    1    3    3    0    0 -0.29237400221E+01  0.25934775942E+01 -0.11024004654E+02  0.11696284052E+02  0.51100000000E-03 0.  1.
         12    1    3    3    0    0  0.14281381188E+02 -0.48284886789E+01 -0.70677050995E+01  0.16650063271E+02  0.00000000000E+00 0. -1.
</event>
<event>
 7    1  0.7755875E-012  0.5930186E+02  0.7816164E-02  0.1266605E+00
        -11   -1    0    0    0    0  0.00000000000E+00  0.00000000000E+00  0.45593999997E+02  0.45594000000E+02  0.51100000000E-03 0.  1.
         11   -1    0    0    0    0 -0.00000000000E+00 -0.00000000000E+00 -0.45593999997E+02  0.45594000000E+02  0.51100000000E-03 0. -1.
    9900012    2    1    2    0    0  0.60778113493E+01  0.24351655932E+02  0.19666800103E+02  0.59301859379E+02  0.49999845620E+02 0.  0.
         12    1    1    2    0    0 -0.60778113493E+01 -0.24351655932E+02 -0.19666800103E+02  0.31886140621E+02  0.00000000000E+00 0. -1.
         11    1    3    3    0    0 -0.12479686154E+02 -0.60655664246E+00 -0.58763996988E+01  0.13807336859E+02  0.51100000000E-03 0. -1.
        -11    1    3    3    0    0  0.69962596217E+01  0.53932716016E+01  0.20347928288E+02  0.22182723303E+02  0.51100000000E-03 0.  1.
         12    1    3    3    0    0  0.11561237881E+02  0.19564940973E+02  0.51952715137E+01  0.23311799217E+02  0.00000000000E+00 0. -1.
</event>
<event>
 7    1  0.7755875E-012  0.5930194E+02  0.7816164E-02  0.1266605E+00
        -11   -1    0    0    0    0  0.00000000000E+00  0.00000000000E+00  0.45593999997E+02  0.45594000000E+02  0.51100000000E-03 0. -1.
         11   -1    0    0    0    0 -0.00000000000E+00 -0.00000000000E+00 -0.45593999997E+02  0.45594000000E+02  0.51100000000E-03 0.  1.
    9900012    2    1    2    0    0  0.14750565453E+02  0.23781844468E+02  0.15282855242E+02  0.59301937655E+02  0.49999988378E+02 0.  0.
         12    1    1    2    0    0 -0.14750565453E+02 -0.23781844468E+02 -0.15282855242E+02  0.31886062345E+02  0.00000000000E+00 0. -1.
         11    1    3    3    0    0  0.20067342713E+01  0.13489975768E+02  0.28297582778E+02  0.31412730222E+02  0.51100000000E-03 0. -1.
        -11    1    3    3    0    0  0.16249801646E+02  0.11585783613E+02 -0.13537997296E+02  0.24115634068E+02  0.51100000000E-03 0.  1.
         12    1    3    3    0    0 -0.35059704645E+01 -0.12939149123E+01  0.52326976014E+00  0.37735733649E+01  0.00000000000E+00 0. -1.
</event>
<event>
 7    1  0.7755875E-012  0.5930194E+02  0.7816164E-02  0.1266605E+00
        -11   -1    0    0    0    0  0.00000000000E+00  0.00000000000E+00  0.45593999997E+02  0.45594000000E+02  0.51100000000E-03 0.  1.
         11   -1    0    0    0    0 -0.00000000000E+00 -0.00000000000E+00 -0.45593999997E+02  0.45594000000E+02  0.51100000000E-03 0. -1.
    9900012    2    1    2    0    0 -0.29648472522E+02 -0.28203412999E+01  0.11390102827E+02  0.59301942070E+02  0.49999996429E+02 0.  0.
         12    1    1    2    0    0  0.29648472522E+02  0.28203412999E+01 -0.11390102827E+02  0.31886057930E+02  0.00000000000E+00 0. -1.
         11    1    3    3    0    0  0.70290883434E+00  0.10637638167E+01  0.48650871932E+01  0.50293884266E+01  0.51100000000E-03 0. -1.
        -11    1    3    3    0    0 -0.32600210216E+02 -0.10076213081E+02 -0.10757132818E+02  0.35777362716E+02  0.51100000000E-03 0.  1.
        -12    1    3    3    0    0  0.22488288599E+01  0.61921079647E+01  0.17282148452E+02  0.18495190927E+02  0.00000000000E+00 0.  1.
</event>
<event>
 7    1  0.7755875E-012  0.5930198E+02  0.7816164E-02  0.1266605E+00
        -11   -1    0    0    0    0  0.00000000000E+00  0.00000000000E+00  0.45593999997E+02  0.45594000000E+02  0.51100000000E-03 0.  1.
         11   -1    0    0    0    0 -0.00000000000E+00 -0.00000000000E+00 -0.45593999997E+02  0.45594000000E+02  0.51100000000E-03 0. -1.
    9900012    2    1    2    0    0  0.27810422453E+02  0.10086611190E+02  0.11897860662E+02  0.59301977817E+02  0.50000061624E+02 0.  0.
         12    1    1    2    0    0 -0.27810422453E+02 -0.10086611190E+02 -0.11897860662E+02  0.31886022183E+02  0.00000000000E+00 0. -1.
         11    1    3    3    0    0  0.18654506578E+02  0.43907377109E+01 -0.68969368592E+01  0.20367546038E+02  0.51100000000E-03 0. -1.
        -11    1    3    3    0    0  0.17089446758E+01 -0.92740147840E+01  0.20060751748E+02  0.22166677763E+02  0.51100000000E-03 0.  1.
        -12    1    3    3    0    0  0.74469711995E+01  0.14969888263E+02 -0.12659542265E+01  0.16767754016E+02  0.00000000000E+00 0.  1.
</event>
<event>
 7    1  0.7755875E-012  0.5930194E+02  0.7816164E-02  0.1266605E+00
        -11   -1    0    0    0    0  0.00000000000E+00  0.00000000000E+00  0.45593999997E+02  0.45594000000E+02  0.51100000000E-03 0. -1.
         11   -1    0    0    0    0 -0.00000000000E+00 -0.00000000000E+00 -0.45593999997E+02  0.45594000000E+02  0.51100000000E-03 0.  1.
    9900012    2    1    2    0    0 -0.27093076986E+02 -0.16332458903E+02  0.39921137055E+01  0.59301937116E+02  0.49999987394E+02 0.  0.
         12    1    1    2    0    0  0.27093076986E+02  0.16332458903E+02 -0.39921137055E+01  0.31886062884E+02  0.00000000000E+00 0. -1.
         11    1    3    3    0    0 -0.23113951548E+01 -0.16443288588E+02  0.14502521796E+02  0.22046483299E+02  0.51100000000E-03 0. -1.
        -11    1    3    3    0    0 -0.10531587430E+02  0.47342015894E+01 -0.17306368605E+02  0.20804744484E+02  0.51100000000E-03 0.  1.
        -12    1    3    3    0    0 -0.14250094402E+02 -0.46233719046E+01  0.67959605153E+01  0.16450709333E+02  0.00000000000E+00 0.  1.
</event>
<event>
 7    1  0.7755875E-012  0.5930194E+02  0.7816164E-02  0.1266605E+00
        -11   -1    0    0    0    0  0.00000000000E+00  0.00000000000E+00  0.45593999997E+02  0.45594000000E+02  0.51100000000E-03 0. -1.
         11   -1    0    0    0    0 -0.00000000000E+00 -0.00000000000E+00 -0.45593999997E+02  0.45594000000E+02  0.51100000000E-03 0.  1.
    9900012    2    1    2    0    0 -0.94471058098E+01 -0.22791032407E+02 -0.20200039124E+02  0.59301944318E+02  0.50000000530E+02 0.  0.
         12    1    1    2    0    0  0.94471058098E+01  0.22791032407E+02  0.20200039124E+02  0.31886055682E+02  0.00000000000E+00 0. -1.
         11    1    3    3    0    0  0.97150544066E+01 -0.11229395898E+02  0.29764756593E+01  0.15144009441E+02  0.51100000000E-03 0. -1.
        -11    1    3    3    0    0 -0.14844177248E+02 -0.21671898631E+02 -0.13610109434E+02  0.29584723550E+02  0.51100000000E-03 0.  1.
         12    1    3    3    0    0 -0.43179829686E+01  0.10110262122E+02 -0.95664053486E+01  0.14573211327E+02  0.00000000000E+00 0. -1.
</event>
<event>
 7    1  0.7755875E-012  0.5930195E+02  0.7816164E-02  0.1266605E+00
        -11   -1    0    0    0    0  0.00000000000E+00  0.00000000000E+00  0.45593999997E+02  0.45594000000E+02  0.51100000000E-03 0.  1.
         11   -1    0    0    0    0 -0.00000000000E+00 -0.00000000000E+00 -0.45593999997E+02  0.45594000000E+02  0.51100000000E-03 0. -1.
    9900012    2    1    2    0    0  0.17388052999E+02 -0.13807710502E+02  0.22884994430E+02  0.59301949344E+02  0.50000009695E+02 0.  0.
         12    1    1    2    0    0 -0.17388052999E+02  0.13807710502E+02 -0.22884994430E+02  0.31886050656E+02  0.00000000000E+00 0. -1.
         11    1    3    3    0    0  0.21228761154E+02  0.53113918781E+01  0.91162970683E+01  0.23706076359E+02  0.51100000000E-03 0. -1.
        -11    1    3    3    0    0 -0.54618217497E+01  0.47984377304E+01  0.82502074692E+01  0.10996473299E+02  0.51100000000E-03 0.  1.
         12    1    3    3    0    0  0.16211135942E+01 -0.23917540110E+02  0.55184898928E+01  0.24599399686E+02  0.00000000000E+00 0. -1.
</event>
<event>
 7    1  0.7755875E-012  0.5930194E+02  0.7816164E-02  0.1266605E+00
        -11   -1    0    0    0    0  0.00000000000E+00  0.00000000000E+00  0.45593999997E+02  0.45594000000E+02  0.51100000000E-03 0. -1.
         11   -1    0    0    0    0 -0.00000000000E+00 -0.00000000000E+00 -0.45593999997E+02  0.45594000000E+02  0.51100000000E-03 0.  1.
    9900012    2    1    2    0    0 -0.18705756054E+02  0.22090102938E+02 -0.13373226074E+02  0.59301935129E+02  0.49999983770E+02 0.  0.
         12    1    1    2    0    0  0.18705756054E+02 -0.22090102938E+02  0.13373226074E+02  0.31886064871E+02  0.00000000000E+00 0. -1.
         11    1    3    3    0    0  0.87580685864E+01  0.17280770087E+02 -0.13837096777E+02  0.23807436394E+02  0.51100000000E-03 0. -1.
        -11    1    3    3    0    0 -0.10207309584E+02  0.10505526793E+02 -0.65109714742E+01  0.16029597997E+02  0.51100000000E-03 0.  1.
         12    1    3    3    0    0 -0.17256515057E+02 -0.56961939422E+01  0.69748421777E+01  0.19464900738E+02  0.00000000000E+00 0. -1.
</event>
<event>
 7    1  0.7755875E-012  0.5930196E+02  0.7816164E-02  0.1266605E+00
        -11   -1    0    0    0    0  0.00000000000E+00  0.00000000000E+00  0.45593999997E+02  0.45594000000E+02  0.51100000000E-03 0.  1.
         11   -1    0    0    0    0 -0.00000000000E+00 -0.00000000000E+00 -0.45593999997E+02  0.45594000000E+02  0.51100000000E-03 0. -1.
    9900012    2    1    2    0    0  0.98369854527E+01  0.13213372499E+02  0.27301280619E+02  0.59301962005E+02  0.50000032786E+02 0.  0.
         12    1    1    2    0    0 -0.98369854527E+01 -0.13213372499E+02 -0.27301280619E+02  0.31886037995E+02  0.00000000000E+00 0. -1.
         11    1    3    3    0    0  0.23208563365E+00  0.98647144596E+01 -0.13096361199E+02  0.16397595313E+02  0.51100000000E-03 0. -1.
        -11    1    3    3    0    0  0.32582201215E+00 -0.25487833249E+01  0.15154574408E+02  0.15370867970E+02  0.51100000000E-03 0.  1.
         12    1    3    3    0    0  0.92790778069E+01  0.58974413641E+01  0.25243067410E+02  0.27533498722E+02  0.00000000000E+00 0. -1.
</event>
<event>
 7    1  0.7755875E-012  0.5930194E+02  0.7816164E-02  0.1266605E+00
        -11   -1    0    0    0    0  0.00000000000E+00  0.00000000000E+00  0.45593999997E+02  0.45594000000E+02  0.51100000000E-03 0.  1.
         11   -1    0    0    0    0 -0.00000000000E+00 -0.00000000000E+00 -0.45593999997E+02  0.45594000000E+02  0.51100000000E-03 0. -1.
    9900012    2    1    2    0    0 -0.13902502517E+02  0.28056350048E+02  0.60235005291E+01  0.59301938580E+02  0.49999990065E+02 0.  0.
         12    1    1    2    0    0  0.13902502517E+02 -0.28056350048E+02 -0.60235005291E+01  0.31886061420E+02  0.00000000000E+00 0. -1.
         11    1    3    3    0    0  0.10122959139E+02 -0.49881347819E+01  0.46870353292E+01  0.12219823680E+02  0.51100000000E-03 0. -1.
        -11    1    3    3    0    0 -0.15279446102E+02  0.40103492324E+01  0.49268835561E+01  0.16547463733E+02  0.51100000000E-03 0.  1.
         12    1    3    3    0    0 -0.87460155534E+01  0.29034135598E+02 -0.35904183563E+01  0.30534651168E+02  0.00000000000E+00 0. -1.
</event>
<event>
 7    1  0.7755875E-012  0.5930196E+02  0.7816164E-02  0.1266605E+00
        -11   -1    0    0    0    0  0.00000000000E+00  0.00000000000E+00  0.45593999997E+02  0.45594000000E+02  0.51100000000E-03 0.  1.
         11   -1    0    0    0    0 -0.00000000000E+00 -0.00000000000E+00 -0.45593999997E+02  0.45594000000E+02  0.51100000000E-03 0. -1.
    9900012    2    1    2    0    0  0.26858279330E+01  0.10286086989E+02  0.30061644715E+02  0.59301956969E+02  0.50000023602E+02 0.  0.
         12    1    1    2    0    0 -0.26858279330E+01 -0.10286086989E+02 -0.30061644715E+02  0.31886043031E+02  0.00000000000E+00 0. -1.
         11    1    3    3    0    0  0.26975918564E+01 -0.54534334358E+01  0.11381830693E+01  0.61897010447E+01  0.51100000000E-03 0. -1.
        -11    1    3    3    0    0 -0.28924378995E+00  0.23439012524E+02  0.27135715850E+00  0.23442367735E+02  0.51100000000E-03 0.  1.
        -12    1    3    3    0    0  0.27747986660E+00 -0.76994920992E+01  0.28652104487E+02  0.29669888190E+02  0.00000000000E+00 0.  1.
</event>
<event>
 7    1  0.7755875E-012  0.5930172E+02  0.7816164E-02  0.1266606E+00
        -11   -1    0    0    0    0  0.00000000000E+00  0.00000000000E+00  0.45593999997E+02  0.45594000000E+02  0.51100000000E-03 0.  1.
         11   -1    0    0    0    0 -0.00000000000E+00 -0.00000000000E+00 -0.45593999997E+02  0.45594000000E+02  0.51100000000E-03 0. -1.
    9900012    2    1    2    0    0 -0.25274076024E+02  0.30200547254E+01  0.19205086618E+02  0.59301717661E+02  0.49999587160E+02 0.  0.
         12    1    1    2    0    0  0.25274076024E+02 -0.30200547254E+01 -0.19205086618E+02  0.31886282339E+02  0.00000000000E+00 0. -1.
         11    1    3    3    0    0 -0.15309788516E+02  0.15126170940E+02  0.46839965324E+01  0.22025678094E+02  0.51100000000E-03 0.  1.
        -11    1    3    3    0    0  0.90259408805E+01 -0.88001431054E+01  0.12732780060E+02  0.17917416548E+02  0.51100000000E-03 0. -1.
         12    1    3    3    0    0 -0.18990228388E+02 -0.33059731097E+01  0.17883100260E+01  0.19358623019E+02  0.00000000000E+00 0. -1.
</event>
<event>
 7    1  0.7755875E-012  0.5930195E+02  0.7816164E-02  0.1266605E+00
        -11   -1    0    0    0    0  0.00000000000E+00  0.00000000000E+00  0.45593999997E+02  0.45594000000E+02  0.51100000000E-03 0.  1.
         11   -1    0    0    0    0 -0.00000000000E+00 -0.00000000000E+00 -0.45593999997E+02  0.45594000000E+02  0.51100000000E-03 0. -1.
    9900012    2    1    2    0    0 -0.30822347332E+02 -0.35817812774E+01 -0.73398850519E+01  0.59301950311E+02  0.50000011460E+02 0.  0.
         12    1    1    2    0    0  0.30822347332E+02  0.35817812774E+01  0.73398850519E+01  0.31886049689E+02  0.00000000000E+00 0. -1.
         11    1    3    3    0    0  0.99866770710E+00 -0.14806910799E+01 -0.18595222029E+02  0.18680794037E+02  0.51100000000E-03 0. -1.
        -11    1    3    3    0    0 -0.35367460279E+02 -0.17891417161E+01  0.95745341846E+01  0.36684192505E+02  0.51100000000E-03 0.  1.
        -12    1    3    3    0    0  0.35464452396E+01 -0.31194848143E+00  0.16808027927E+01  0.39369637693E+01  0.00000000000E+00 0.  1.
</event>
<event>
 7    1  0.7755875E-012  0.5930193E+02  0.7816164E-02  0.1266605E+00
        -11   -1    0    0    0    0  0.00000000000E+00  0.00000000000E+00  0.45593999997E+02  0.45594000000E+02  0.51100000000E-03 0.  1.
         11   -1    0    0    0    0 -0.00000000000E+00 -0.00000000000E+00 -0.45593999997E+02  0.45594000000E+02  0.51100000000E-03 0. -1.
    9900012    2    1    2    0    0 -0.99000522447E+01  0.36121102803E+01  0.30094234850E+02  0.59301931783E+02  0.49999977669E+02 0.  0.
         12    1    1    2    0    0  0.99000522447E+01 -0.36121102803E+01 -0.30094234850E+02  0.31886068217E+02  0.00000000000E+00 0. -1.
         11    1    3    3    0    0 -0.16808129951E+02 -0.10824787515E+02 -0.85674584964E+00  0.20010578975E+02  0.51100000000E-03 0. -1.
        -11    1    3    3    0    0 -0.42137366162E+01  0.83083479762E+01  0.21593926848E+02  0.23517693325E+02  0.51100000000E-03 0.  1.
         12    1    3    3    0    0  0.11121814323E+02  0.61285498192E+01  0.93570538512E+01  0.15773659483E+02  0.00000000000E+00 0. -1.
</event>
<event>
 7    1  0.7755875E-012  0.5930194E+02  0.7816164E-02  0.1266605E+00
        -11   -1    0    0    0    0  0.00000000000E+00  0.00000000000E+00  0.45593999997E+02  0.45594000000E+02  0.51100000000E-03 0.  1.
         11   -1    0    0    0    0 -0.00000000000E+00 -0.00000000000E+00 -0.45593999997E+02  0.45594000000E+02  0.51100000000E-03 0. -1.
    9900012    2    1    2    0    0 -0.20216534067E+01  0.30432693886E+02  0.92997392554E+01  0.59301935805E+02  0.49999985003E+02 0.  0.
         12    1    1    2    0    0  0.20216534067E+01 -0.30432693886E+02 -0.92997392554E+01  0.31886064195E+02  0.00000000000E+00 0. -1.
         11    1    3    3    0    0 -0.22343302137E+02  0.22732189969E+02  0.10012795731E+02  0.33410053723E+02  0.51100000000E-03 0. -1.
        -11    1    3    3    0    0  0.15787358814E+02  0.10938322947E+02  0.26431553835E+01  0.19387467031E+02  0.51100000000E-03 0.  1.
         12    1    3    3    0    0  0.45342899163E+01 -0.32378190299E+01 -0.33562118587E+01  0.65044150510E+01  0.00000000000E+00 0. -1.
</event>
<event>
 7    1  0.7755875E-012  0.5930197E+02  0.7816164E-02  0.1266605E+00
        -11   -1    0    0    0    0  0.00000000000E+00  0.00000000000E+00  0.45593999997E+02  0.45594000000E+02  0.51100000000E-03 0. -1.
         11   -1    0    0    0    0 -0.00000000000E+00 -0.00000000000E+00 -0.45593999997E+02  0.45594000000E+02  0.51100000000E-03 0.  1.
    9900012    2    1    2    0    0 -0.17418600587E+02  0.83145326304E+01 -0.25380691740E+02  0.59301974652E+02  0.50000055851E+02 0.  0.
         12    1    1    2    0    0  0.17418600587E+02 -0.83145326304E+01  0.25380691740E+02  0.31886025348E+02  0.00000000000E+00 0. -1.
         11    1    3    3    0    0  0.11679392055E+02 -0.10231342651E+02 -0.16935152678E+02  0.22975812667E+02  0.51100000000E-03 0. -1.
        -11    1    3    3    0    0 -0.15415485700E+02  0.13971907600E+02 -0.63187078783E+01  0.21743446619E+02  0.51100000000E-03 0.  1.
         12    1    3    3    0    0 -0.13682506942E+02  0.45739676813E+01 -0.21268311837E+01  0.14582715366E+02  0.00000000000E+00 0. -1.
</event>
<event>
 7    1  0.7755875E-012  0.5930188E+02  0.7816164E-02  0.1266605E+00
        -11   -1    0    0    0    0  0.00000000000E+00  0.00000000000E+00  0.45593999997E+02  0.45594000000E+02  0.51100000000E-03 0.  1.
         11   -1    0    0    0    0 -0.00000000000E+00 -0.00000000000E+00 -0.45593999997E+02  0.45594000000E+02  0.51100000000E-03 0. -1.
    9900012    2    1    2    0    0  0.17633476887E+02  0.26143087830E+02  0.47248443598E+01  0.59301879153E+02  0.49999881685E+02 0.  0.
         12    1    1    2    0    0 -0.17633476887E+02 -0.26143087830E+02 -0.47248443598E+01  0.31886120847E+02  0.00000000000E+00 0. -1.
         11    1    3    3    0    0  0.13458935388E+02  0.12787364155E+02  0.11078745560E+02  0.21619394701E+02  0.51100000000E-03 0.  1.
        -11    1    3    3    0    0 -0.12737125765E+02 -0.80848527659E+00  0.39150972078E+01  0.13349756837E+02  0.51100000000E-03 0. -1.
         12    1    3    3    0    0  0.16911667264E+02  0.14164208952E+02 -0.10268998408E+02  0.24332727615E+02  0.00000000000E+00 0. -1.
</event>
<event>
 7    1  0.7755875E-012  0.5930196E+02  0.7816164E-02  0.1266605E+00
        -11   -1    0    0    0    0  0.00000000000E+00  0.00000000000E+00  0.45593999997E+02  0.45594000000E+02  0.51100000000E-03 0.  1.
         11   -1    0    0    0    0 -0.00000000000E+00 -0.00000000000E+00 -0.45593999997E+02  0.45594000000E+02  0.51100000000E-03 0. -1.
    9900012    2    1    2    0    0  0.64849719904E+01 -0.20416844818E+02  0.23618157980E+02  0.59301956024E+02  0.50000021879E+02 0.  0.
         12    1    1    2    0    0 -0.64849719904E+01  0.20416844818E+02 -0.23618157980E+02  0.31886043976E+02  0.00000000000E+00 0. -1.
         11    1    3    3    0    0  0.16271462410E+01  0.12025824321E+02  0.55184396084E+01  0.13331212677E+02  0.51100000000E-03 0. -1.
        -11    1    3    3    0    0  0.77586321294E+01 -0.13133815699E+02  0.21285382887E+02  0.26187039013E+02  0.51100000000E-03 0.  1.
         12    1    3    3    0    0 -0.29008063800E+01 -0.19308853439E+02 -0.31856645147E+01  0.19783704334E+02  0.00000000000E+00 0. -1.
</event>
<event>
 7    1  0.7755875E-012  0.5930196E+02  0.7816164E-02  0.1266605E+00
        -11   -1    0    0    0    0  0.00000000000E+00  0.00000000000E+00  0.45593999997E+02  0.45594000000E+02  0.51100000000E-03 0.  1.
         11   -1    0    0    0    0 -0.00000000000E+00 -0.00000000000E+00 -0.45593999997E+02  0.45594000000E+02  0.51100000000E-03 0. -1.
    9900012    2    1    2    0    0 -0.15345562839E+02 -0.27937827653E+02  0.84327180761E+00  0.59301958851E+02  0.50000027034E+02 0.  0.
         12    1    1    2    0    0  0.15345562839E+02  0.27937827653E+02 -0.84327180761E+00  0.31886041149E+02  0.00000000000E+00 0. -1.
         11    1    3    3    0    0  0.18217310191E+02 -0.11960433076E+02  0.12702940194E+01  0.21829704467E+02  0.51100000000E-03 0. -1.
        -11    1    3    3    0    0 -0.16718329070E+02 -0.10412803219E+02  0.57257935010E+00  0.19704234193E+02  0.51100000000E-03 0.  1.
         12    1    3    3    0    0 -0.16844543960E+02 -0.55645913588E+01 -0.99960156187E+00  0.17768020190E+02  0.00000000000E+00 0. -1.
</event>
<event>
 7    1  0.7755875E-012  0.5930201E+02  0.7816164E-02  0.1266605E+00
        -11   -1    0    0    0    0  0.00000000000E+00  0.00000000000E+00  0.45593999997E+02  0.45594000000E+02  0.51100000000E-03 0.  1.
         11   -1    0    0    0    0 -0.00000000000E+00 -0.00000000000E+00 -0.45593999997E+02  0.45594000000E+02  0.51100000000E-03 0. -1.
    9900012    2    1    2    0    0  0.11512360391E+02 -0.19510715350E+02  0.22439122143E+02  0.59302005303E+02  0.50000111752E+02 0.  0.
         12    1    1    2    0    0 -0.11512360391E+02  0.19510715350E+02 -0.22439122143E+02  0.31885994697E+02  0.00000000000E+00 0. -1.
         11    1    3    3    0    0  0.17992624572E+01 -0.11637643845E+02 -0.65657747219E+01  0.13482636894E+02  0.51100000000E-03 0. -1.
        -11    1    3    3    0    0  0.14146874739E+02 -0.64838846072E+00  0.33394718178E+02  0.36273429324E+02  0.51100000000E-03 0.  1.
        -12    1    3    3    0    0 -0.44337768051E+01 -0.72246830440E+01 -0.43898213136E+01  0.95459390847E+01  0.00000000000E+00 0.  1.
</event>
<event>
 7    1  0.7755875E-012  0.5930202E+02  0.7816164E-02  0.1266604E+00
        -11   -1    0    0    0    0  0.00000000000E+00  0.00000000000E+00  0.45593999997E+02  0.45594000000E+02  0.51100000000E-03 0. -1.
         11   -1    0    0    0    0 -0.00000000000E+00 -0.00000000000E+00 -0.45593999997E+02  0.45594000000E+02  0.51100000000E-03 0.  1.
    9900012    2    1    2    0    0 -0.26904384413E+02  0.60045973764E+01 -0.16025428894E+02  0.59302024062E+02  0.50000145964E+02 0.  0.
         12    1    1    2    0    0  0.26904384413E+02 -0.60045973764E+01  0.16025428894E+02  0.31885975938E+02  0.00000000000E+00 0. -1.
         11    1    3    3    0    0 -0.24619312184E+02  0.12853813534E+02 -0.20724223600E+02  0.34652914724E+02  0.51100000000E-03 0. -1.
        -11    1    3    3    0    0 -0.37124323978E+01 -0.10314525866E+02 -0.65653006195E+01  0.12777901652E+02  0.51100000000E-03 0.  1.
         12    1    3    3    0    0  0.14273601698E+01  0.34653097088E+01  0.11264095325E+02  0.11871207686E+02  0.00000000000E+00 0. -1.
</event>
<event>
 7    1  0.7755875E-012  0.5930204E+02  0.7816164E-02  0.1266604E+00
        -11   -1    0    0    0    0  0.00000000000E+00  0.00000000000E+00  0.45593999997E+02  0.45594000000E+02  0.51100000000E-03 0. -1.
         11   -1    0    0    0    0 -0.00000000000E+00 -0.00000000000E+00 -0.45593999997E+02  0.45594000000E+02  0.51100000000E-03 0.  1.
    9900012    2    1    2    0    0 -0.24768361607E+02 -0.19701359394E+02  0.38857342691E+01  0.59302043381E+02  0.50000181196E+02 0.  0.
         12    1    1    2    0    0  0.24768361607E+02  0.19701359394E+02 -0.38857342691E+01  0.31885956619E+02  0.00000000000E+00 0. -1.
         11    1    3    3    0    0  0.39793597017E+01  0.55951244983E+01  0.10144560072E+02  0.12249604937E+02  0.51100000000E-03 0. -1.
        -11    1    3    3    0    0 -0.10914902317E+02 -0.25380846498E+02  0.13562648938E+01  0.27661560264E+02  0.51100000000E-03 0.  1.
        -12    1    3    3    0    0 -0.17832818993E+02  0.84362605261E-01 -0.76150906969E+01  0.19390878180E+02  0.00000000000E+00 0.  1.
</event>
<event>
 7    1  0.7755875E-012  0.5930200E+02  0.7816164E-02  0.1266605E+00
        -11   -1    0    0    0    0  0.00000000000E+00  0.00000000000E+00  0.45593999997E+02  0.45594000000E+02  0.51100000000E-03 0.  1.
         11   -1    0    0    0    0 -0.00000000000E+00 -0.00000000000E+00 -0.45593999997E+02  0.45594000000E+02  0.51100000000E-03 0. -1.
    9900012    2    1    2    0    0  0.14818821927E+02  0.43926656817E+01  0.27889491620E+02  0.59302004047E+02  0.50000109461E+02 0.  0.
         12    1    1    2    0    0 -0.14818821927E+02 -0.43926656817E+01 -0.27889491620E+02  0.31885995953E+02  0.00000000000E+00 0. -1.
         11    1    3    3    0    0 -0.22362200161E+01  0.12050564013E+02 -0.88522591161E+01  0.15118838074E+02  0.51100000000E-03 0. -1.
        -11    1    3    3    0    0  0.12595135974E+02  0.10893506814E+01  0.29145173730E+02  0.31768935883E+02  0.51100000000E-03 0.  1.
        -12    1    3    3    0    0  0.44599059687E+01 -0.87472490123E+01  0.75965770053E+01  0.12414230090E+02  0.00000000000E+00 0.  1.
</event>
<event>
 7    1  0.7755875E-012  0.5930188E+02  0.7816164E-02  0.1266605E+00
        -11   -1    0    0    0    0  0.00000000000E+00  0.00000000000E+00  0.45593999997E+02  0.45594000000E+02  0.51100000000E-03 0.  1.
         11   -1    0    0    0    0 -0.00000000000E+00 -0.00000000000E+00 -0.45593999997E+02  0.45594000000E+02  0.51100000000E-03 0. -1.
    9900012    2    1    2    0    0  0.13964117815E+02  0.20981250864E+02  0.19532416326E+02  0.59301878228E+02  0.49999879996E+02 0.  0.
         12    1    1    2    0    0 -0.13964117815E+02 -0.20981250864E+02 -0.19532416326E+02  0.31886121772E+02  0.00000000000E+00 0. -1.
         11    1    3    3    0    0  0.24158081779E+02  0.18363112044E+02  0.30306575999E+02  0.42887123338E+02  0.51100000000E-03 0. -1.
        -11    1    3    3    0    0 -0.40267341534E+01  0.30000311652E+01 -0.84176424348E+01  0.98016059580E+01  0.51100000000E-03 0.  1.
        -12    1    3    3    0    0 -0.61672298106E+01 -0.38189234568E+00 -0.23565172378E+01  0.66131489317E+01  0.00000000000E+00 0.  1.
</event>
<event>
 7    1  0.7755875E-012  0.5930196E+02  0.7816164E-02  0.1266605E+00
        -11   -1    0    0    0    0  0.00000000000E+00  0.00000000000E+00  0.45593999997E+02  0.45594000000E+02  0.51100000000E-03 0. -1.
         11   -1    0    0    0    0 -0.00000000000E+00 -0.00000000000E+00 -0.45593999997E+02  0.45594000000E+02  0.51100000000E-03 0.  1.
    9900012    2    1    2    0    0  0.22828576736E+02 -0.21495231072E+02 -0.57905417516E+01  0.59301964680E+02  0.50000037666E+02 0.  0.
         12    1    1    2    0    0 -0.22828576736E+02  0.21495231072E+02  0.57905417516E+01  0.31886035320E+02  0.00000000000E+00 0. -1.
         11    1    3    3    0    0 -0.11250763407E+02 -0.11098494818E+02 -0.63252050669E+01  0.17022469969E+02  0.51100000000E-03 0. -1.
        -11    1    3    3    0    0  0.11246217146E+02 -0.14827031482E+02 -0.26722041601E+01  0.18800503664E+02  0.51100000000E-03 0.  1.
         12    1    3    3    0    0  0.22833122997E+02  0.44302952279E+01  0.32068674753E+01  0.23478991047E+02  0.00000000000E+00 0. -1.
</event>
<event>
 7    1  0.7755875E-012  0.5930197E+02  0.7816164E-02  0.1266605E+00
        -11   -1    0    0    0    0  0.00000000000E+00  0.00000000000E+00  0.45593999997E+02  0.45594000000E+02  0.51100000000E-03 0.  1.
         11   -1    0    0    0    0 -0.00000000000E+00 -0.00000000000E+00 -0.45593999997E+02  0.45594000000E+02  0.51100000000E-03 0. -1.
    9900012    2    1    2    0    0 -0.12123264586E+02  0.53309887739E+01  0.29005620069E+02  0.59301968872E+02  0.50000045310E+02 0.  0.
         12    1    1    2    0    0  0.12123264586E+02 -0.53309887739E+01 -0.29005620069E+02  0.31886031128E+02  0.00000000000E+00 0. -1.
         11    1    3    3    0    0  0.12549064846E+02  0.12310125533E+01 -0.18131618409E+01  0.12738994330E+02  0.51100000000E-03 0. -1.
        -11    1    3    3    0    0 -0.53713711797E+01  0.34065174380E+01  0.25849480558E+02  0.26620511543E+02  0.51100000000E-03 0.  1.
         12    1    3    3    0    0 -0.19300958252E+02  0.69345878259E+00  0.49693013513E+01  0.19942462999E+02  0.00000000000E+00 0. -1.
</event>
<event>
 7    1  0.7755875E-012  0.5930196E+02  0.7816164E-02  0.1266605E+00
        -11   -1    0    0    0    0  0.00000000000E+00  0.00000000000E+00  0.45593999997E+02  0.45594000000E+02  0.51100000000E-03 0. -1.
         11   -1    0    0    0    0 -0.00000000000E+00 -0.00000000000E+00 -0.45593999997E+02  0.45594000000E+02  0.51100000000E-03 0.  1.
    9900012    2    1    2    0    0 -0.90088069897E+01 -0.29216912480E+02 -0.90516741437E+01  0.59301962569E+02  0.50000033815E+02 0.  0.
         12    1    1    2    0    0  0.90088069897E+01  0.29216912480E+02  0.90516741437E+01  0.31886037431E+02  0.00000000000E+00 0. -1.
         11    1    3    3    0    0  0.61906844190E+00 -0.21400967385E+02  0.97183232591E+01  0.23512346926E+02  0.51100000000E-03 0. -1.
        -11    1    3    3    0    0 -0.23679528653E+01 -0.15703261330E+02 -0.19376092583E+02  0.25052596297E+02  0.51100000000E-03 0.  1.
         12    1    3    3    0    0 -0.72599225663E+01  0.78873162349E+01  0.60609518033E+00  0.10737019346E+02  0.00000000000E+00 0. -1.
</event>
<event>
 7    1  0.7755875E-012  0.5930197E+02  0.7816164E-02  0.1266605E+00
        -11   -1    0    0    0    0  0.00000000000E+00  0.00000000000E+00  0.45593999997E+02  0.45594000000E+02  0.51100000000E-03 0.  1.
         11   -1    0    0    0    0 -0.00000000000E+00 -0.00000000000E+00 -0.45593999997E+02  0.45594000000E+02  0.51100000000E-03 0. -1.
    9900012    2    1    2    0    0 -0.12651271823E+00  0.16556893832E+02  0.27250179204E+02  0.59301968489E+02  0.50000044612E+02 0.  0.
         12    1    1    2    0    0  0.12651271823E+00 -0.16556893832E+02 -0.27250179204E+02  0.31886031511E+02  0.00000000000E+00 0. -1.
         11    1    3    3    0    0  0.56150507743E+01  0.30624739986E+02  0.12888202209E+02  0.33697318155E+02  0.51100000000E-03 0. -1.
        -11    1    3    3    0    0 -0.10394063165E+02 -0.11562283041E+02  0.85259899969E+01  0.17731763699E+02  0.51100000000E-03 0.  1.
         12    1    3    3    0    0  0.46524996723E+01 -0.25055631121E+01  0.58359869991E+01  0.78728866347E+01  0.00000000000E+00 0. -1.
</event>
<event>
 7    1  0.7755875E-012  0.5930195E+02  0.7816164E-02  0.1266605E+00
        -11   -1    0    0    0    0  0.00000000000E+00  0.00000000000E+00  0.45593999997E+02  0.45594000000E+02  0.51100000000E-03 0. -1.
         11   -1    0    0    0    0 -0.00000000000E+00 -0.00000000000E+00 -0.45593999997E+02  0.45594000000E+02  0.51100000000E-03 0.  1.
    9900012    2    1    2    0    0  0.13990691396E+02  0.83738625631E+01 -0.27401806954E+02  0.59301952200E+02  0.50000014904E+02 0.  0.
         12    1    1    2    0    0 -0.13990691396E+02 -0.83738625631E+01  0.27401806954E+02  0.31886047800E+02  0.00000000000E+00 0. -1.
         11    1    3    3    0    0 -0.59563391364E+01 -0.34034923131E+01  0.34682575963E+01  0.76870375860E+01  0.51100000000E-03 0. -1.
        -11    1    3    3    0    0  0.28058828429E+02  0.65728963559E+01 -0.13664487105E+02  0.31893871314E+02  0.51100000000E-03 0.  1.
        -12    1    3    3    0    0 -0.81117978962E+01  0.52044585203E+01 -0.17205577445E+02  0.19721043300E+02  0.00000000000E+00 0.  1.
</event>
<event>
 7    1  0.8582612E-012  0.5930195E+02  0.7816164E-02  0.1266605E+00
        -11   -1    0    0    0    0  0.00000000000E+00  0.00000000000E+00  0.45593999997E+02  0.45594000000E+02  0.51100000000E-03 0. -1.
         11   -1    0    0    0    0 -0.00000000000E+00 -0.00000000000E+00 -0.45593999997E+02  0.45594000000E+02  0.51100000000E-03 0.  1.
    9900012    2    1    2    0    0  0.12209959739E+02 -0.14432129231E+01 -0.29420307973E+02  0.59301945029E+02  0.50000001827E+02 0.  0.
         12    1    1    2    0    0 -0.12209959739E+02  0.14432129231E+01  0.29420307973E+02  0.31886054971E+02  0.00000000000E+00 0. -1.
         11    1    3    3    0    0 -0.38080817738E+01 -0.11343183463E+02  0.41441353240E+01  0.12662667796E+02  0.51100000000E-03 0.  1.
        -11    1    3    3    0    0  0.17937899904E+02  0.51893701550E+00 -0.32340705099E+02  0.36985926447E+02  0.51100000000E-03 0. -1.
         12    1    3    3    0    0 -0.19198583914E+01  0.93810335240E+01 -0.12237381979E+01  0.96533507860E+01  0.00000000000E+00 0. -1.
</event>
<event>
 7    1  0.7755875E-012  0.5930195E+02  0.7816164E-02  0.1266605E+00
        -11   -1    0    0    0    0  0.00000000000E+00  0.00000000000E+00  0.45593999997E+02  0.45594000000E+02  0.51100000000E-03 0. -1.
         11   -1    0    0    0    0 -0.00000000000E+00 -0.00000000000E+00 -0.45593999997E+02  0.45594000000E+02  0.51100000000E-03 0.  1.
    9900012    2    1    2    0    0  0.12078903004E+02  0.28240227875E+02 -0.85621314604E+01  0.59301945629E+02  0.50000002921E+02 0.  0.
         12    1    1    2    0    0 -0.12078903004E+02 -0.28240227875E+02  0.85621314604E+01  0.31886054371E+02  0.00000000000E+00 0. -1.
         11    1    3    3    0    0  0.10121559602E+02 -0.10252993912E+02 -0.11763257139E+02  0.18599571816E+02  0.51100000000E-03 0. -1.
        -11    1    3    3    0    0  0.23145685589E+01  0.52548166448E+01  0.47117922077E+01  0.74277393367E+01  0.51100000000E-03 0.  1.
         12    1    3    3    0    0 -0.35722515756E+00  0.33238405142E+02 -0.15106665287E+01  0.33274634477E+02  0.00000000000E+00 0. -1.
</event>
<event>
 7    1  0.7755875E-012  0.5930194E+02  0.7816164E-02  0.1266605E+00
        -11   -1    0    0    0    0  0.00000000000E+00  0.00000000000E+00  0.45593999997E+02  0.45594000000E+02  0.51100000000E-03 0.  1.
         11   -1    0    0    0    0 -0.00000000000E+00 -0.00000000000E+00 -0.45593999997E+02  0.45594000000E+02  0.51100000000E-03 0. -1.
    9900012    2    1    2    0    0  0.16938841809E+02  0.26825945411E+02 -0.31882992333E+01  0.59301937826E+02  0.49999988689E+02 0.  0.
         12    1    1    2    0    0 -0.16938841809E+02 -0.26825945411E+02  0.31882992333E+01  0.31886062174E+02  0.00000000000E+00 0. -1.
         11    1    3    3    0    0  0.21833152172E+02  0.18288458959E+02 -0.22730244794E+02  0.36439241121E+02  0.51100000000E-03 0. -1.
        -11    1    3    3    0    0 -0.14166973862E+00  0.38340570993E+01  0.25615134043E+01  0.46131784420E+01  0.51100000000E-03 0.  1.
         12    1    3    3    0    0 -0.47526406250E+01  0.47034293526E+01  0.16980432156E+02  0.18249518262E+02  0.00000000000E+00 0. -1.
</event>
<event>
 7    1  0.7755875E-012  0.5930194E+02  0.7816164E-02  0.1266605E+00
        -11   -1    0    0    0    0  0.00000000000E+00  0.00000000000E+00  0.45593999997E+02  0.45594000000E+02  0.51100000000E-03 0. -1.
         11   -1    0    0    0    0 -0.00000000000E+00 -0.00000000000E+00 -0.45593999997E+02  0.45594000000E+02  0.51100000000E-03 0.  1.
    9900012    2    1    2    0    0  0.28166065480E+02 -0.47903624451E+01  0.14157894224E+02  0.59301940572E+02  0.49999993698E+02 0.  0.
         12    1    1    2    0    0 -0.28166065480E+02  0.47903624451E+01 -0.14157894224E+02  0.31886059428E+02  0.00000000000E+00 0. -1.
         11    1    3    3    0    0 -0.12619824507E+01  0.17433883435E+01 -0.20442607608E+01  0.29683336978E+01  0.51100000000E-03 0. -1.
        -11    1    3    3    0    0  0.13181511512E+02  0.42561217178E+00  0.30739192555E+02  0.33448936466E+02  0.51100000000E-03 0.  1.
        -12    1    3    3    0    0  0.16246536418E+02 -0.69593629603E+01 -0.14537037571E+02  0.22884670409E+02  0.00000000000E+00 0.  1.
</event>
<event>
 7    1  0.7755875E-012  0.5930195E+02  0.7816164E-02  0.1266605E+00
        -11   -1    0    0    0    0  0.00000000000E+00  0.00000000000E+00  0.45593999997E+02  0.45594000000E+02  0.51100000000E-03 0.  1.
         11   -1    0    0    0    0 -0.00000000000E+00 -0.00000000000E+00 -0.45593999997E+02  0.45594000000E+02  0.51100000000E-03 0. -1.
    9900012    2    1    2    0    0 -0.22665625779E+02  0.13126233634E+02  0.18184920520E+02  0.59301953904E+02  0.50000018012E+02 0.  0.
         12    1    1    2    0    0  0.22665625779E+02 -0.13126233634E+02 -0.18184920520E+02  0.31886046096E+02  0.00000000000E+00 0. -1.
         11    1    3    3    0    0  0.70225418668E+01  0.31102653364E+01 -0.63142757515E+01  0.99428327584E+01  0.51100000000E-03 0. -1.
        -11    1    3    3    0    0 -0.13361363426E+02  0.65850784401E+00  0.27234926808E+02  0.30343053631E+02  0.51100000000E-03 0.  1.
         12    1    3    3    0    0 -0.16326804219E+02  0.93574604534E+01 -0.27357305364E+01  0.19016067514E+02  0.00000000000E+00 0. -1.
</event>
<event>
 7    1  0.7755875E-012  0.5930196E+02  0.7816164E-02  0.1266605E+00
        -11   -1    0    0    0    0  0.00000000000E+00  0.00000000000E+00  0.45593999997E+02  0.45594000000E+02  0.51100000000E-03 0.  1.
         11   -1    0    0    0    0 -0.00000000000E+00 -0.00000000000E+00 -0.45593999997E+02  0.45594000000E+02  0.51100000000E-03 0. -1.
    9900012    2    1    2    0    0  0.29653772043E+02 -0.93648911792E+01  0.70478694676E+01  0.59301955291E+02  0.50000020542E+02 0.  0.
         12    1    1    2    0    0 -0.29653772043E+02  0.93648911792E+01 -0.70478694676E+01  0.31886044709E+02  0.00000000000E+00 0. -1.
         11    1    3    3    0    0 -0.95251272931E+00 -0.98845269309E+00 -0.72990531245E+01  0.74270112429E+01  0.51100000000E-03 0. -1.
        -11    1    3    3    0    0  0.24145568783E+02 -0.22457132491E+02  0.15304442617E+02  0.36353228958E+02  0.51100000000E-03 0.  1.
        -12    1    3    3    0    0  0.64607159884E+01  0.14080694005E+02 -0.95752002463E+00  0.15521715090E+02  0.00000000000E+00 0.  1.
</event>
<event>
 7    1  0.7755875E-012  0.5930196E+02  0.7816164E-02  0.1266605E+00
        -11   -1    0    0    0    0  0.00000000000E+00  0.00000000000E+00  0.45593999997E+02  0.45594000000E+02  0.51100000000E-03 0.  1.
         11   -1    0    0    0    0 -0.00000000000E+00 -0.00000000000E+00 -0.45593999997E+02  0.45594000000E+02  0.51100000000E-03 0. -1.
    9900012    2    1    2    0    0  0.31853001385E+02  0.50168524156E+00  0.13617030904E+01  0.59301958844E+02  0.50000027021E+02 0.  0.
         12    1    1    2    0    0 -0.31853001385E+02 -0.50168524156E+00 -0.13617030904E+01  0.31886041156E+02  0.00000000000E+00 0. -1.
         11    1    3    3    0    0  0.14701116974E+01 -0.29482852471E+01 -0.42898303309E+01  0.54089055113E+01  0.51100000000E-03 0. -1.
        -11    1    3    3    0    0  0.26672562725E+02 -0.10869607904E+02  0.18556591729E+02  0.34262531652E+02  0.51100000000E-03 0.  1.
        -12    1    3    3    0    0  0.37103269625E+01  0.14319578393E+02 -0.12905058308E+02  0.19630521680E+02  0.00000000000E+00 0.  1.
</event>
<event>
 7    1  0.7755875E-012  0.5930193E+02  0.7816164E-02  0.1266605E+00
        -11   -1    0    0    0    0  0.00000000000E+00  0.00000000000E+00  0.45593999997E+02  0.45594000000E+02  0.51100000000E-03 0. -1.
         11   -1    0    0    0    0 -0.00000000000E+00 -0.00000000000E+00 -0.45593999997E+02  0.45594000000E+02  0.51100000000E-03 0.  1.
    9900012    2    1    2    0    0  0.49525087377E+01  0.30284623158E+02 -0.86623119906E+01  0.59301931072E+02  0.49999976372E+02 0.  0.
         12    1    1    2    0    0 -0.49525087377E+01 -0.30284623158E+02  0.86623119906E+01  0.31886068928E+02  0.00000000000E+00 0. -1.
         11    1    3    3    0    0 -0.70213193235E+01  0.34737055210E+02  0.29362397205E+01  0.35560981899E+02  0.51100000000E-03 0. -1.
        -11    1    3    3    0    0  0.14966002236E+02 -0.90483858731E+00 -0.11823747545E+02  0.19094527018E+02  0.51100000000E-03 0.  1.
         12    1    3    3    0    0 -0.29921741744E+01 -0.35475934640E+01  0.22519583360E+00  0.46464221547E+01  0.00000000000E+00 0. -1.
</event>
<event>
 7    1  0.7755875E-012  0.5930192E+02  0.7816164E-02  0.1266605E+00
        -11   -1    0    0    0    0  0.00000000000E+00  0.00000000000E+00  0.45593999997E+02  0.45594000000E+02  0.51100000000E-03 0.  1.
         11   -1    0    0    0    0 -0.00000000000E+00 -0.00000000000E+00 -0.45593999997E+02  0.45594000000E+02  0.51100000000E-03 0. -1.
    9900012    2    1    2    0    0  0.77810054452E+01 -0.65993004941E+01  0.30209723991E+02  0.59301917827E+02  0.49999952216E+02 0.  0.
         12    1    1    2    0    0 -0.77810054452E+01  0.65993004941E+01 -0.30209723991E+02  0.31886082173E+02  0.00000000000E+00 0. -1.
         11    1    3    3    0    0  0.78766355714E+01  0.10072594743E+02  0.15117129595E+02  0.19799650507E+02  0.51100000000E-03 0. -1.
        -11    1    3    3    0    0 -0.81092734814E+01 -0.22768407490E+02  0.16600007619E+02  0.29320998435E+02  0.51100000000E-03 0.  1.
        -12    1    3    3    0    0  0.80136433552E+01  0.60965122530E+01 -0.15074132222E+01  0.10181268884E+02  0.00000000000E+00 0.  1.
</event>
<event>
 7    1  0.7755875E-012  0.5930196E+02  0.7816164E-02  0.1266605E+00
        -11   -1    0    0    0    0  0.00000000000E+00  0.00000000000E+00  0.45593999997E+02  0.45594000000E+02  0.51100000000E-03 0.  1.
         11   -1    0    0    0    0 -0.00000000000E+00 -0.00000000000E+00 -0.45593999997E+02  0.45594000000E+02  0.51100000000E-03 0. -1.
    9900012    2    1    2    0    0 -0.70303472659E+01  0.78104692578E+01  0.30104654941E+02  0.59301961334E+02  0.50000031562E+02 0.  0.
         12    1    1    2    0    0  0.70303472659E+01 -0.78104692578E+01 -0.30104654941E+02  0.31886038666E+02  0.00000000000E+00 0. -1.
         11    1    3    3    0    0  0.86475549101E+01  0.13294579709E+02 -0.67011249711E+01  0.17217175485E+02  0.51100000000E-03 0. -1.
        -11    1    3    3    0    0 -0.10800202164E+02 -0.26895867241E+01  0.34052419950E+02  0.35825208279E+02  0.51100000000E-03 0.  1.
         12    1    3    3    0    0 -0.48777000123E+01 -0.27945237269E+01  0.27533599619E+01  0.62595775696E+01  0.00000000000E+00 0. -1.
</event>
<event>
 7    1  0.7755875E-012  0.5930193E+02  0.7816164E-02  0.1266605E+00
        -11   -1    0    0    0    0  0.00000000000E+00  0.00000000000E+00  0.45593999997E+02  0.45594000000E+02  0.51100000000E-03 0. -1.
         11   -1    0    0    0    0 -0.00000000000E+00 -0.00000000000E+00 -0.45593999997E+02  0.45594000000E+02  0.51100000000E-03 0.  1.
    9900012    2    1    2    0    0  0.19214434449E+01 -0.16546013731E+02 -0.27189313284E+02  0.59301932947E+02  0.49999979791E+02 0.  0.
         12    1    1    2    0    0 -0.19214434449E+01  0.16546013731E+02  0.27189313284E+02  0.31886067053E+02  0.00000000000E+00 0. -1.
         11    1    3    3    0    0 -0.15183649676E+02 -0.13054726477E+02 -0.42605768547E+01  0.20472459946E+02  0.51100000000E-03 0. -1.
        -11    1    3    3    0    0  0.19122586208E+02 -0.10338904060E+02 -0.23057943494E+02  0.31689667068E+02  0.51100000000E-03 0.  1.
        -12    1    3    3    0    0 -0.20174930871E+01  0.68476168065E+01  0.12920706510E+00  0.71398059323E+01  0.00000000000E+00 0.  1.
</event>
<event>
 7    1  0.7755875E-012  0.5930196E+02  0.7816164E-02  0.1266605E+00
        -11   -1    0    0    0    0  0.00000000000E+00  0.00000000000E+00  0.45593999997E+02  0.45594000000E+02  0.51100000000E-03 0.  1.
         11   -1    0    0    0    0 -0.00000000000E+00 -0.00000000000E+00 -0.45593999997E+02  0.45594000000E+02  0.51100000000E-03 0. -1.
    9900012    2    1    2    0    0 -0.21654440261E+02 -0.11925187127E+02  0.20139385196E+02  0.59301957487E+02  0.50000024547E+02 0.  0.
         12    1    1    2    0    0  0.21654440261E+02  0.11925187127E+02 -0.20139385196E+02  0.31886042513E+02  0.00000000000E+00 0. -1.
         11    1    3    3    0    0  0.10399277744E+02 -0.48747401697E+01  0.71953955224E+01  0.13552925378E+02  0.51100000000E-03 0. -1.
        -11    1    3    3    0    0 -0.28913333200E+02 -0.15381900110E+02  0.15848642772E+02  0.36383556255E+02  0.51100000000E-03 0.  1.
         12    1    3    3    0    0 -0.31403848052E+01  0.83314531527E+01 -0.29046530982E+01  0.93654758545E+01  0.00000000000E+00 0. -1.
</event>
<event>
 7    1  0.7755875E-012  0.5930188E+02  0.7816164E-02  0.1266605E+00
        -11   -1    0    0    0    0  0.00000000000E+00  0.00000000000E+00  0.45593999997E+02  0.45594000000E+02  0.51100000000E-03 0.  1.
         11   -1    0    0    0    0 -0.00000000000E+00 -0.00000000000E+00 -0.45593999997E+02  0.45594000000E+02  0.51100000000E-03 0. -1.
    9900012    2    1    2    0    0  0.24565321532E+02 -0.14792415169E+02  0.13944681438E+02  0.59301879055E+02  0.49999881506E+02 0.  0.
         12    1    1    2    0    0 -0.24565321532E+02  0.14792415169E+02 -0.13944681438E+02  0.31886120945E+02  0.00000000000E+00 0. -1.
         11    1    3    3    0    0  0.88457770468E+01 -0.22834227216E+02 -0.87853214812E+01  0.26015986968E+02  0.51100000000E-03 0. -1.
        -11    1    3    3    0    0  0.30637672303E+01  0.59856652232E+01  0.18658631686E+02  0.19833290056E+02  0.51100000000E-03 0.  1.
        -12    1    3    3    0    0  0.12655777255E+02  0.20561468242E+01  0.40713712337E+01  0.13452602031E+02  0.00000000000E+00 0.  1.
</event>
<event>
 7    1  0.7755875E-012  0.5930196E+02  0.7816164E-02  0.1266605E+00
        -11   -1    0    0    0    0  0.00000000000E+00  0.00000000000E+00  0.45593999997E+02  0.45594000000E+02  0.51100000000E-03 0.  1.
         11   -1    0    0    0    0 -0.00000000000E+00 -0.00000000000E+00 -0.45593999997E+02  0.45594000000E+02  0.51100000000E-03 0. -1.
    9900012    2    1    2    0    0  0.12833138139E+02 -0.44938079517E+01  0.28841565869E+02  0.59301958130E+02  0.50000025719E+02 0.  0.
         12    1    1    2    0    0 -0.12833138139E+02  0.44938079517E+01 -0.28841565869E+02  0.31886041870E+02  0.00000000000E+00 0. -1.
         11    1    3    3    0    0  0.10358597191E+02  0.74971347747E+01  0.30181759281E+02  0.32778745539E+02  0.51100000000E-03 0. -1.
        -11    1    3    3    0    0  0.11536933872E+02 -0.97245058754E+01  0.42001491200E+01  0.15662314981E+02  0.51100000000E-03 0.  1.
         12    1    3    3    0    0 -0.90623929239E+01 -0.22664368509E+01 -0.55403425321E+01  0.10860897609E+02  0.00000000000E+00 0. -1.
</event>
<event>
 7    1  0.7755875E-012  0.5930194E+02  0.7816164E-02  0.1266605E+00
        -11   -1    0    0    0    0  0.00000000000E+00  0.00000000000E+00  0.45593999997E+02  0.45594000000E+02  0.51100000000E-03 0.  1.
         11   -1    0    0    0    0 -0.00000000000E+00 -0.00000000000E+00 -0.45593999997E+02  0.45594000000E+02  0.51100000000E-03 0. -1.
    9900012    2    1    2    0    0  0.29240872726E+02  0.88460822030E+01  0.91344884003E+01  0.59301942131E+02  0.49999996540E+02 0.  0.
         12    1    1    2    0    0 -0.29240872726E+02 -0.88460822030E+01 -0.91344884003E+01  0.31886057869E+02  0.00000000000E+00 0. -1.
         11    1    3    3    0    0  0.20381980400E+02  0.24733870187E+02 -0.10622893297E+01  0.32067396501E+02  0.51100000000E-03 0. -1.
        -11    1    3    3    0    0  0.54649127065E+01 -0.15130162514E+02 -0.38965729318E+00  0.16091579215E+02  0.51100000000E-03 0.  1.
         12    1    3    3    0    0  0.33939796196E+01 -0.75762547077E+00  0.10586435023E+02  0.11142966414E+02  0.00000000000E+00 0. -1.
</event>
<event>
 7    1  0.7755875E-012  0.5930194E+02  0.7816164E-02  0.1266605E+00
        -11   -1    0    0    0    0  0.00000000000E+00  0.00000000000E+00  0.45593999997E+02  0.45594000000E+02  0.51100000000E-03 0.  1.
         11   -1    0    0    0    0 -0.00000000000E+00 -0.00000000000E+00 -0.45593999997E+02  0.45594000000E+02  0.51100000000E-03 0. -1.
    9900012    2    1    2    0    0 -0.12573541859E+02 -0.21036999191E+02  0.20397826836E+02  0.59301943024E+02  0.49999998170E+02 0.  0.
         12    1    1    2    0    0  0.12573541859E+02  0.21036999191E+02 -0.20397826836E+02  0.31886056976E+02  0.00000000000E+00 0. -1.
         11    1    3    3    0    0  0.18692269227E+02 -0.99086106937E+01  0.72264618850E+01  0.22356279797E+02  0.51100000000E-03 0. -1.
        -11    1    3    3    0    0 -0.12244757847E+02  0.23138182967E+00  0.32515143752E+01  0.12671226392E+02  0.51100000000E-03 0.  1.
         12    1    3    3    0    0 -0.19021053239E+02 -0.11359770327E+02  0.99198505759E+01  0.24274436835E+02  0.00000000000E+00 0. -1.
</event>
<event>
 7    1  0.7755875E-012  0.5930209E+02  0.7816164E-02  0.1266604E+00
        -11   -1    0    0    0    0  0.00000000000E+00  0.00000000000E+00  0.45593999997E+02  0.45594000000E+02  0.51100000000E-03 0. -1.
         11   -1    0    0    0    0 -0.00000000000E+00 -0.00000000000E+00 -0.45593999997E+02  0.45594000000E+02  0.51100000000E-03 0.  1.
    9900012    2    1    2    0    0 -0.30556600638E+02  0.16633915307E+01 -0.89576070555E+01  0.59302087153E+02  0.50000261025E+02 0.  0.
         12    1    1    2    0    0  0.30556600638E+02 -0.16633915307E+01  0.89576070555E+01  0.31885912847E+02  0.00000000000E+00 0. -1.
         11    1    3    3    0    0  0.52311876915E+01  0.11862560778E+01  0.25286314391E+01  0.59301353577E+01  0.51100000000E-03 0. -1.
        -11    1    3    3    0    0 -0.41220743867E+02  0.88129955243E+01 -0.87245497303E+01  0.43045747564E+02  0.51100000000E-03 0.  1.
        -12    1    3    3    0    0  0.54329555372E+01 -0.83358600714E+01 -0.27616887643E+01  0.10326204231E+02  0.00000000000E+00 0.  1.
</event>
<event>
 7    1  0.7755875E-012  0.5930195E+02  0.7816164E-02  0.1266605E+00
        -11   -1    0    0    0    0  0.00000000000E+00  0.00000000000E+00  0.45593999997E+02  0.45594000000E+02  0.51100000000E-03 0.  1.
         11   -1    0    0    0    0 -0.00000000000E+00 -0.00000000000E+00 -0.45593999997E+02  0.45594000000E+02  0.51100000000E-03 0. -1.
    9900012    2    1    2    0    0  0.33546404522E+01  0.22752483850E+02 -0.22085998641E+02  0.59301945526E+02  0.50000002733E+02 0.  0.
         12    1    1    2    0    0 -0.33546404522E+01 -0.22752483850E+02  0.22085998641E+02  0.31886054474E+02  0.00000000000E+00 0. -1.
         11    1    3    3    0    0 -0.28815940761E+00  0.15403130731E+02 -0.11745506672E+02  0.19372568220E+02  0.51100000000E-03 0. -1.
        -11    1    3    3    0    0  0.83904090171E+00 -0.22822258599E+01  0.13682079592E+02  0.13896468858E+02  0.51100000000E-03 0.  1.
        -12    1    3    3    0    0  0.28037589581E+01  0.96315789791E+01 -0.24022571560E+02  0.26032908449E+02  0.00000000000E+00 0.  1.
</event>
<event>
 7    1  0.7755875E-012  0.5930193E+02  0.7816164E-02  0.1266605E+00
        -11   -1    0    0    0    0  0.00000000000E+00  0.00000000000E+00  0.45593999997E+02  0.45594000000E+02  0.51100000000E-03 0.  1.
         11   -1    0    0    0    0 -0.00000000000E+00 -0.00000000000E+00 -0.45593999997E+02  0.45594000000E+02  0.51100000000E-03 0. -1.
    9900012    2    1    2    0    0  0.63992436573E+01  0.26198699175E+01  0.31127280147E+02  0.59301927694E+02  0.49999970211E+02 0.  0.
         12    1    1    2    0    0 -0.63992436573E+01 -0.26198699175E+01 -0.31127280147E+02  0.31886072306E+02  0.00000000000E+00 0. -1.
         11    1    3    3    0    0  0.12175108726E+02 -0.10097326511E+02 -0.70134834031E+01  0.17302549664E+02  0.51100000000E-03 0. -1.
        -11    1    3    3    0    0 -0.35023430294E+01  0.14356710572E+02  0.31718338823E+02  0.34991921397E+02  0.51100000000E-03 0.  1.
         12    1    3    3    0    0 -0.22735220390E+01 -0.16395141436E+01  0.64224247270E+01  0.70074566330E+01  0.00000000000E+00 0. -1.
</event>
<event>
 7    1  0.7755875E-012  0.5930194E+02  0.7816164E-02  0.1266605E+00
        -11   -1    0    0    0    0  0.00000000000E+00  0.00000000000E+00  0.45593999997E+02  0.45594000000E+02  0.51100000000E-03 0.  1.
         11   -1    0    0    0    0 -0.00000000000E+00 -0.00000000000E+00 -0.45593999997E+02  0.45594000000E+02  0.51100000000E-03 0. -1.
    9900012    2    1    2    0    0  0.26492680801E+02 -0.14544941020E+02  0.10163839488E+02  0.59301935984E+02  0.49999985329E+02 0.  0.
         12    1    1    2    0    0 -0.26492680801E+02  0.14544941020E+02 -0.10163839488E+02  0.31886064016E+02  0.00000000000E+00 0. -1.
         11    1    3    3    0    0  0.16578748937E+02  0.26344555818E+01 -0.17055144996E+02  0.23930592212E+02  0.51100000000E-03 0. -1.
        -11    1    3    3    0    0  0.10734676312E+02 -0.11011044144E+02  0.14153642580E+02  0.20899807827E+02  0.51100000000E-03 0.  1.
         12    1    3    3    0    0 -0.82074444733E+00 -0.61683524573E+01  0.13065341905E+02  0.14471535944E+02  0.00000000000E+00 0. -1.
</event>
<event>
 7    1  0.7755875E-012  0.5930193E+02  0.7816164E-02  0.1266605E+00
        -11   -1    0    0    0    0  0.00000000000E+00  0.00000000000E+00  0.45593999997E+02  0.45594000000E+02  0.51100000000E-03 0. -1.
         11   -1    0    0    0    0 -0.00000000000E+00 -0.00000000000E+00 -0.45593999997E+02  0.45594000000E+02  0.51100000000E-03 0.  1.
    9900012    2    1    2    0    0 -0.52752829662E+01  0.28623134498E+02  0.13023396357E+02  0.59301932643E+02  0.49999979236E+02 0.  0.
         12    1    1    2    0    0  0.52752829662E+01 -0.28623134498E+02 -0.13023396357E+02  0.31886067357E+02  0.00000000000E+00 0. -1.
         11    1    3    3    0    0 -0.16225626353E+02  0.34458896776E+02  0.17933684287E+02  0.42098735728E+02  0.51100000000E-03 0. -1.
        -11    1    3    3    0    0  0.43479706855E+01 -0.30189686554E+01 -0.78321856801E+01  0.94531557489E+01  0.51100000000E-03 0.  1.
         12    1    3    3    0    0  0.66023727014E+01 -0.28167936230E+01  0.29218977501E+01  0.77500411653E+01  0.00000000000E+00 0. -1.
</event>
<event>
 7    1  0.7755875E-012  0.5930194E+02  0.7816164E-02  0.1266605E+00
        -11   -1    0    0    0    0  0.00000000000E+00  0.00000000000E+00  0.45593999997E+02  0.45594000000E+02  0.51100000000E-03 0. -1.
         11   -1    0    0    0    0 -0.00000000000E+00 -0.00000000000E+00 -0.45593999997E+02  0.45594000000E+02  0.51100000000E-03 0.  1.
    9900012    2    1    2    0    0 -0.32147612112E+01 -0.19202846504E+02 -0.25251475685E+02  0.59301936778E+02  0.49999986778E+02 0.  0.
         12    1    1    2    0    0  0.32147612112E+01  0.19202846504E+02  0.25251475685E+02  0.31886063222E+02  0.00000000000E+00 0. -1.
         11    1    3    3    0    0 -0.22942080279E+02 -0.16468651316E+01 -0.93469909103E+01  0.24827755671E+02  0.51100000000E-03 0. -1.
        -11    1    3    3    0    0  0.17767022168E+02 -0.11849150794E+02 -0.18159176695E+02  0.28032573013E+02  0.51100000000E-03 0.  1.
         12    1    3    3    0    0  0.19602969004E+01 -0.57068305787E+01  0.22546919196E+01  0.64416080946E+01  0.00000000000E+00 0. -1.
</event>
<event>
 7    1  0.7755875E-012  0.5930197E+02  0.7816164E-02  0.1266605E+00
        -11   -1    0    0    0    0  0.00000000000E+00  0.00000000000E+00  0.45593999997E+02  0.45594000000E+02  0.51100000000E-03 0.  1.
         11   -1    0    0    0    0 -0.00000000000E+00 -0.00000000000E+00 -0.45593999997E+02  0.45594000000E+02  0.51100000000E-03 0. -1.
    9900012    2    1    2    0    0  0.12606286335E+02  0.14481584195E+02  0.25457503220E+02  0.59301965343E+02  0.50000038875E+02 0.  0.
         12    1    1    2    0    0 -0.12606286335E+02 -0.14481584195E+02 -0.25457503220E+02  0.31886034657E+02  0.00000000000E+00 0. -1.
         11    1    3    3    0    0  0.11243453098E+02  0.11332779286E+02 -0.23738228834E+01  0.16139459695E+02  0.51100000000E-03 0. -1.
        -11    1    3    3    0    0  0.52579962528E+01 -0.13480376432E+02  0.65712429762E+01  0.15891768556E+02  0.51100000000E-03 0.  1.
        -12    1    3    3    0    0 -0.38951630156E+01  0.16629181340E+02  0.21260083127E+02  0.27270737092E+02  0.00000000000E+00 0.  1.
</event>
<event>
 7    1  0.7755875E-012  0.5930193E+02  0.7816164E-02  0.1266605E+00
        -11   -1    0    0    0    0  0.00000000000E+00  0.00000000000E+00  0.45593999997E+02  0.45594000000E+02  0.51100000000E-03 0.  1.
         11   -1    0    0    0    0 -0.00000000000E+00 -0.00000000000E+00 -0.45593999997E+02  0.45594000000E+02  0.51100000000E-03 0. -1.
    9900012    2    1    2    0    0  0.24020256137E+02  0.15279686784E+02  0.14362453633E+02  0.59301927689E+02  0.49999970201E+02 0.  0.
         12    1    1    2    0    0 -0.24020256137E+02 -0.15279686784E+02 -0.14362453633E+02  0.31886072311E+02  0.00000000000E+00 0. -1.
         11    1    3    3    0    0  0.76370796703E+01 -0.13296887627E+02 -0.15700139984E+01  0.15414186669E+02  0.51100000000E-03 0. -1.
        -11    1    3    3    0    0  0.56836984551E+01  0.12104894645E+02  0.19776479349E+02  0.23873458866E+02  0.51100000000E-03 0.  1.
         12    1    3    3    0    0  0.10699478011E+02  0.16471679766E+02 -0.38440117182E+01  0.20014282154E+02  0.00000000000E+00 0. -1.
</event>
<event>
 7    1  0.7755875E-012  0.5930212E+02  0.7816164E-02  0.1266604E+00
        -11   -1    0    0    0    0  0.00000000000E+00  0.00000000000E+00  0.45593999997E+02  0.45594000000E+02  0.51100000000E-03 0.  1.
         11   -1    0    0    0    0 -0.00000000000E+00 -0.00000000000E+00 -0.45593999997E+02  0.45594000000E+02  0.51100000000E-03 0. -1.
    9900012    2    1    2    0    0 -0.29703863118E+02 -0.86861388975E+01 -0.76772761862E+01  0.59302124401E+02  0.50000328956E+02 0.  0.
         12    1    1    2    0    0  0.29703863118E+02  0.86861388975E+01  0.76772761862E+01  0.31885875599E+02  0.00000000000E+00 0. -1.
         11    1    3    3    0    0 -0.31899952384E+01 -0.94944478657E+01  0.18169859110E+02  0.20747635775E+02  0.51100000000E-03 0. -1.
        -11    1    3    3    0    0  0.20860115133E+00  0.17706519147E+01 -0.95848082743E+00  0.20242056222E+01  0.51100000000E-03 0.  1.
         12    1    3    3    0    0 -0.26722469031E+02 -0.96234294644E+00 -0.24888654469E+02  0.36530283004E+02  0.00000000000E+00 0. -1.
</event>
<event>
 7    1  0.7755875E-012  0.5930194E+02  0.7816164E-02  0.1266605E+00
        -11   -1    0    0    0    0  0.00000000000E+00  0.00000000000E+00  0.45593999997E+02  0.45594000000E+02  0.51100000000E-03 0. -1.
         11   -1    0    0    0    0 -0.00000000000E+00 -0.00000000000E+00 -0.45593999997E+02  0.45594000000E+02  0.51100000000E-03 0.  1.
    9900012    2    1    2    0    0 -0.69276256645E+01  0.12873636009E+02 -0.28337224487E+02  0.59301940459E+02  0.49999993491E+02 0.  0.
         12    1    1    2    0    0  0.69276256645E+01 -0.12873636009E+02  0.28337224487E+02  0.31886059541E+02  0.00000000000E+00 0. -1.
         11    1    3    3    0    0  0.45807618273E+01 -0.19716596361E+01 -0.11530203634E+02  0.12562500418E+02  0.51100000000E-03 0. -1.
        -11    1    3    3    0    0  0.63507637202E+01  0.15903872555E+02  0.56448163655E+01  0.18031342550E+02  0.51100000000E-03 0.  1.
        -12    1    3    3    0    0 -0.17859151212E+02 -0.10585769101E+01 -0.22451837219E+02  0.28708097491E+02  0.00000000000E+00 0.  1.
</event>
<event>
 7    1  0.7755875E-012  0.5930183E+02  0.7816164E-02  0.1266605E+00
        -11   -1    0    0    0    0  0.00000000000E+00  0.00000000000E+00  0.45593999997E+02  0.45594000000E+02  0.51100000000E-03 0.  1.
         11   -1    0    0    0    0 -0.00000000000E+00 -0.00000000000E+00 -0.45593999997E+02  0.45594000000E+02  0.51100000000E-03 0. -1.
    9900012    2    1    2    0    0  0.20800538860E+02  0.74964275366E+01  0.22975400264E+02  0.59301829644E+02  0.49999791392E+02 0.  0.
         12    1    1    2    0    0 -0.20800538860E+02 -0.74964275366E+01 -0.22975400264E+02  0.31886170356E+02  0.00000000000E+00 0. -1.
         11    1    3    3    0    0  0.16789172954E+02  0.45273151041E+01 -0.10103134380E+02  0.20110848691E+02  0.51100000000E-03 0. -1.
        -11    1    3    3    0    0  0.14367523417E+01  0.11756615109E+02  0.17877281027E+02  0.21444799680E+02  0.51100000000E-03 0.  1.
        -12    1    3    3    0    0  0.25746135637E+01 -0.87875026762E+01  0.15201253616E+02  0.17746181273E+02  0.00000000000E+00 0.  1.
</event>
<event>
 7    1  0.8097855E-012  0.5930195E+02  0.7816164E-02  0.1266605E+00
        -11   -1    0    0    0    0  0.00000000000E+00  0.00000000000E+00  0.45593999997E+02  0.45594000000E+02  0.51100000000E-03 0.  1.
         11   -1    0    0    0    0 -0.00000000000E+00 -0.00000000000E+00 -0.45593999997E+02  0.45594000000E+02  0.51100000000E-03 0. -1.
    9900012    2    1    2    0    0 -0.32691273892E+01  0.26767664265E+02 -0.17015430059E+02  0.59301954397E+02  0.50000018912E+02 0.  0.
         12    1    1    2    0    0  0.32691273892E+01 -0.26767664265E+02  0.17015430059E+02  0.31886045603E+02  0.00000000000E+00 0. -1.
         11    1    3    3    0    0 -0.23547228192E+01 -0.72768670412E+01  0.47483225227E+01  0.90024485853E+01  0.51100000000E-03 0. -1.
        -11    1    3    3    0    0 -0.12840770878E+02  0.26689397796E+02 -0.20922288708E+02  0.36262260223E+02  0.51100000000E-03 0.  1.
         12    1    3    3    0    0  0.11926366308E+02  0.73551335100E+01 -0.84146387335E+00  0.14037245588E+02  0.00000000000E+00 0. -1.
</event>
<event>
 7    1  0.7755875E-012  0.5930199E+02  0.7816164E-02  0.1266605E+00
        -11   -1    0    0    0    0  0.00000000000E+00  0.00000000000E+00  0.45593999997E+02  0.45594000000E+02  0.51100000000E-03 0.  1.
         11   -1    0    0    0    0 -0.00000000000E+00 -0.00000000000E+00 -0.45593999997E+02  0.45594000000E+02  0.51100000000E-03 0. -1.
    9900012    2    1    2    0    0  0.13297682180E+02 -0.20707716396E+02  0.20275102910E+02  0.59301989467E+02  0.50000082870E+02 0.  0.
         12    1    1    2    0    0 -0.13297682180E+02  0.20707716396E+02 -0.20275102910E+02  0.31886010533E+02  0.00000000000E+00 0. -1.
         11    1    3    3    0    0 -0.64470220208E+01 -0.12658479224E+02 -0.90383904645E+00  0.14234398986E+02  0.51100000000E-03 0. -1.
        -11    1    3    3    0    0  0.25543602110E+01  0.33026750340E+00  0.25361243915E+02  0.25491695233E+02  0.51100000000E-03 0.  1.
        -12    1    3    3    0    0  0.17190343990E+02 -0.83795046752E+01 -0.41823019580E+01  0.19575895248E+02  0.00000000000E+00 0.  1.
</event>
<event>
 7    1  0.7755875E-012  0.5930204E+02  0.7816164E-02  0.1266604E+00
        -11   -1    0    0    0    0  0.00000000000E+00  0.00000000000E+00  0.45593999997E+02  0.45594000000E+02  0.51100000000E-03 0.  1.
         11   -1    0    0    0    0 -0.00000000000E+00 -0.00000000000E+00 -0.45593999997E+02  0.45594000000E+02  0.51100000000E-03 0. -1.
    9900012    2    1    2    0    0 -0.16836060232E+02 -0.15167864187E+02  0.22432063055E+02  0.59302039437E+02  0.50000174004E+02 0.  0.
         12    1    1    2    0    0  0.16836060232E+02  0.15167864187E+02 -0.22432063055E+02  0.31885960563E+02  0.00000000000E+00 0. -1.
         11    1    3    3    0    0 -0.17041503310E+02  0.39547199842E+00 -0.45005402521E+01  0.17630204083E+02  0.51100000000E-03 0. -1.
        -11    1    3    3    0    0  0.13287151193E+02 -0.61065171026E+01  0.75802854525E+01  0.16471146461E+02  0.51100000000E-03 0.  1.
        -12    1    3    3    0    0 -0.13081708114E+02 -0.94568190826E+01  0.19352317854E+02  0.25200688893E+02  0.00000000000E+00 0.  1.
</event>
<event>
 7    1  0.7755875E-012  0.5930191E+02  0.7816164E-02  0.1266605E+00
        -11   -1    0    0    0    0  0.00000000000E+00  0.00000000000E+00  0.45593999997E+02  0.45594000000E+02  0.51100000000E-03 0. -1.
         11   -1    0    0    0    0 -0.00000000000E+00 -0.00000000000E+00 -0.45593999997E+02  0.45594000000E+02  0.51100000000E-03 0.  1.
    9900012    2    1    2    0    0  0.25861705457E+02 -0.33598728166E+01 -0.18346822310E+02  0.59301914581E+02  0.49999946296E+02 0.  0.
         12    1    1    2    0    0 -0.25861705457E+02  0.33598728166E+01  0.18346822310E+02  0.31886085419E+02  0.00000000000E+00 0. -1.
         11    1    3    3    0    0 -0.67875330370E+01 -0.12588979378E+02  0.12716139995E+01  0.14358621414E+02  0.51100000000E-03 0. -1.
        -11    1    3    3    0    0  0.29023171367E+02  0.55742865989E+01 -0.24086987017E+02  0.38126107736E+02  0.51100000000E-03 0.  1.
         12    1    3    3    0    0  0.36260671268E+01  0.36548199622E+01  0.44685507077E+01  0.68171854303E+01  0.00000000000E+00 0. -1.
</event>
<event>
 7    1  0.7755875E-012  0.5930195E+02  0.7816164E-02  0.1266605E+00
        -11   -1    0    0    0    0  0.00000000000E+00  0.00000000000E+00  0.45593999997E+02  0.45594000000E+02  0.51100000000E-03 0.  1.
         11   -1    0    0    0    0 -0.00000000000E+00 -0.00000000000E+00 -0.45593999997E+02  0.45594000000E+02  0.51100000000E-03 0. -1.
    9900012    2    1    2    0    0  0.27912832661E+02  0.11517868820E+02 -0.10243662407E+02  0.59301950561E+02  0.50000011915E+02 0.  0.
         12    1    1    2    0    0 -0.27912832661E+02 -0.11517868820E+02  0.10243662407E+02  0.31886049439E+02  0.00000000000E+00 0. -1.
         11    1    3    3    0    0  0.22157352568E+02  0.25251691770E+02  0.33861775168E+01  0.33764810210E+02  0.51100000000E-03 0. -1.
        -11    1    3    3    0    0  0.47670863412E+01 -0.21778043769E+01  0.23894453829E+01  0.57599820822E+01  0.51100000000E-03 0.  1.
         12    1    3    3    0    0  0.98839375186E+00 -0.11556018573E+02 -0.16019285307E+02  0.19777158269E+02  0.00000000000E+00 0. -1.
</event>
<event>
 7    1  0.7755875E-012  0.5930195E+02  0.7816164E-02  0.1266605E+00
        -11   -1    0    0    0    0  0.00000000000E+00  0.00000000000E+00  0.45593999997E+02  0.45594000000E+02  0.51100000000E-03 0.  1.
         11   -1    0    0    0    0 -0.00000000000E+00 -0.00000000000E+00 -0.45593999997E+02  0.45594000000E+02  0.51100000000E-03 0. -1.
    9900012    2    1    2    0    0 -0.14279012510E+02 -0.27835218364E+02  0.61668758526E+01  0.59301953876E+02  0.50000017961E+02 0.  0.
         12    1    1    2    0    0  0.14279012510E+02  0.27835218364E+02 -0.61668758526E+01  0.31886046124E+02  0.00000000000E+00 0. -1.
         11    1    3    3    0    0  0.29903180859E+01  0.15896421136E+01  0.92726104847E+01  0.98716903196E+01  0.51100000000E-03 0. -1.
        -11    1    3    3    0    0 -0.40578317514E+00 -0.14038156684E+02 -0.17503282081E+02  0.22441020185E+02  0.51100000000E-03 0.  1.
        -12    1    3    3    0    0 -0.16863547421E+02 -0.15386703794E+02  0.14397547449E+02  0.26989243372E+02  0.00000000000E+00 0.  1.
</event>
<event>
 7    1  0.7755875E-012  0.5930196E+02  0.7816164E-02  0.1266605E+00
        -11   -1    0    0    0    0  0.00000000000E+00  0.00000000000E+00  0.45593999997E+02  0.45594000000E+02  0.51100000000E-03 0. -1.
         11   -1    0    0    0    0 -0.00000000000E+00 -0.00000000000E+00 -0.45593999997E+02  0.45594000000E+02  0.51100000000E-03 0.  1.
    9900012    2    1    2    0    0 -0.10043992595E+02 -0.19174777095E+02 -0.23412934398E+02  0.59301962914E+02  0.50000034444E+02 0.  0.
         12    1    1    2    0    0  0.10043992595E+02  0.19174777095E+02  0.23412934398E+02  0.31886037086E+02  0.00000000000E+00 0. -1.
         11    1    3    3    0    0 -0.40811128860E+01 -0.98367685451E+01 -0.33042894657E+02  0.34716716223E+02  0.51100000000E-03 0. -1.
        -11    1    3    3    0    0 -0.12402999359E+02 -0.23790103220E+01  0.28996608132E+01  0.12957704901E+02  0.51100000000E-03 0.  1.
         12    1    3    3    0    0  0.64401196501E+01 -0.69589982282E+01  0.67302994448E+01  0.11627541789E+02  0.00000000000E+00 0. -1.
</event>
<event>
 7    1  0.7755875E-012  0.5930187E+02  0.7816164E-02  0.1266605E+00
        -11   -1    0    0    0    0  0.00000000000E+00  0.00000000000E+00  0.45593999997E+02  0.45594000000E+02  0.51100000000E-03 0.  1.
         11   -1    0    0    0    0 -0.00000000000E+00 -0.00000000000E+00 -0.45593999997E+02  0.45594000000E+02  0.51100000000E-03 0. -1.
    9900012    2    1    2    0    0  0.54001044635E+01 -0.26375541541E+02  0.17084941036E+02  0.59301866179E+02  0.49999858023E+02 0.  0.
         12    1    1    2    0    0 -0.54001044635E+01  0.26375541541E+02 -0.17084941036E+02  0.31886133821E+02  0.00000000000E+00 0. -1.
         11    1    3    3    0    0  0.18009185859E+02  0.27225799746E+01  0.67220940574E+00  0.18226219651E+02  0.51100000000E-03 0. -1.
        -11    1    3    3    0    0  0.40793689618E+01 -0.15123721469E+02  0.46809819112E+01  0.16348693958E+02  0.51100000000E-03 0.  1.
         12    1    3    3    0    0 -0.16688450357E+02 -0.13974400046E+02  0.11731749719E+02  0.24726952571E+02  0.00000000000E+00 0. -1.
</event>
<event>
 7    1  0.7755875E-012  0.5930194E+02  0.7816164E-02  0.1266605E+00
        -11   -1    0    0    0    0  0.00000000000E+00  0.00000000000E+00  0.45593999997E+02  0.45594000000E+02  0.51100000000E-03 0.  1.
         11   -1    0    0    0    0 -0.00000000000E+00 -0.00000000000E+00 -0.45593999997E+02  0.45594000000E+02  0.51100000000E-03 0. -1.
    9900012    2    1    2    0    0 -0.68706192644E+01  0.10874869480E+00  0.31136857627E+02  0.59301935046E+02  0.49999983620E+02 0.  0.
         12    1    1    2    0    0  0.68706192644E+01 -0.10874869480E+00 -0.31136857627E+02  0.31886064954E+02  0.00000000000E+00 0. -1.
         11    1    3    3    0    0 -0.27958425700E+01 -0.23790830045E+01 -0.99657675283E+01  0.10620418744E+02  0.51100000000E-03 0. -1.
        -11    1    3    3    0    0  0.66541171245E+01  0.30929205806E+01  0.36082011015E+02  0.36820577828E+02  0.51100000000E-03 0.  1.
        -12    1    3    3    0    0 -0.10728893819E+02 -0.60508888129E+00  0.50206141398E+01  0.11860938474E+02  0.00000000000E+00 0.  1.
</event>
<event>
 7    1  0.7755875E-012  0.5930194E+02  0.7816164E-02  0.1266605E+00
        -11   -1    0    0    0    0  0.00000000000E+00  0.00000000000E+00  0.45593999997E+02  0.45594000000E+02  0.51100000000E-03 0.  1.
         11   -1    0    0    0    0 -0.00000000000E+00 -0.00000000000E+00 -0.45593999997E+02  0.45594000000E+02  0.51100000000E-03 0. -1.
    9900012    2    1    2    0    0  0.28702856494E+02  0.93346860448E+01  0.10282535805E+02  0.59301939142E+02  0.49999991089E+02 0.  0.
         12    1    1    2    0    0 -0.28702856494E+02 -0.93346860448E+01 -0.10282535805E+02  0.31886060858E+02  0.00000000000E+00 0. -1.
         11    1    3    3    0    0  0.54695314442E+01 -0.13244978744E+02  0.40345970832E+00  0.14335550779E+02  0.51100000000E-03 0. -1.
        -11    1    3    3    0    0  0.25353868872E+02  0.10474168300E+02  0.15437905841E+02  0.31477862148E+02  0.51100000000E-03 0.  1.
        -12    1    3    3    0    0 -0.21205438223E+01  0.12105496488E+02 -0.55588297443E+01  0.13488526215E+02  0.00000000000E+00 0.  1.
</event>
<event>
 7    1  0.7755875E-012  0.5930194E+02  0.7816164E-02  0.1266605E+00
        -11   -1    0    0    0    0  0.00000000000E+00  0.00000000000E+00  0.45593999997E+02  0.45594000000E+02  0.51100000000E-03 0.  1.
         11   -1    0    0    0    0 -0.00000000000E+00 -0.00000000000E+00 -0.45593999997E+02  0.45594000000E+02  0.51100000000E-03 0. -1.
    9900012    2    1    2    0    0 -0.25853856576E+02  0.79653404985E+01  0.16877560618E+02  0.59301943462E+02  0.49999998969E+02 0.  0.
         12    1    1    2    0    0  0.25853856576E+02 -0.79653404985E+01 -0.16877560618E+02  0.31886056538E+02  0.00000000000E+00 0. -1.
         11    1    3    3    0    0 -0.14290110339E+02  0.67861122689E+00 -0.91958767347E+01  0.17006819687E+02  0.51100000000E-03 0. -1.
        -11    1    3    3    0    0 -0.43913378350E+01  0.16034665769E+02  0.26144265302E+02  0.30982526732E+02  0.51100000000E-03 0.  1.
         12    1    3    3    0    0 -0.71724084027E+01 -0.87479364970E+01 -0.70827949608E-01  0.11312597043E+02  0.00000000000E+00 0. -1.
</event>
<event>
 7    1  0.7755875E-012  0.5930179E+02  0.7816164E-02  0.1266605E+00
        -11   -1    0    0    0    0  0.00000000000E+00  0.00000000000E+00  0.45593999997E+02  0.45594000000E+02  0.51100000000E-03 0. -1.
         11   -1    0    0    0    0 -0.00000000000E+00 -0.00000000000E+00 -0.45593999997E+02  0.45594000000E+02  0.51100000000E-03 0.  1.
    9900012    2    1    2    0    0 -0.23651199962E+02 -0.20232417946E+02  0.69282100961E+01  0.59301794664E+02  0.49999727596E+02 0.  0.
         12    1    1    2    0    0  0.23651199962E+02  0.20232417946E+02 -0.69282100961E+01  0.31886205336E+02  0.00000000000E+00 0. -1.
         11    1    3    3    0    0  0.21728933533E+01 -0.20174639733E+02 -0.95515290221E+01  0.22426976185E+02  0.51100000000E-03 0.  1.
        -11    1    3    3    0    0 -0.17535159059E+02  0.97878229983E+01  0.92071832030E+01  0.22091978296E+02  0.51100000000E-03 0. -1.
         12    1    3    3    0    0 -0.82889342565E+01 -0.98456012113E+01  0.72725559152E+01  0.14782840182E+02  0.00000000000E+00 0. -1.
</event>
<event>
 7    1  0.7755875E-012  0.5930194E+02  0.7816164E-02  0.1266605E+00
        -11   -1    0    0    0    0  0.00000000000E+00  0.00000000000E+00  0.45593999997E+02  0.45594000000E+02  0.51100000000E-03 0.  1.
         11   -1    0    0    0    0 -0.00000000000E+00 -0.00000000000E+00 -0.45593999997E+02  0.45594000000E+02  0.51100000000E-03 0. -1.
    9900012    2    1    2    0    0  0.31354438039E+02 -0.57890364204E+01  0.32744643774E+00  0.59301938020E+02  0.49999989044E+02 0.  0.
         12    1    1    2    0    0 -0.31354438039E+02  0.57890364204E+01 -0.32744643774E+00  0.31886061980E+02  0.00000000000E+00 0. -1.
         11    1    3    3    0    0 -0.10609266528E+02 -0.27929743416E+01  0.52157219913E+01  0.12147468794E+02  0.51100000000E-03 0. -1.
        -11    1    3    3    0    0  0.30177576740E+02 -0.10912166025E+02  0.14696806004E+00  0.32090233797E+02  0.51100000000E-03 0.  1.
        -12    1    3    3    0    0  0.11786127827E+02  0.79161039466E+01 -0.50352436136E+01  0.15064235430E+02  0.00000000000E+00 0.  1.
</event>
<event>
 7    1  0.7755875E-012  0.5930194E+02  0.7816164E-02  0.1266605E+00
        -11   -1    0    0    0    0  0.00000000000E+00  0.00000000000E+00  0.45593999997E+02  0.45594000000E+02  0.51100000000E-03 0.  1.
         11   -1    0    0    0    0 -0.00000000000E+00 -0.00000000000E+00 -0.45593999997E+02  0.45594000000E+02  0.51100000000E-03 0. -1.
    9900012    2    1    2    0    0  0.26509860239E+02  0.63897819158E+01  0.16526311951E+02  0.59301937378E+02  0.49999987872E+02 0.  0.
         12    1    1    2    0    0 -0.26509860239E+02 -0.63897819158E+01 -0.16526311951E+02  0.31886062622E+02  0.00000000000E+00 0. -1.
         11    1    3    3    0    0  0.11044266550E+02 -0.16261592821E+02 -0.79591934463E+01  0.21207639785E+02  0.51100000000E-03 0. -1.
        -11    1    3    3    0    0  0.15029045380E+02  0.14303910047E+02  0.18670885257E+02  0.27911933007E+02  0.51100000000E-03 0.  1.
         12    1    3    3    0    0  0.43654831006E+00  0.83474646894E+01  0.58146201404E+01  0.10182364585E+02  0.00000000000E+00 0. -1.
</event>
<event>
 7    1  0.7755875E-012  0.5930195E+02  0.7816164E-02  0.1266605E+00
        -11   -1    0    0    0    0  0.00000000000E+00  0.00000000000E+00  0.45593999997E+02  0.45594000000E+02  0.51100000000E-03 0. -1.
         11   -1    0    0    0    0 -0.00000000000E+00 -0.00000000000E+00 -0.45593999997E+02  0.45594000000E+02  0.51100000000E-03 0.  1.
    9900012    2    1    2    0    0  0.21601362121E+02  0.14228585416E+02 -0.18645340365E+02  0.59301949668E+02  0.50000010287E+02 0.  0.
         12    1    1    2    0    0 -0.21601362121E+02 -0.14228585416E+02  0.18645340365E+02  0.31886050332E+02  0.00000000000E+00 0. -1.
         11    1    3    3    0    0 -0.14011128510E+02  0.40227306760E+01  0.10013942113E+01  0.14611532255E+02  0.51100000000E-03 0. -1.
        -11    1    3    3    0    0  0.39034646943E+01  0.36334405307E+01 -0.92539756886E+01  0.10680589544E+02  0.51100000000E-03 0.  1.
         12    1    3    3    0    0  0.31709025937E+02  0.65724142094E+01 -0.10392758888E+02  0.34009827869E+02  0.00000000000E+00 0. -1.
</event>
<event>
 7    1  0.7755875E-012  0.5930193E+02  0.7816164E-02  0.1266605E+00
        -11   -1    0    0    0    0  0.00000000000E+00  0.00000000000E+00  0.45593999997E+02  0.45594000000E+02  0.51100000000E-03 0.  1.
         11   -1    0    0    0    0 -0.00000000000E+00 -0.00000000000E+00 -0.45593999997E+02  0.45594000000E+02  0.51100000000E-03 0. -1.
    9900012    2    1    2    0    0  0.83360546095E+01 -0.68347683107E+01  0.30008625847E+02  0.59301929537E+02  0.49999973573E+02 0.  0.
         12    1    1    2    0    0 -0.83360546095E+01  0.68347683107E+01 -0.30008625847E+02  0.31886070463E+02  0.00000000000E+00 0. -1.
         11    1    3    3    0    0  0.23932582824E+01 -0.28849551635E+01 -0.26996672830E+01  0.46193998746E+01  0.51100000000E-03 0. -1.
        -11    1    3    3    0    0 -0.70893120925E+01 -0.16025803883E+02  0.32489599402E+02  0.36914208722E+02  0.51100000000E-03 0.  1.
        -12    1    3    3    0    0  0.13032108420E+02  0.12075990736E+02  0.21869372867E+00  0.17768320941E+02  0.00000000000E+00 0.  1.
</event>
<event>
 7    1  0.7755875E-012  0.5930193E+02  0.7816164E-02  0.1266605E+00
        -11   -1    0    0    0    0  0.00000000000E+00  0.00000000000E+00  0.45593999997E+02  0.45594000000E+02  0.51100000000E-03 0. -1.
         11   -1    0    0    0    0 -0.00000000000E+00 -0.00000000000E+00 -0.45593999997E+02  0.45594000000E+02  0.51100000000E-03 0.  1.
    9900012    2    1    2    0    0  0.22448328083E+02 -0.20615140157E+02 -0.93706963790E+01  0.59301931129E+02  0.49999976476E+02 0.  0.
         12    1    1    2    0    0 -0.22448328083E+02  0.20615140157E+02  0.93706963790E+01  0.31886068871E+02  0.00000000000E+00 0. -1.
         11    1    3    3    0    0  0.13563771257E+02 -0.19573172584E+01  0.17638907418E+02  0.22336920932E+02  0.51100000000E-03 0. -1.
        -11    1    3    3    0    0 -0.89924371694E+00 -0.14571090889E+02 -0.16599610290E+02  0.22105935651E+02  0.51100000000E-03 0.  1.
         12    1    3    3    0    0  0.97838005421E+01 -0.40867320101E+01 -0.10409993507E+02  0.14859074547E+02  0.00000000000E+00 0. -1.
</event>
<event>
 7    1  0.7755875E-012  0.5930203E+02  0.7816164E-02  0.1266604E+00
        -11   -1    0    0    0    0  0.00000000000E+00  0.00000000000E+00  0.45593999997E+02  0.45594000000E+02  0.51100000000E-03 0.  1.
         11   -1    0    0    0    0 -0.00000000000E+00 -0.00000000000E+00 -0.45593999997E+02  0.45594000000E+02  0.51100000000E-03 0. -1.
    9900012    2    1    2    0    0  0.14637724022E+02 -0.19994971350E+02  0.20066227781E+02  0.59302025948E+02  0.50000149404E+02 0.  0.
         12    1    1    2    0    0 -0.14637724022E+02  0.19994971350E+02 -0.20066227781E+02  0.31885974052E+02  0.00000000000E+00 0. -1.
         11    1    3    3    0    0  0.82265523187E+01  0.24844656610E+01 -0.54822466850E+00  0.86109978064E+01  0.51100000000E-03 0. -1.
        -11    1    3    3    0    0 -0.45609337258E+01 -0.31550094943E+02  0.16371094154E+02  0.35836061885E+02  0.51100000000E-03 0.  1.
        -12    1    3    3    0    0  0.10972105429E+02  0.90706579318E+01  0.42433582956E+01  0.14854966257E+02  0.00000000000E+00 0.  1.
</event>
<event>
 7    1  0.7755875E-012  0.5930194E+02  0.7816164E-02  0.1266605E+00
        -11   -1    0    0    0    0  0.00000000000E+00  0.00000000000E+00  0.45593999997E+02  0.45594000000E+02  0.51100000000E-03 0.  1.
         11   -1    0    0    0    0 -0.00000000000E+00 -0.00000000000E+00 -0.45593999997E+02  0.45594000000E+02  0.51100000000E-03 0. -1.
    9900012    2    1    2    0    0  0.27276598763E+02 -0.16212082685E+02  0.31426812898E+01  0.59301938613E+02  0.49999990125E+02 0.  0.
         12    1    1    2    0    0 -0.27276598763E+02  0.16212082685E+02 -0.31426812898E+01  0.31886061387E+02  0.00000000000E+00 0. -1.
         11    1    3    3    0    0  0.16786509795E+01 -0.32883587573E+01 -0.47088135699E+00  0.37219486752E+01  0.51100000000E-03 0. -1.
        -11    1    3    3    0    0  0.32169162117E+02  0.75839383408E+01  0.69901271525E+01  0.33782140103E+02  0.51100000000E-03 0.  1.
        -12    1    3    3    0    0 -0.65712143340E+01 -0.20507662269E+02 -0.33765645057E+01  0.21797849835E+02  0.00000000000E+00 0.  1.
</event>
<event>
 7    1  0.7755875E-012  0.5930192E+02  0.7816164E-02  0.1266605E+00
        -11   -1    0    0    0    0  0.00000000000E+00  0.00000000000E+00  0.45593999997E+02  0.45594000000E+02  0.51100000000E-03 0. -1.
         11   -1    0    0    0    0 -0.00000000000E+00 -0.00000000000E+00 -0.45593999997E+02  0.45594000000E+02  0.51100000000E-03 0.  1.
    9900012    2    1    2    0    0  0.18003773639E+02 -0.55337312469E+01 -0.25728662286E+02  0.59301919811E+02  0.49999955835E+02 0.  0.
         12    1    1    2    0    0 -0.18003773639E+02  0.55337312469E+01  0.25728662286E+02  0.31886080189E+02  0.00000000000E+00 0. -1.
         11    1    3    3    0    0 -0.33770007249E+01 -0.70423964834E+01 -0.11129656693E+02  0.13596644457E+02  0.51100000000E-03 0. -1.
        -11    1    3    3    0    0  0.27325651933E+02  0.13084222193E+02 -0.10382795673E+02  0.32026404266E+02  0.51100000000E-03 0.  1.
        -12    1    3    3    0    0 -0.59448775695E+01 -0.11575556956E+02 -0.42162099199E+01  0.13678871088E+02  0.00000000000E+00 0.  1.
</event>
<event>
 7    1  0.7755875E-012  0.5930193E+02  0.7816164E-02  0.1266605E+00
        -11   -1    0    0    0    0  0.00000000000E+00  0.00000000000E+00  0.45593999997E+02  0.45594000000E+02  0.51100000000E-03 0.  1.
         11   -1    0    0    0    0 -0.00000000000E+00 -0.00000000000E+00 -0.45593999997E+02  0.45594000000E+02  0.51100000000E-03 0. -1.
    9900012    2    1    2    0    0  0.13983552643E+02  0.12794528217E+02  0.25641412692E+02  0.59301925584E+02  0.49999966364E+02 0.  0.
         12    1    1    2    0    0 -0.13983552643E+02 -0.12794528217E+02 -0.25641412692E+02  0.31886074416E+02  0.00000000000E+00 0. -1.
         11    1    3    3    0    0  0.16098981303E+02 -0.10025608169E+02  0.17433373111E+02  0.25760677717E+02  0.51100000000E-03 0. -1.
        -11    1    3    3    0    0 -0.10239528401E+02  0.14133316742E+02 -0.23839148217E+01  0.17614812918E+02  0.51100000000E-03 0.  1.
         12    1    3    3    0    0  0.81240997415E+01  0.86868196441E+01  0.10591954402E+02  0.15926434949E+02  0.00000000000E+00 0. -1.
</event>
<event>
 7    1  0.7755875E-012  0.5930194E+02  0.7816164E-02  0.1266605E+00
        -11   -1    0    0    0    0  0.00000000000E+00  0.00000000000E+00  0.45593999997E+02  0.45594000000E+02  0.51100000000E-03 0.  1.
         11   -1    0    0    0    0 -0.00000000000E+00 -0.00000000000E+00 -0.45593999997E+02  0.45594000000E+02  0.51100000000E-03 0. -1.
    9900012    2    1    2    0    0  0.30026098222E+02 -0.73886308210E+01 -0.77821776202E+01  0.59301941473E+02  0.49999995342E+02 0.  0.
         12    1    1    2    0    0 -0.30026098222E+02  0.73886308210E+01  0.77821776202E+01  0.31886058527E+02  0.00000000000E+00 0. -1.
         11    1    3    3    0    0  0.23233468788E+02 -0.19593428971E+02 -0.21807141550E+01  0.30470511076E+02  0.51100000000E-03 0.  1.
        -11    1    3    3    0    0  0.88490826296E+01  0.43055348935E+01 -0.14004622283E+02  0.17116463994E+02  0.51100000000E-03 0. -1.
         12    1    3    3    0    0 -0.20564531956E+01  0.78992632561E+01  0.84031588173E+01  0.11714966404E+02  0.00000000000E+00 0. -1.
</event>
<event>
 7    1  0.7755875E-012  0.5930189E+02  0.7816164E-02  0.1266605E+00
        -11   -1    0    0    0    0  0.00000000000E+00  0.00000000000E+00  0.45593999997E+02  0.45594000000E+02  0.51100000000E-03 0.  1.
         11   -1    0    0    0    0 -0.00000000000E+00 -0.00000000000E+00 -0.45593999997E+02  0.45594000000E+02  0.51100000000E-03 0. -1.
    9900012    2    1    2    0    0 -0.71146020481E+01 -0.13923004872E+02  0.27789502314E+02  0.59301889139E+02  0.49999899896E+02 0.  0.
         12    1    1    2    0    0  0.71146020481E+01  0.13923004872E+02 -0.27789502314E+02  0.31886110861E+02  0.00000000000E+00 0. -1.
         11    1    3    3    0    0 -0.50442522049E+01  0.75937626452E+01 -0.38929675746E+01  0.99128657923E+01  0.51100000000E-03 0. -1.
        -11    1    3    3    0    0 -0.15654832767E+02 -0.10357300249E+02  0.23276735973E+02  0.29902406178E+02  0.51100000000E-03 0.  1.
        -12    1    3    3    0    0  0.13584482924E+02 -0.11159467268E+02  0.84057339155E+01  0.19486617168E+02  0.00000000000E+00 0.  1.
</event>
<event>
 7    1  0.7755875E-012  0.5930197E+02  0.7816164E-02  0.1266605E+00
        -11   -1    0    0    0    0  0.00000000000E+00  0.00000000000E+00  0.45593999997E+02  0.45594000000E+02  0.51100000000E-03 0.  1.
         11   -1    0    0    0    0 -0.00000000000E+00 -0.00000000000E+00 -0.45593999997E+02  0.45594000000E+02  0.51100000000E-03 0. -1.
    9900012    2    1    2    0    0 -0.13243572520E+02  0.15789895084E+01  0.28962619981E+02  0.59301972070E+02  0.50000051143E+02 0.  0.
         12    1    1    2    0    0  0.13243572520E+02 -0.15789895084E+01 -0.28962619981E+02  0.31886027930E+02  0.00000000000E+00 0. -1.
         11    1    3    3    0    0 -0.55674084152E+01  0.20111520710E+02  0.10789778773E+02  0.23492309975E+02  0.51100000000E-03 0. -1.
        -11    1    3    3    0    0 -0.13784031462E+02 -0.29342609863E+01  0.78184329949E+01  0.16116367632E+02  0.51100000000E-03 0.  1.
         12    1    3    3    0    0  0.61078673579E+01 -0.15598270215E+02  0.10354408213E+02  0.19693294463E+02  0.00000000000E+00 0. -1.
</event>
<event>
 7    1  0.7755875E-012  0.5930198E+02  0.7816164E-02  0.1266605E+00
        -11   -1    0    0    0    0  0.00000000000E+00  0.00000000000E+00  0.45593999997E+02  0.45594000000E+02  0.51100000000E-03 0.  1.
         11   -1    0    0    0    0 -0.00000000000E+00 -0.00000000000E+00 -0.45593999997E+02  0.45594000000E+02  0.51100000000E-03 0. -1.
    9900012    2    1    2    0    0  0.59155761613E+01  0.18066909723E+02  0.25599041521E+02  0.59301981198E+02  0.50000067790E+02 0.  0.
         12    1    1    2    0    0 -0.59155761613E+01 -0.18066909723E+02 -0.25599041521E+02  0.31886018802E+02  0.00000000000E+00 0. -1.
         11    1    3    3    0    0 -0.16639710231E+02 -0.14505400669E+01  0.12661109212E+00  0.16703294695E+02  0.51100000000E-03 0. -1.
        -11    1    3    3    0    0  0.78853166207E+01  0.17596103294E+02  0.15723449023E+02  0.24880271678E+02  0.51100000000E-03 0.  1.
         12    1    3    3    0    0  0.14669969771E+02  0.19213464958E+01  0.97489814062E+01  0.17718414825E+02  0.00000000000E+00 0. -1.
</event>
<event>
 7    1  0.7755875E-012  0.5930195E+02  0.7816164E-02  0.1266605E+00
        -11   -1    0    0    0    0  0.00000000000E+00  0.00000000000E+00  0.45593999997E+02  0.45594000000E+02  0.51100000000E-03 0.  1.
         11   -1    0    0    0    0 -0.00000000000E+00 -0.00000000000E+00 -0.45593999997E+02  0.45594000000E+02  0.51100000000E-03 0. -1.
    9900012    2    1    2    0    0 -0.23246097226E+02 -0.21017078439E+02  0.58840353251E+01  0.59301945147E+02  0.50000002042E+02 0.  0.
         12    1    1    2    0    0  0.23246097226E+02  0.21017078439E+02 -0.58840353251E+01  0.31886054853E+02  0.00000000000E+00 0. -1.
         11    1    3    3    0    0  0.42715241392E+01  0.88772848693E+01  0.98379678171E+01  0.13922561408E+02  0.51100000000E-03 0. -1.
        -11    1    3    3    0    0  0.26369926821E+01 -0.63370514236E+01 -0.15614039036E+01  0.70391713690E+01  0.51100000000E-03 0.  1.
         12    1    3    3    0    0 -0.30154614047E+02 -0.23557311885E+02 -0.23925285884E+01  0.38340212371E+02  0.00000000000E+00 0. -1.
</event>
<event>
 7    1  0.7755875E-012  0.5930201E+02  0.7816164E-02  0.1266605E+00
        -11   -1    0    0    0    0  0.00000000000E+00  0.00000000000E+00  0.45593999997E+02  0.45594000000E+02  0.51100000000E-03 0.  1.
         11   -1    0    0    0    0 -0.00000000000E+00 -0.00000000000E+00 -0.45593999997E+02  0.45594000000E+02  0.51100000000E-03 0. -1.
    9900012    2    1    2    0    0  0.16534205759E+02  0.26410546342E+01  0.27135982042E+02  0.59302005409E+02  0.50000111945E+02 0.  0.
         12    1    1    2    0    0 -0.16534205759E+02 -0.26410546342E+01 -0.27135982042E+02  0.31885994591E+02  0.00000000000E+00 0. -1.
         11    1    3    3    0    0  0.27779329217E+01 -0.77407023659E+01 -0.14415575862E+01  0.83494594418E+01  0.51100000000E-03 0. -1.
        -11    1    3    3    0    0  0.76667813502E+01  0.62357694626E+01  0.37844836036E+02  0.39113884643E+02  0.51100000000E-03 0.  1.
        -12    1    3    3    0    0  0.60894914874E+01  0.41459875375E+01 -0.92672964077E+01  0.11838661324E+02  0.00000000000E+00 0.  1.
</event>
<event>
 7    1  0.7755875E-012  0.5930196E+02  0.7816164E-02  0.1266605E+00
        -11   -1    0    0    0    0  0.00000000000E+00  0.00000000000E+00  0.45593999997E+02  0.45594000000E+02  0.51100000000E-03 0.  1.
         11   -1    0    0    0    0 -0.00000000000E+00 -0.00000000000E+00 -0.45593999997E+02  0.45594000000E+02  0.51100000000E-03 0. -1.
    9900012    2    1    2    0    0 -0.24713345898E+00  0.20839493730E+02  0.24132426340E+02  0.59301959561E+02  0.50000028329E+02 0.  0.
         12    1    1    2    0    0  0.24713345898E+00 -0.20839493730E+02 -0.24132426340E+02  0.31886040439E+02  0.00000000000E+00 0. -1.
         11    1    3    3    0    0 -0.19754685469E+02  0.30329392531E+01  0.58974812868E+00  0.19994852378E+02  0.51100000000E-03 0. -1.
        -11    1    3    3    0    0  0.12682743481E+02  0.18186322572E+02  0.10392856191E+02  0.24486848939E+02  0.51100000000E-03 0.  1.
        -12    1    3    3    0    0  0.68248085293E+01 -0.37976809541E+00  0.13149822020E+02  0.14820258244E+02  0.00000000000E+00 0.  1.
</event>
<event>
 7    1  0.7755875E-012  0.5930192E+02  0.7816164E-02  0.1266605E+00
        -11   -1    0    0    0    0  0.00000000000E+00  0.00000000000E+00  0.45593999997E+02  0.45594000000E+02  0.51100000000E-03 0. -1.
         11   -1    0    0    0    0 -0.00000000000E+00 -0.00000000000E+00 -0.45593999997E+02  0.45594000000E+02  0.51100000000E-03 0.  1.
    9900012    2    1    2    0    0 -0.14408223967E+02 -0.25251525864E+02 -0.13095253713E+02  0.59301919242E+02  0.49999954796E+02 0.  0.
         12    1    1    2    0    0  0.14408223967E+02  0.25251525864E+02  0.13095253713E+02  0.31886080758E+02  0.00000000000E+00 0. -1.
         11    1    3    3    0    0 -0.97629062291E+01 -0.18274939542E+02  0.60123938838E+01  0.21573980481E+02  0.51100000000E-03 0. -1.
        -11    1    3    3    0    0  0.10498701905E+01  0.11594360210E+02 -0.12805843813E+02  0.17306676519E+02  0.51100000000E-03 0.  1.
        -12    1    3    3    0    0 -0.56951879280E+01 -0.18570946532E+02 -0.63018037838E+01  0.20421262242E+02  0.00000000000E+00 0.  1.
</event>
<event>
 7    1  0.7767121E-012  0.5930195E+02  0.7816164E-02  0.1266605E+00
        -11   -1    0    0    0    0  0.00000000000E+00  0.00000000000E+00  0.45593999997E+02  0.45594000000E+02  0.51100000000E-03 0. -1.
         11   -1    0    0    0    0 -0.00000000000E+00 -0.00000000000E+00 -0.45593999997E+02  0.45594000000E+02  0.51100000000E-03 0.  1.
    9900012    2    1    2    0    0  0.41653688129E+01 -0.22050089124E+02 -0.22653115828E+02  0.59301946867E+02  0.50000005177E+02 0.  0.
         12    1    1    2    0    0 -0.41653688129E+01  0.22050089124E+02  0.22653115828E+02  0.31886053133E+02  0.00000000000E+00 0. -1.
         11    1    3    3    0    0  0.11907409303E+02  0.36095521619E+01  0.28239105684E+01  0.12758908037E+02  0.51100000000E-03 0. -1.
        -11    1    3    3    0    0 -0.48675559495E+01 -0.89710696008E+01 -0.27646462617E+02  0.29470325519E+02  0.51100000000E-03 0.  1.
        -12    1    3    3    0    0 -0.28744845410E+01 -0.16688571685E+02  0.21694362211E+01  0.17072713311E+02  0.00000000000E+00 0.  1.
</event>
<event>
 7    1  0.7755875E-012  0.5930187E+02  0.7816164E-02  0.1266605E+00
        -11   -1    0    0    0    0  0.00000000000E+00  0.00000000000E+00  0.45593999997E+02  0.45594000000E+02  0.51100000000E-03 0. -1.
         11   -1    0    0    0    0 -0.00000000000E+00 -0.00000000000E+00 -0.45593999997E+02  0.45594000000E+02  0.51100000000E-03 0.  1.
    9900012    2    1    2    0    0 -0.56984997842E+01 -0.29372909702E+02 -0.11022014835E+02  0.59301866099E+02  0.49999857876E+02 0.  0.
         12    1    1    2    0    0  0.56984997842E+01  0.29372909702E+02  0.11022014835E+02  0.31886133901E+02  0.00000000000E+00 0. -1.
         11    1    3    3    0    0  0.13217392077E+02 -0.27448383530E+01  0.55097169908E+01  0.14580486017E+02  0.51100000000E-03 0. -1.
        -11    1    3    3    0    0 -0.59947970714E+01 -0.13768574901E+02 -0.21128084370E+02  0.25921172739E+02  0.51100000000E-03 0.  1.
         12    1    3    3    0    0 -0.12921094790E+02 -0.12859496448E+02  0.45963525446E+01  0.18800207344E+02  0.00000000000E+00 0. -1.
</event>
<event>
 7    1  0.7755875E-012  0.5930194E+02  0.7816164E-02  0.1266605E+00
        -11   -1    0    0    0    0  0.00000000000E+00  0.00000000000E+00  0.45593999997E+02  0.45594000000E+02  0.51100000000E-03 0. -1.
         11   -1    0    0    0    0 -0.00000000000E+00 -0.00000000000E+00 -0.45593999997E+02  0.45594000000E+02  0.51100000000E-03 0.  1.
    9900012    2    1    2    0    0  0.12385796052E+02 -0.27459008624E+02  0.10455419728E+02  0.59301938780E+02  0.49999990429E+02 0.  0.
         12    1    1    2    0    0 -0.12385796052E+02  0.27459008624E+02 -0.10455419728E+02  0.31886061220E+02  0.00000000000E+00 0. -1.
         11    1    3    3    0    0  0.13427746463E+02 -0.72409771081E+01  0.20644707269E+02  0.25669827874E+02  0.51100000000E-03 0. -1.
        -11    1    3    3    0    0  0.42135292499E+01 -0.20634086848E+02  0.11873342967E+01  0.21093343305E+02  0.51100000000E-03 0.  1.
        -12    1    3    3    0    0 -0.52554796610E+01  0.41605533242E+00 -0.11376621838E+02  0.12538767601E+02  0.00000000000E+00 0.  1.
</event>
<event>
 7    1  0.7755875E-012  0.5930194E+02  0.7816164E-02  0.1266605E+00
        -11   -1    0    0    0    0  0.00000000000E+00  0.00000000000E+00  0.45593999997E+02  0.45594000000E+02  0.51100000000E-03 0.  1.
         11   -1    0    0    0    0 -0.00000000000E+00 -0.00000000000E+00 -0.45593999997E+02  0.45594000000E+02  0.51100000000E-03 0. -1.
    9900012    2    1    2    0    0 -0.11728358125E+02 -0.78585540876E+01  0.28590372681E+02  0.59301942441E+02  0.49999997105E+02 0.  0.
         12    1    1    2    0    0  0.11728358125E+02  0.78585540876E+01 -0.28590372681E+02  0.31886057559E+02  0.00000000000E+00 0. -1.
         11    1    3    3    0    0  0.61326799640E+01 -0.10036685784E-01  0.22076850194E+02  0.22912816916E+02  0.51100000000E-03 0.  1.
        -11    1    3    3    0    0 -0.20611503550E+02  0.30571352317E+01 -0.37395967394E+01  0.21169901711E+02  0.51100000000E-03 0. -1.
         12    1    3    3    0    0  0.27504654613E+01 -0.10905652633E+02  0.10253119226E+02  0.15219223813E+02  0.00000000000E+00 0. -1.
</event>
<event>
 7    1  0.7755875E-012  0.5930195E+02  0.7816164E-02  0.1266605E+00
        -11   -1    0    0    0    0  0.00000000000E+00  0.00000000000E+00  0.45593999997E+02  0.45594000000E+02  0.51100000000E-03 0. -1.
         11   -1    0    0    0    0 -0.00000000000E+00 -0.00000000000E+00 -0.45593999997E+02  0.45594000000E+02  0.51100000000E-03 0.  1.
    9900012    2    1    2    0    0 -0.11140739025E+01  0.12878791074E+02 -0.29148173825E+02  0.59301945721E+02  0.50000003088E+02 0.  0.
         12    1    1    2    0    0  0.11140739025E+01 -0.12878791074E+02  0.29148173825E+02  0.31886054279E+02  0.00000000000E+00 0. -1.
         11    1    3    3    0    0  0.10551645435E+02  0.18709661232E+02 -0.53201655653E+01  0.22129003744E+02  0.51100000000E-03 0. -1.
        -11    1    3    3    0    0 -0.37391697367E+01 -0.13997688612E+02 -0.52976688188E+01  0.15426664318E+02  0.51100000000E-03 0.  1.
        -12    1    3    3    0    0 -0.79265496004E+01  0.81668184535E+01 -0.18530339441E+02  0.21746277659E+02  0.00000000000E+00 0.  1.
</event>
<event>
 7    1  0.7755875E-012  0.5930191E+02  0.7816164E-02  0.1266605E+00
        -11   -1    0    0    0    0  0.00000000000E+00  0.00000000000E+00  0.45593999997E+02  0.45594000000E+02  0.51100000000E-03 0. -1.
         11   -1    0    0    0    0 -0.00000000000E+00 -0.00000000000E+00 -0.45593999997E+02  0.45594000000E+02  0.51100000000E-03 0.  1.
    9900012    2    1    2    0    0  0.54848154881E+01 -0.26834473204E+02 -0.16326367667E+02  0.59301914723E+02  0.49999946555E+02 0.  0.
         12    1    1    2    0    0 -0.54848154881E+01  0.26834473204E+02  0.16326367667E+02  0.31886085277E+02  0.00000000000E+00 0. -1.
         11    1    3    3    0    0 -0.60485753317E+01 -0.24868002024E+01  0.11193643422E+02  0.12964069273E+02  0.51100000000E-03 0. -1.
        -11    1    3    3    0    0  0.22697602885E+00 -0.24400604498E+02 -0.12155830380E+02  0.27261790669E+02  0.51100000000E-03 0.  1.
         12    1    3    3    0    0  0.11306414791E+02  0.52931495908E-01 -0.15364180709E+02  0.19076054781E+02  0.00000000000E+00 0. -1.
</event>
<event>
 7    1  0.7755875E-012  0.5930195E+02  0.7816164E-02  0.1266605E+00
        -11   -1    0    0    0    0  0.00000000000E+00  0.00000000000E+00  0.45593999997E+02  0.45594000000E+02  0.51100000000E-03 0.  1.
         11   -1    0    0    0    0 -0.00000000000E+00 -0.00000000000E+00 -0.45593999997E+02  0.45594000000E+02  0.51100000000E-03 0. -1.
    9900012    2    1    2    0    0  0.21864774201E+02  0.59911143979E+01  0.22422268083E+02  0.59301954328E+02  0.50000018786E+02 0.  0.
         12    1    1    2    0    0 -0.21864774201E+02 -0.59911143979E+01 -0.22422268083E+02  0.31886045672E+02  0.00000000000E+00 0. -1.
         11    1    3    3    0    0  0.28218820251E+02 -0.73727494416E+01  0.15194518719E+02  0.32886663712E+02  0.51100000000E-03 0. -1.
        -11    1    3    3    0    0  0.54184595113E+00  0.16917477132E+02  0.77992357909E+01  0.18636595953E+02  0.51100000000E-03 0.  1.
        -12    1    3    3    0    0 -0.68958920015E+01 -0.35536132925E+01 -0.57148642715E+00  0.77786946634E+01  0.00000000000E+00 0.  1.
</event>
<event>
 7    1  0.7755875E-012  0.5930192E+02  0.7816164E-02  0.1266605E+00
        -11   -1    0    0    0    0  0.00000000000E+00  0.00000000000E+00  0.45593999997E+02  0.45594000000E+02  0.51100000000E-03 0. -1.
         11   -1    0    0    0    0 -0.00000000000E+00 -0.00000000000E+00 -0.45593999997E+02  0.45594000000E+02  0.51100000000E-03 0.  1.
    9900012    2    1    2    0    0 -0.91007439089E+01 -0.29608010359E+01 -0.30415981641E+02  0.59301924329E+02  0.49999964075E+02 0.  0.
         12    1    1    2    0    0  0.91007439089E+01  0.29608010359E+01  0.30415981641E+02  0.31886075671E+02  0.00000000000E+00 0. -1.
         11    1    3    3    0    0 -0.41949767206E+01 -0.78438370396E+01  0.54654059809E+01  0.10440032183E+02  0.51100000000E-03 0. -1.
        -11    1    3    3    0    0  0.85014207090E+01  0.75643535986E+01 -0.32975579962E+02  0.34883842586E+02  0.51100000000E-03 0.  1.
        -12    1    3    3    0    0 -0.13407187897E+02 -0.26813175949E+01 -0.29058076600E+01  0.13978049560E+02  0.00000000000E+00 0.  1.
</event>
<event>
 7    1  0.7755875E-012  0.5930192E+02  0.7816164E-02  0.1266605E+00
        -11   -1    0    0    0    0  0.00000000000E+00  0.00000000000E+00  0.45593999997E+02  0.45594000000E+02  0.51100000000E-03 0.  1.
         11   -1    0    0    0    0 -0.00000000000E+00 -0.00000000000E+00 -0.45593999997E+02  0.45594000000E+02  0.51100000000E-03 0. -1.
    9900012    2    1    2    0    0 -0.82881963927E+01 -0.27155971365E+02  0.14511405066E+02  0.59301923772E+02  0.49999963059E+02 0.  0.
         12    1    1    2    0    0  0.82881963927E+01  0.27155971365E+02 -0.14511405066E+02  0.31886076228E+02  0.00000000000E+00 0. -1.
         11    1    3    3    0    0  0.11915420210E+02 -0.17821283045E+02 -0.77861652716E+00  0.21451844026E+02  0.51100000000E-03 0. -1.
        -11    1    3    3    0    0 -0.12453005839E+02 -0.11073431314E+02  0.21897955827E+02  0.27517607184E+02  0.51100000000E-03 0.  1.
        -12    1    3    3    0    0 -0.77506107638E+01  0.17387429945E+01 -0.66079342333E+01  0.10332472562E+02  0.00000000000E+00 0.  1.
</event>
<event>
 7    1  0.7755875E-012  0.5930197E+02  0.7816164E-02  0.1266605E+00
        -11   -1    0    0    0    0  0.00000000000E+00  0.00000000000E+00  0.45593999997E+02  0.45594000000E+02  0.51100000000E-03 0.  1.
         11   -1    0    0    0    0 -0.00000000000E+00 -0.00000000000E+00 -0.45593999997E+02  0.45594000000E+02  0.51100000000E-03 0. -1.
    9900012    2    1    2    0    0 -0.14311953948E+02  0.10374569931E+02  0.26537809220E+02  0.59301967866E+02  0.50000043475E+02 0.  0.
         12    1    1    2    0    0  0.14311953948E+02 -0.10374569931E+02 -0.26537809220E+02  0.31886032134E+02  0.00000000000E+00 0. -1.
         11    1    3    3    0    0 -0.24295692407E+02  0.84306214901E+01 -0.29938452045E+01  0.25890522544E+02  0.51100000000E-03 0. -1.
        -11    1    3    3    0    0  0.29391863249E+01 -0.33280118789E+01  0.19800397363E+02  0.20292122001E+02  0.51100000000E-03 0.  1.
         12    1    3    3    0    0  0.70445521342E+01  0.52719603203E+01  0.97312570616E+01  0.13119323321E+02  0.00000000000E+00 0. -1.
</event>
<event>
 7    1  0.7755875E-012  0.5930196E+02  0.7816164E-02  0.1266605E+00
        -11   -1    0    0    0    0  0.00000000000E+00  0.00000000000E+00  0.45593999997E+02  0.45594000000E+02  0.51100000000E-03 0. -1.
         11   -1    0    0    0    0 -0.00000000000E+00 -0.00000000000E+00 -0.45593999997E+02  0.45594000000E+02  0.51100000000E-03 0.  1.
    9900012    2    1    2    0    0 -0.63183686110E+01  0.50454295112E+01 -0.30843820739E+02  0.59301962011E+02  0.50000032798E+02 0.  0.
         12    1    1    2    0    0  0.63183686110E+01 -0.50454295112E+01  0.30843820739E+02  0.31886037989E+02  0.00000000000E+00 0. -1.
         11    1    3    3    0    0 -0.86936808529E+01 -0.32107157496E+01  0.46072009540E+00  0.92790649133E+01  0.51100000000E-03 0. -1.
        -11    1    3    3    0    0  0.17874734164E+02  0.13159698010E+02 -0.13813558183E+02  0.26143797793E+02  0.51100000000E-03 0.  1.
        -12    1    3    3    0    0 -0.15499421922E+02 -0.49035527490E+01 -0.17490982652E+02  0.23879099305E+02  0.00000000000E+00 0.  1.
</event>
<event>
 7    1  0.7755875E-012  0.5930193E+02  0.7816164E-02  0.1266605E+00
        -11   -1    0    0    0    0  0.00000000000E+00  0.00000000000E+00  0.45593999997E+02  0.45594000000E+02  0.51100000000E-03 0.  1.
         11   -1    0    0    0    0 -0.00000000000E+00 -0.00000000000E+00 -0.45593999997E+02  0.45594000000E+02  0.51100000000E-03 0. -1.
    9900012    2    1    2    0    0  0.75717801616E+01 -0.13668448020E+02  0.27795017655E+02  0.59301932000E+02  0.49999978064E+02 0.  0.
         12    1    1    2    0    0 -0.75717801616E+01  0.13668448020E+02 -0.27795017655E+02  0.31886068000E+02  0.00000000000E+00 0. -1.
         11    1    3    3    0    0  0.17226866678E+02  0.49211613906E+01  0.11284123388E+02  0.21173431604E+02  0.51100000000E-03 0. -1.
        -11    1    3    3    0    0 -0.85863700721E+01 -0.48337526744E+01  0.21344413519E+02  0.23509038786E+02  0.51100000000E-03 0.  1.
         12    1    3    3    0    0 -0.10687164445E+01 -0.13755856736E+02 -0.48335192521E+01  0.14619461610E+02  0.00000000000E+00 0. -1.
</event>
<event>
 7    1  0.7755875E-012  0.5930190E+02  0.7816164E-02  0.1266605E+00
        -11   -1    0    0    0    0  0.00000000000E+00  0.00000000000E+00  0.45593999997E+02  0.45594000000E+02  0.51100000000E-03 0. -1.
         11   -1    0    0    0    0 -0.00000000000E+00 -0.00000000000E+00 -0.45593999997E+02  0.45594000000E+02  0.51100000000E-03 0.  1.
    9900012    2    1    2    0    0 -0.23041783554E+02 -0.20013608184E+02  0.92333770353E+01  0.59301897175E+02  0.49999914552E+02 0.  0.
         12    1    1    2    0    0  0.23041783554E+02  0.20013608184E+02 -0.92333770353E+01  0.31886102825E+02  0.00000000000E+00 0. -1.
         11    1    3    3    0    0 -0.17599265139E+02 -0.47509150481E+01  0.62217648494E+01  0.19261767451E+02  0.51100000000E-03 0. -1.
        -11    1    3    3    0    0 -0.34448822040E+01 -0.20883401798E+02 -0.11686530519E+02  0.24177648353E+02  0.51100000000E-03 0.  1.
        -12    1    3    3    0    0 -0.19976362114E+01  0.56207086619E+01  0.14698142705E+02  0.15862481372E+02  0.00000000000E+00 0.  1.
</event>
<event>
 7    1  0.7755875E-012  0.5930188E+02  0.7816164E-02  0.1266605E+00
        -11   -1    0    0    0    0  0.00000000000E+00  0.00000000000E+00  0.45593999997E+02  0.45594000000E+02  0.51100000000E-03 0. -1.
         11   -1    0    0    0    0 -0.00000000000E+00 -0.00000000000E+00 -0.45593999997E+02  0.45594000000E+02  0.51100000000E-03 0.  1.
    9900012    2    1    2    0    0  0.50212581770E+00  0.74603061542E+01 -0.30997033420E+02  0.59301884227E+02  0.49999890938E+02 0.  0.
         12    1    1    2    0    0 -0.50212581770E+00 -0.74603061542E+01  0.30997033420E+02  0.31886115773E+02  0.00000000000E+00 0. -1.
         11    1    3    3    0    0  0.53720829352E+01  0.24232711290E+02 -0.20237068237E+02  0.32025341569E+02  0.51100000000E-03 0. -1.
        -11    1    3    3    0    0 -0.19145828741E+01 -0.19159403008E+02 -0.12644908423E+02  0.23035669308E+02  0.51100000000E-03 0.  1.
         12    1    3    3    0    0 -0.29553742434E+01  0.23869978714E+01  0.18849432396E+01  0.42408733503E+01  0.00000000000E+00 0. -1.
</event>
<event>
 7    1  0.7755875E-012  0.5930199E+02  0.7816164E-02  0.1266605E+00
        -11   -1    0    0    0    0  0.00000000000E+00  0.00000000000E+00  0.45593999997E+02  0.45594000000E+02  0.51100000000E-03 0. -1.
         11   -1    0    0    0    0 -0.00000000000E+00 -0.00000000000E+00 -0.45593999997E+02  0.45594000000E+02  0.51100000000E-03 0.  1.
    9900012    2    1    2    0    0 -0.31543226703E+02  0.40093779445E+01 -0.23806872058E+01  0.59301985292E+02  0.50000075257E+02 0.  0.
         12    1    1    2    0    0  0.31543226703E+02 -0.40093779445E+01  0.23806872058E+01  0.31886014708E+02  0.00000000000E+00 0. -1.
         11    1    3    3    0    0 -0.67865158011E+01 -0.86951297159E+01 -0.96355841583E+01  0.14646042463E+02  0.51100000000E-03 0.  1.
        -11    1    3    3    0    0 -0.16113555066E+02  0.40451527788E+00  0.19476777843E+02  0.25281518247E+02  0.51100000000E-03 0. -1.
        -12    1    3    3    0    0 -0.86431558367E+01  0.12299992383E+02 -0.12221880890E+02  0.19374424583E+02  0.00000000000E+00 0.  1.
</event>
<event>
 7    1  0.7755875E-012  0.5930194E+02  0.7816164E-02  0.1266605E+00
        -11   -1    0    0    0    0  0.00000000000E+00  0.00000000000E+00  0.45593999997E+02  0.45594000000E+02  0.51100000000E-03 0.  1.
         11   -1    0    0    0    0 -0.00000000000E+00 -0.00000000000E+00 -0.45593999997E+02  0.45594000000E+02  0.51100000000E-03 0. -1.
    9900012    2    1    2    0    0  0.13254509958E+02 -0.28355238879E+02 -0.60843215459E+01  0.59301943882E+02  0.49999999733E+02 0.  0.
         12    1    1    2    0    0 -0.13254509958E+02  0.28355238879E+02  0.60843215459E+01  0.31886056118E+02  0.00000000000E+00 0. -1.
         11    1    3    3    0    0 -0.87002402475E+01 -0.48189131243E+01  0.71572138356E+01  0.12253236887E+02  0.51100000000E-03 0. -1.
        -11    1    3    3    0    0  0.60900046519E+01 -0.17618860728E+02 -0.21292366829E+02  0.28299775537E+02  0.51100000000E-03 0.  1.
        -12    1    3    3    0    0  0.15864745553E+02 -0.59174650274E+01  0.80508314470E+01  0.18748931458E+02  0.00000000000E+00 0.  1.
</event>
<event>
 7    1  0.7755875E-012  0.5930191E+02  0.7816164E-02  0.1266605E+00
        -11   -1    0    0    0    0  0.00000000000E+00  0.00000000000E+00  0.45593999997E+02  0.45594000000E+02  0.51100000000E-03 0.  1.
         11   -1    0    0    0    0 -0.00000000000E+00 -0.00000000000E+00 -0.45593999997E+02  0.45594000000E+02  0.51100000000E-03 0. -1.
    9900012    2    1    2    0    0 -0.25537002913E+02 -0.15412856079E+02 -0.11270686145E+02  0.59301905593E+02  0.49999929905E+02 0.  0.
         12    1    1    2    0    0  0.25537002913E+02  0.15412856079E+02  0.11270686145E+02  0.31886094407E+02  0.00000000000E+00 0. -1.
         11    1    3    3    0    0 -0.10361658435E+02 -0.13687530506E+01 -0.11897585579E+02  0.15836350379E+02  0.51100000000E-03 0. -1.
        -11    1    3    3    0    0 -0.11902479727E+02 -0.16623332469E+02  0.16988162149E+02  0.26581983738E+02  0.51100000000E-03 0.  1.
        -12    1    3    3    0    0 -0.32728647508E+01  0.25792294400E+01 -0.16361262715E+02  0.16883571476E+02  0.00000000000E+00 0.  1.
</event>
<event>
 7    1  0.7755875E-012  0.5930195E+02  0.7816164E-02  0.1266605E+00
        -11   -1    0    0    0    0  0.00000000000E+00  0.00000000000E+00  0.45593999997E+02  0.45594000000E+02  0.51100000000E-03 0. -1.
         11   -1    0    0    0    0 -0.00000000000E+00 -0.00000000000E+00 -0.45593999997E+02  0.45594000000E+02  0.51100000000E-03 0.  1.
    9900012    2    1    2    0    0  0.94615925636E+01 -0.26386342168E+02 -0.15197351854E+02  0.59301948344E+02  0.50000007871E+02 0.  0.
         12    1    1    2    0    0 -0.94615925636E+01  0.26386342168E+02  0.15197351854E+02  0.31886051656E+02  0.00000000000E+00 0. -1.
         11    1    3    3    0    0  0.77266553926E+01 -0.16625568151E+02 -0.79242736748E+01  0.19972602070E+02  0.51100000000E-03 0. -1.
        -11    1    3    3    0    0 -0.11412745054E+02 -0.49509933480E+01  0.10795775287E+02  0.16471546652E+02  0.51100000000E-03 0.  1.
        -12    1    3    3    0    0  0.13147682225E+02 -0.48097806690E+01 -0.18068853466E+02  0.22857799622E+02  0.00000000000E+00 0.  1.
</event>
<event>
 7    1  0.7755875E-012  0.5930216E+02  0.7816164E-02  0.1266604E+00
        -11   -1    0    0    0    0  0.00000000000E+00  0.00000000000E+00  0.45593999997E+02  0.45594000000E+02  0.51100000000E-03 0.  1.
         11   -1    0    0    0    0 -0.00000000000E+00 -0.00000000000E+00 -0.45593999997E+02  0.45594000000E+02  0.51100000000E-03 0. -1.
    9900012    2    1    2    0    0  0.23057776251E+02 -0.51337916904E+01  0.21417052569E+02  0.59302156692E+02  0.50000387846E+02 0.  0.
         12    1    1    2    0    0 -0.23057776251E+02  0.51337916904E+01 -0.21417052569E+02  0.31885843308E+02  0.00000000000E+00 0. -1.
         11    1    3    3    0    0  0.13641906165E+02  0.12593484344E+02  0.14172659143E+02  0.23357262665E+02  0.51100000000E-03 0. -1.
        -11    1    3    3    0    0  0.17519509973E+02 -0.14932403776E+02  0.12190327225E+02  0.26048301103E+02  0.51100000000E-03 0.  1.
         12    1    3    3    0    0 -0.81036398870E+01 -0.27948722582E+01 -0.49459337992E+01  0.98965929240E+01  0.00000000000E+00 0. -1.
</event>
<event>
 7    1  0.7755875E-012  0.5930193E+02  0.7816164E-02  0.1266605E+00
        -11   -1    0    0    0    0  0.00000000000E+00  0.00000000000E+00  0.45593999997E+02  0.45594000000E+02  0.51100000000E-03 0.  1.
         11   -1    0    0    0    0 -0.00000000000E+00 -0.00000000000E+00 -0.45593999997E+02  0.45594000000E+02  0.51100000000E-03 0. -1.
    9900012    2    1    2    0    0  0.85730900917E+01 -0.10535347705E+02  0.28848397308E+02  0.59301930122E+02  0.49999974640E+02 0.  0.
         12    1    1    2    0    0 -0.85730900917E+01  0.10535347705E+02 -0.28848397308E+02  0.31886069878E+02  0.00000000000E+00 0. -1.
         11    1    3    3    0    0 -0.84155705276E+01 -0.11775787417E+02  0.27271812990E+02  0.30874630048E+02  0.51100000000E-03 0. -1.
        -11    1    3    3    0    0  0.22125985875E+02 -0.20687364800E+01  0.53939152953E+00  0.22229032031E+02  0.51100000000E-03 0.  1.
        -12    1    3    3    0    0 -0.51373252558E+01  0.33091761917E+01  0.10371927888E+01  0.61982680430E+01  0.00000000000E+00 0.  1.
</event>
<event>
 7    1  0.7755875E-012  0.5930197E+02  0.7816164E-02  0.1266605E+00
        -11   -1    0    0    0    0  0.00000000000E+00  0.00000000000E+00  0.45593999997E+02  0.45594000000E+02  0.51100000000E-03 0. -1.
         11   -1    0    0    0    0 -0.00000000000E+00 -0.00000000000E+00 -0.45593999997E+02  0.45594000000E+02  0.51100000000E-03 0.  1.
    9900012    2    1    2    0    0 -0.57905086385E+00  0.15052971424E+02 -0.28103236729E+02  0.59301966016E+02  0.50000040101E+02 0.  0.
         12    1    1    2    0    0  0.57905086385E+00 -0.15052971424E+02  0.28103236729E+02  0.31886033984E+02  0.00000000000E+00 0. -1.
         11    1    3    3    0    0  0.19270318010E+02 -0.71271878720E+01 -0.13044194367E+02  0.24337069875E+02  0.51100000000E-03 0. -1.
        -11    1    3    3    0    0 -0.66052898191E+01  0.14724769337E+02 -0.98078653180E+01  0.18884991606E+02  0.51100000000E-03 0.  1.
         12    1    3    3    0    0 -0.13244079055E+02  0.74553899592E+01 -0.52511770445E+01  0.16079904534E+02  0.00000000000E+00 0. -1.
</event>
<event>
 7    1  0.7755875E-012  0.5930194E+02  0.7816164E-02  0.1266605E+00
        -11   -1    0    0    0    0  0.00000000000E+00  0.00000000000E+00  0.45593999997E+02  0.45594000000E+02  0.51100000000E-03 0.  1.
         11   -1    0    0    0    0 -0.00000000000E+00 -0.00000000000E+00 -0.45593999997E+02  0.45594000000E+02  0.51100000000E-03 0. -1.
    9900012    2    1    2    0    0  0.30802301301E+02 -0.24144131449E+01  0.78809533773E+01  0.59301943763E+02  0.49999999516E+02 0.  0.
         12    1    1    2    0    0 -0.30802301301E+02  0.24144131449E+01 -0.78809533773E+01  0.31886056237E+02  0.00000000000E+00 0. -1.
         11    1    3    3    0    0  0.52188667040E+01 -0.16529404181E+01 -0.35733381197E+01  0.65373945328E+01  0.51100000000E-03 0. -1.
        -11    1    3    3    0    0 -0.32061061580E+00 -0.65725146678E+01  0.22920481389E+02  0.23846366758E+02  0.51100000000E-03 0.  1.
        -12    1    3    3    0    0  0.25904045212E+02  0.58110419410E+01 -0.11466189892E+02  0.28918182471E+02  0.00000000000E+00 0.  1.
</event>
<event>
 7    1  0.7755875E-012  0.5930187E+02  0.7816164E-02  0.1266605E+00
        -11   -1    0    0    0    0  0.00000000000E+00  0.00000000000E+00  0.45593999997E+02  0.45594000000E+02  0.51100000000E-03 0. -1.
         11   -1    0    0    0    0 -0.00000000000E+00 -0.00000000000E+00 -0.45593999997E+02  0.45594000000E+02  0.51100000000E-03 0.  1.
    9900012    2    1    2    0    0 -0.88491660659E+01  0.22983683297E+02 -0.20252594884E+02  0.59301873903E+02  0.49999872109E+02 0.  0.
         12    1    1    2    0    0  0.88491660659E+01 -0.22983683297E+02  0.20252594884E+02  0.31886126097E+02  0.00000000000E+00 0. -1.
         11    1    3    3    0    0 -0.12499509804E+02  0.22569852400E+02 -0.29826734131E+01  0.25971760119E+02  0.51100000000E-03 0. -1.
        -11    1    3    3    0    0  0.24845579484E+01 -0.94568909090E+01  0.34345572935E+01  0.10363493519E+02  0.51100000000E-03 0.  1.
        -12    1    3    3    0    0  0.11657857898E+01  0.98707218052E+01 -0.20704478765E+02  0.22966620265E+02  0.00000000000E+00 0.  1.
</event>
<event>
 7    1  0.7755875E-012  0.5930195E+02  0.7816164E-02  0.1266605E+00
        -11   -1    0    0    0    0  0.00000000000E+00  0.00000000000E+00  0.45593999997E+02  0.45594000000E+02  0.51100000000E-03 0.  1.
         11   -1    0    0    0    0 -0.00000000000E+00 -0.00000000000E+00 -0.45593999997E+02  0.45594000000E+02  0.51100000000E-03 0. -1.
    9900012    2    1    2    0    0  0.12928393565E+01 -0.16338579222E+02  0.27351411592E+02  0.59301947866E+02  0.50000007001E+02 0.  0.
         12    1    1    2    0    0 -0.12928393565E+01  0.16338579222E+02 -0.27351411592E+02  0.31886052134E+02  0.00000000000E+00 0. -1.
         11    1    3    3    0    0  0.15956613251E+01 -0.54909041129E+01 -0.11589562008E+02  0.12923393937E+02  0.51100000000E-03 0. -1.
        -11    1    3    3    0    0  0.74616673640E+01 -0.12324546969E+02  0.34324113373E+02  0.37225202443E+02  0.51100000000E-03 0.  1.
         12    1    3    3    0    0 -0.77644893327E+01  0.14768718598E+01  0.46168602274E+01  0.91533514871E+01  0.00000000000E+00 0. -1.
</event>
<event>
 7    1  0.7755875E-012  0.5930195E+02  0.7816164E-02  0.1266605E+00
        -11   -1    0    0    0    0  0.00000000000E+00  0.00000000000E+00  0.45593999997E+02  0.45594000000E+02  0.51100000000E-03 0. -1.
         11   -1    0    0    0    0 -0.00000000000E+00 -0.00000000000E+00 -0.45593999997E+02  0.45594000000E+02  0.51100000000E-03 0.  1.
    9900012    2    1    2    0    0 -0.26051043891E+02 -0.14875857445E+02 -0.10806108478E+02  0.59301952848E+02  0.50000016087E+02 0.  0.
         12    1    1    2    0    0  0.26051043891E+02  0.14875857445E+02  0.10806108478E+02  0.31886047152E+02  0.00000000000E+00 0. -1.
         11    1    3    3    0    0 -0.44823570970E+01 -0.16540314646E+02 -0.24467235499E+02  0.29871711483E+02  0.51100000000E-03 0.  1.
        -11    1    3    3    0    0 -0.18007275090E+02  0.70585111832E+01  0.83598447013E+01  0.21070632168E+02  0.51100000000E-03 0. -1.
         12    1    3    3    0    0 -0.35614117039E+01 -0.53940539828E+01  0.53012823196E+01  0.83596091970E+01  0.00000000000E+00 0. -1.
</event>
<event>
 7    1  0.7755875E-012  0.5930187E+02  0.7816164E-02  0.1266605E+00
        -11   -1    0    0    0    0  0.00000000000E+00  0.00000000000E+00  0.45593999997E+02  0.45594000000E+02  0.51100000000E-03 0. -1.
         11   -1    0    0    0    0 -0.00000000000E+00 -0.00000000000E+00 -0.45593999997E+02  0.45594000000E+02  0.51100000000E-03 0.  1.
    9900012    2    1    2    0    0 -0.19119652031E+02 -0.23591622685E+02  0.97262368256E+01  0.59301867630E+02  0.49999860669E+02 0.  0.
         12    1    1    2    0    0  0.19119652031E+02  0.23591622685E+02 -0.97262368256E+01  0.31886132370E+02  0.00000000000E+00 0. -1.
         11    1    3    3    0    0 -0.63265777890E+01  0.92297246957E+00  0.12261709895E+01  0.65100660716E+01  0.51100000000E-03 0. -1.
        -11    1    3    3    0    0 -0.19811004775E+02 -0.32806819202E+02 -0.10335087837E+01  0.38338380730E+02  0.51100000000E-03 0.  1.
        -12    1    3    3    0    0  0.70179305335E+01  0.82922240469E+01  0.95335746199E+01  0.14453420829E+02  0.00000000000E+00 0.  1.
</event>
<event>
 7    1  0.7755875E-012  0.5930194E+02  0.7816164E-02  0.1266605E+00
        -11   -1    0    0    0    0  0.00000000000E+00  0.00000000000E+00  0.45593999997E+02  0.45594000000E+02  0.51100000000E-03 0.  1.
         11   -1    0    0    0    0 -0.00000000000E+00 -0.00000000000E+00 -0.45593999997E+02  0.45594000000E+02  0.51100000000E-03 0. -1.
    9900012    2    1    2    0    0 -0.18277134598E+02 -0.23469663618E+02  0.11482261271E+02  0.59301935907E+02  0.49999985189E+02 0.  0.
         12    1    1    2    0    0  0.18277134598E+02  0.23469663618E+02 -0.11482261271E+02  0.31886064093E+02  0.00000000000E+00 0. -1.
         11    1    3    3    0    0 -0.50383975851E+01 -0.40377300857E+00 -0.15475576641E+02  0.16280109198E+02  0.51100000000E-03 0. -1.
        -11    1    3    3    0    0 -0.76317200764E+01 -0.13612908447E+02  0.27923504450E+02  0.31988693764E+02  0.51100000000E-03 0.  1.
         12    1    3    3    0    0 -0.56070169368E+01 -0.94529821628E+01 -0.96566653746E+00  0.11033132944E+02  0.00000000000E+00 0. -1.
</event>
<event>
 7    1  0.7755875E-012  0.5930196E+02  0.7816164E-02  0.1266605E+00
        -11   -1    0    0    0    0  0.00000000000E+00  0.00000000000E+00  0.45593999997E+02  0.45594000000E+02  0.51100000000E-03 0.  1.
         11   -1    0    0    0    0 -0.00000000000E+00 -0.00000000000E+00 -0.45593999997E+02  0.45594000000E+02  0.51100000000E-03 0. -1.
    9900012    2    1    2    0    0  0.85647481216E+01  0.40261672993E+01  0.30449210273E+02  0.59301963248E+02  0.50000035054E+02 0.  0.
         12    1    1    2    0    0 -0.85647481216E+01 -0.40261672993E+01 -0.30449210273E+02  0.31886036752E+02  0.00000000000E+00 0. -1.
         11    1    3    3    0    0 -0.17393340277E+02 -0.30299195761E+01  0.38298628364E+01  0.18065894615E+02  0.51100000000E-03 0. -1.
        -11    1    3    3    0    0  0.21775745163E+01 -0.14944629425E+01  0.11474186800E+02  0.11774218159E+02  0.51100000000E-03 0.  1.
         12    1    3    3    0    0  0.23780513882E+02  0.85505498178E+01  0.15145160636E+02  0.29461850474E+02  0.00000000000E+00 0. -1.
</event>
<event>
 7    1  0.7755875E-012  0.5930191E+02  0.7816164E-02  0.1266605E+00
        -11   -1    0    0    0    0  0.00000000000E+00  0.00000000000E+00  0.45593999997E+02  0.45594000000E+02  0.51100000000E-03 0. -1.
         11   -1    0    0    0    0 -0.00000000000E+00 -0.00000000000E+00 -0.45593999997E+02  0.45594000000E+02  0.51100000000E-03 0.  1.
    9900012    2    1    2    0    0  0.43861065225E+01  0.22793393801E+02 -0.21861970466E+02  0.59301913943E+02  0.49999945133E+02 0.  0.
         12    1    1    2    0    0 -0.43861065225E+01 -0.22793393801E+02  0.21861970466E+02  0.31886086057E+02  0.00000000000E+00 0. -1.
         11    1    3    3    0    0  0.86541884960E+01 -0.84049752166E+01  0.67466945790E+00  0.12082788008E+02  0.51100000000E-03 0. -1.
        -11    1    3    3    0    0  0.38938968024E+01  0.31781082656E+02 -0.12754010555E+02  0.34465409218E+02  0.51100000000E-03 0.  1.
         12    1    3    3    0    0 -0.81619787759E+01 -0.58271363808E+00 -0.97826293687E+01  0.12753716717E+02  0.00000000000E+00 0. -1.
</event>
<event>
 7    1  0.7755875E-012  0.5930192E+02  0.7816164E-02  0.1266605E+00
        -11   -1    0    0    0    0  0.00000000000E+00  0.00000000000E+00  0.45593999997E+02  0.45594000000E+02  0.51100000000E-03 0. -1.
         11   -1    0    0    0    0 -0.00000000000E+00 -0.00000000000E+00 -0.45593999997E+02  0.45594000000E+02  0.51100000000E-03 0.  1.
    9900012    2    1    2    0    0  0.27339381627E+02 -0.14483755255E+02 -0.77136782190E+01  0.59301924893E+02  0.49999965103E+02 0.  0.
         12    1    1    2    0    0 -0.27339381627E+02  0.14483755255E+02  0.77136782190E+01  0.31886075107E+02  0.00000000000E+00 0. -1.
         11    1    3    3    0    0  0.16357004012E+02 -0.24061539230E+02  0.79894951040E+01  0.30171862433E+02  0.51100000000E-03 0. -1.
        -11    1    3    3    0    0 -0.69957235964E-01  0.19100397789E+01 -0.15560656435E+02  0.15677601057E+02  0.51100000000E-03 0.  1.
         12    1    3    3    0    0  0.11052334852E+02  0.76677441966E+01 -0.14251688837E+00  0.13452461403E+02  0.00000000000E+00 0. -1.
</event>
<event>
 7    1  0.7755875E-012  0.5930193E+02  0.7816164E-02  0.1266605E+00
        -11   -1    0    0    0    0  0.00000000000E+00  0.00000000000E+00  0.45593999997E+02  0.45594000000E+02  0.51100000000E-03 0. -1.
         11   -1    0    0    0    0 -0.00000000000E+00 -0.00000000000E+00 -0.45593999997E+02  0.45594000000E+02  0.51100000000E-03 0.  1.
    9900012    2    1    2    0    0 -0.13597056890E+02  0.66639171447E+01  0.28061253681E+02  0.59301926144E+02  0.49999967385E+02 0.  0.
         12    1    1    2    0    0  0.13597056890E+02 -0.66639171447E+01 -0.28061253681E+02  0.31886073856E+02  0.00000000000E+00 0. -1.
         11    1    3    3    0    0 -0.13827770132E+02 -0.80074500401E+01  0.25991727867E+02  0.30510594894E+02  0.51100000000E-03 0. -1.
        -11    1    3    3    0    0  0.18266027586E+01  0.21274744035E+02 -0.91175585961E+00  0.21372470854E+02  0.51100000000E-03 0.  1.
        -12    1    3    3    0    0 -0.15958895165E+01 -0.66033768500E+01  0.29812816735E+01  0.74188603969E+01  0.00000000000E+00 0.  1.
</event>
<event>
 7    1  0.7755875E-012  0.5930193E+02  0.7816164E-02  0.1266605E+00
        -11   -1    0    0    0    0  0.00000000000E+00  0.00000000000E+00  0.45593999997E+02  0.45594000000E+02  0.51100000000E-03 0.  1.
         11   -1    0    0    0    0 -0.00000000000E+00 -0.00000000000E+00 -0.45593999997E+02  0.45594000000E+02  0.51100000000E-03 0. -1.
    9900012    2    1    2    0    0  0.18102338977E+02 -0.15342073060E+02  0.21298997761E+02  0.59301934269E+02  0.49999982202E+02 0.  0.
         12    1    1    2    0    0 -0.18102338977E+02  0.15342073060E+02 -0.21298997761E+02  0.31886065731E+02  0.00000000000E+00 0. -1.
         11    1    3    3    0    0 -0.11549275944E+02 -0.14474484375E+02  0.13833077190E+02  0.23113859426E+02  0.51100000000E-03 0. -1.
        -11    1    3    3    0    0  0.69329608903E+01  0.32246800570E+01  0.10410478064E+02  0.12916755086E+02  0.51100000000E-03 0.  1.
         12    1    3    3    0    0  0.22718654030E+02 -0.40922687422E+01 -0.29445574937E+01  0.23271319757E+02  0.00000000000E+00 0. -1.
</event>
<event>
 7    1  0.7755875E-012  0.5930195E+02  0.7816164E-02  0.1266605E+00
        -11   -1    0    0    0    0  0.00000000000E+00  0.00000000000E+00  0.45593999997E+02  0.45594000000E+02  0.51100000000E-03 0.  1.
         11   -1    0    0    0    0 -0.00000000000E+00 -0.00000000000E+00 -0.45593999997E+02  0.45594000000E+02  0.51100000000E-03 0. -1.
    9900012    2    1    2    0    0  0.22693474203E+02 -0.21706398687E+02  0.55279768348E+01  0.59301952217E+02  0.50000014935E+02 0.  0.
         12    1    1    2    0    0 -0.22693474203E+02  0.21706398687E+02 -0.55279768348E+01  0.31886047783E+02  0.00000000000E+00 0. -1.
         11    1    3    3    0    0 -0.37208430934E+00 -0.10015977917E+02 -0.97610218206E+01  0.13990561376E+02  0.51100000000E-03 0. -1.
        -11    1    3    3    0    0  0.18530357286E+02 -0.17918585946E+02  0.22901246321E+02  0.34480674976E+02  0.51100000000E-03 0.  1.
         12    1    3    3    0    0  0.45352012261E+01  0.62281651762E+01 -0.76122476659E+01  0.10830715865E+02  0.00000000000E+00 0. -1.
</event>
<event>
 7    1  0.7755875E-012  0.5930195E+02  0.7816164E-02  0.1266605E+00
        -11   -1    0    0    0    0  0.00000000000E+00  0.00000000000E+00  0.45593999997E+02  0.45594000000E+02  0.51100000000E-03 0.  1.
         11   -1    0    0    0    0 -0.00000000000E+00 -0.00000000000E+00 -0.45593999997E+02  0.45594000000E+02  0.51100000000E-03 0. -1.
    9900012    2    1    2    0    0 -0.86432665594E+01 -0.21336244133E+02  0.22063060518E+02  0.59301952739E+02  0.50000015887E+02 0.  0.
         12    1    1    2    0    0  0.86432665594E+01  0.21336244133E+02 -0.22063060518E+02  0.31886047261E+02  0.00000000000E+00 0. -1.
         11    1    3    3    0    0  0.51713989995E+01 -0.26615675496E+02  0.75190611816E+01  0.28136699008E+02  0.51100000000E-03 0. -1.
        -11    1    3    3    0    0 -0.14635909207E+02  0.83030119236E+01  0.56192091261E+00  0.16836436698E+02  0.51100000000E-03 0.  1.
         12    1    3    3    0    0  0.82124364781E+00 -0.30235805603E+01  0.13982078424E+02  0.14328817034E+02  0.00000000000E+00 0. -1.
</event>
<event>
 7    1  0.7755875E-012  0.5930193E+02  0.7816164E-02  0.1266605E+00
        -11   -1    0    0    0    0  0.00000000000E+00  0.00000000000E+00  0.45593999997E+02  0.45594000000E+02  0.51100000000E-03 0. -1.
         11   -1    0    0    0    0 -0.00000000000E+00 -0.00000000000E+00 -0.45593999997E+02  0.45594000000E+02  0.51100000000E-03 0.  1.
    9900012    2    1    2    0    0  0.65592996821E+00 -0.23542255961E+02 -0.21495434300E+02  0.59301925365E+02  0.49999965963E+02 0.  0.
         12    1    1    2    0    0 -0.65592996821E+00  0.23542255961E+02  0.21495434300E+02  0.31886074635E+02  0.00000000000E+00 0. -1.
         11    1    3    3    0    0  0.15552384683E+02 -0.20366215120E+02 -0.13709433090E+02  0.29062139349E+02  0.51100000000E-03 0. -1.
        -11    1    3    3    0    0 -0.17908015831E+02 -0.10847724800E+02 -0.63061881141E+01  0.21866370827E+02  0.51100000000E-03 0.  1.
        -12    1    3    3    0    0  0.30115611158E+01  0.76716839589E+01 -0.14798130966E+01  0.83734151886E+01  0.00000000000E+00 0.  1.
</event>
<event>
 7    1  0.7755875E-012  0.5930194E+02  0.7816164E-02  0.1266605E+00
        -11   -1    0    0    0    0  0.00000000000E+00  0.00000000000E+00  0.45593999997E+02  0.45594000000E+02  0.51100000000E-03 0. -1.
         11   -1    0    0    0    0 -0.00000000000E+00 -0.00000000000E+00 -0.45593999997E+02  0.45594000000E+02  0.51100000000E-03 0.  1.
    9900012    2    1    2    0    0 -0.37911407071E+01 -0.64071248898E+01 -0.31004784657E+02  0.59301942407E+02  0.49999997044E+02 0.  0.
         12    1    1    2    0    0  0.37911407071E+01  0.64071248898E+01  0.31004784657E+02  0.31886057593E+02  0.00000000000E+00 0. -1.
         11    1    3    3    0    0  0.13288819314E+02  0.86015366122E+01  0.59670861750E+00  0.15840934704E+02  0.51100000000E-03 0. -1.
        -11    1    3    3    0    0 -0.20793399557E+01 -0.32953536296E+01 -0.21623800775E+02  0.21972067960E+02  0.51100000000E-03 0.  1.
         12    1    3    3    0    0 -0.15000620066E+02 -0.11713307872E+02 -0.99776924994E+01  0.21488939743E+02  0.00000000000E+00 0. -1.
</event>
<event>
 7    1  0.7755875E-012  0.5930192E+02  0.7816164E-02  0.1266605E+00
        -11   -1    0    0    0    0  0.00000000000E+00  0.00000000000E+00  0.45593999997E+02  0.45594000000E+02  0.51100000000E-03 0.  1.
         11   -1    0    0    0    0 -0.00000000000E+00 -0.00000000000E+00 -0.45593999997E+02  0.45594000000E+02  0.51100000000E-03 0. -1.
    9900012    2    1    2    0    0 -0.25425332481E+02  0.45200331177E+01  0.18704112108E+02  0.59301920891E+02  0.49999957805E+02 0.  0.
         12    1    1    2    0    0  0.25425332481E+02 -0.45200331177E+01 -0.18704112108E+02  0.31886079109E+02  0.00000000000E+00 0. -1.
         11    1    3    3    0    0 -0.29947001769E+02  0.23313848102E+01  0.28045268403E+01  0.30168255520E+02  0.51100000000E-03 0. -1.
        -11    1    3    3    0    0  0.49076636085E+01  0.64787352562E+01  0.20964467373E+02  0.22484840785E+02  0.51100000000E-03 0.  1.
        -12    1    3    3    0    0 -0.38599432082E+00 -0.42900869487E+01 -0.50648821051E+01  0.66488245865E+01  0.00000000000E+00 0.  1.
</event>
<event>
 7    1  0.7755875E-012  0.5930187E+02  0.7816164E-02  0.1266605E+00
        -11   -1    0    0    0    0  0.00000000000E+00  0.00000000000E+00  0.45593999997E+02  0.45594000000E+02  0.51100000000E-03 0. -1.
         11   -1    0    0    0    0 -0.00000000000E+00 -0.00000000000E+00 -0.45593999997E+02  0.45594000000E+02  0.51100000000E-03 0.  1.
    9900012    2    1    2    0    0 -0.89623988343E+01  0.14756831178E+02  0.26807396686E+02  0.59301871725E+02  0.49999868137E+02 0.  0.
         12    1    1    2    0    0  0.89623988343E+01 -0.14756831178E+02 -0.26807396686E+02  0.31886128275E+02  0.00000000000E+00 0. -1.
         11    1    3    3    0    0 -0.10936594710E+01  0.63050002958E+00  0.33649098288E+02  0.33672769966E+02  0.51100000000E-03 0. -1.
        -11    1    3    3    0    0 -0.82062022666E+01  0.79480507157E+01  0.48421148099E+01  0.12408035377E+02  0.51100000000E-03 0.  1.
         12    1    3    3    0    0  0.33746290330E+00  0.61782804329E+01 -0.11683816412E+02  0.13221066382E+02  0.00000000000E+00 0. -1.
</event>
<event>
 7    1  0.7755875E-012  0.5930195E+02  0.7816164E-02  0.1266605E+00
        -11   -1    0    0    0    0  0.00000000000E+00  0.00000000000E+00  0.45593999997E+02  0.45594000000E+02  0.51100000000E-03 0.  1.
         11   -1    0    0    0    0 -0.00000000000E+00 -0.00000000000E+00 -0.45593999997E+02  0.45594000000E+02  0.51100000000E-03 0. -1.
    9900012    2    1    2    0    0  0.20525645727E+02 -0.11025659036E+02  0.21768165532E+02  0.59301947872E+02  0.50000007011E+02 0.  0.
         12    1    1    2    0    0 -0.20525645727E+02  0.11025659036E+02 -0.21768165532E+02  0.31886052128E+02  0.00000000000E+00 0. -1.
         11    1    3    3    0    0 -0.60896420054E+01  0.89443931413E+01  0.21272398600E+02  0.23866312050E+02  0.51100000000E-03 0. -1.
        -11    1    3    3    0    0  0.15924457085E+02 -0.43658639563E+01  0.52457929951E+00  0.16520420250E+02  0.51100000000E-03 0.  1.
         12    1    3    3    0    0  0.10690830647E+02 -0.15604188221E+02 -0.28812367881E-01  0.18915215571E+02  0.00000000000E+00 0. -1.
</event>
<event>
 7    1  0.7755875E-012  0.5930192E+02  0.7816164E-02  0.1266605E+00
        -11   -1    0    0    0    0  0.00000000000E+00  0.00000000000E+00  0.45593999997E+02  0.45594000000E+02  0.51100000000E-03 0. -1.
         11   -1    0    0    0    0 -0.00000000000E+00 -0.00000000000E+00 -0.45593999997E+02  0.45594000000E+02  0.51100000000E-03 0.  1.
    9900012    2    1    2    0    0  0.24667743702E+02  0.12932664126E+02 -0.15523225999E+02  0.59301922691E+02  0.49999961087E+02 0.  0.
         12    1    1    2    0    0 -0.24667743702E+02 -0.12932664126E+02  0.15523225999E+02  0.31886077309E+02  0.00000000000E+00 0. -1.
         11    1    3    3    0    0  0.10049647401E+02  0.89204103269E+01  0.46261447939E+01  0.14211627254E+02  0.51100000000E-03 0. -1.
        -11    1    3    3    0    0 -0.16245697252E+01  0.86401434139E+01 -0.25819163097E+02  0.27274905835E+02  0.51100000000E-03 0.  1.
        -12    1    3    3    0    0  0.16242666026E+02 -0.46278896149E+01  0.56697923037E+01  0.17815389602E+02  0.00000000000E+00 0.  1.
</event>
<event>
 7    1  0.7755875E-012  0.5930196E+02  0.7816164E-02  0.1266605E+00
        -11   -1    0    0    0    0  0.00000000000E+00  0.00000000000E+00  0.45593999997E+02  0.45594000000E+02  0.51100000000E-03 0.  1.
         11   -1    0    0    0    0 -0.00000000000E+00 -0.00000000000E+00 -0.45593999997E+02  0.45594000000E+02  0.51100000000E-03 0. -1.
    9900012    2    1    2    0    0  0.24397361394E+02  0.10503024008E+02  0.17640143750E+02  0.59301961867E+02  0.50000032535E+02 0.  0.
         12    1    1    2    0    0 -0.24397361394E+02 -0.10503024008E+02 -0.17640143750E+02  0.31886038133E+02  0.00000000000E+00 0. -1.
         11    1    3    3    0    0 -0.64832536008E+01  0.53490590969E+01  0.15549604695E+02  0.17675837092E+02  0.51100000000E-03 0. -1.
        -11    1    3    3    0    0  0.25979030346E+02  0.91023876429E+01 -0.89258673769E+01  0.28938462074E+02  0.51100000000E-03 0.  1.
        -12    1    3    3    0    0  0.49015846491E+01 -0.39484227323E+01  0.11016406432E+02  0.12687662701E+02  0.00000000000E+00 0.  1.
</event>
<event>
 7    1  0.7755875E-012  0.5930184E+02  0.7816164E-02  0.1266605E+00
        -11   -1    0    0    0    0  0.00000000000E+00  0.00000000000E+00  0.45593999997E+02  0.45594000000E+02  0.51100000000E-03 0.  1.
         11   -1    0    0    0    0 -0.00000000000E+00 -0.00000000000E+00 -0.45593999997E+02  0.45594000000E+02  0.51100000000E-03 0. -1.
    9900012    2    1    2    0    0 -0.14013101452E+02  0.20372385862E+02  0.20132705536E+02  0.59301843910E+02  0.49999817408E+02 0.  0.
         12    1    1    2    0    0  0.14013101452E+02 -0.20372385862E+02 -0.20132705536E+02  0.31886156090E+02  0.00000000000E+00 0. -1.
         11    1    3    3    0    0  0.14871446370E+02  0.13421065565E+02  0.12928002113E+02  0.23841521699E+02  0.51100000000E-03 0. -1.
        -11    1    3    3    0    0 -0.28511936654E+02  0.71314641075E+01  0.11193815076E+02  0.31449798223E+02  0.51100000000E-03 0.  1.
        -12    1    3    3    0    0 -0.37261116783E+00 -0.18014381035E+00 -0.39891116531E+01  0.40105239876E+01  0.00000000000E+00 0.  1.
</event>
<event>
 7    1  0.7755875E-012  0.5930192E+02  0.7816164E-02  0.1266605E+00
        -11   -1    0    0    0    0  0.00000000000E+00  0.00000000000E+00  0.45593999997E+02  0.45594000000E+02  0.51100000000E-03 0.  1.
         11   -1    0    0    0    0 -0.00000000000E+00 -0.00000000000E+00 -0.45593999997E+02  0.45594000000E+02  0.51100000000E-03 0. -1.
    9900012    2    1    2    0    0  0.13288631004E+02 -0.97028962274E+01  0.27312789076E+02  0.59301915947E+02  0.49999948787E+02 0.  0.
         12    1    1    2    0    0 -0.13288631004E+02  0.97028962274E+01 -0.27312789076E+02  0.31886084053E+02  0.00000000000E+00 0. -1.
         11    1    3    3    0    0  0.14740755681E+02  0.13976253649E+02 -0.51574592815E+00  0.20319732730E+02  0.51100000000E-03 0. -1.
        -11    1    3    3    0    0 -0.71474117779E+01 -0.11372213852E+02  0.16756566110E+02  0.21475456947E+02  0.51100000000E-03 0.  1.
         12    1    3    3    0    0  0.56952871008E+01 -0.12306936025E+02  0.11071968894E+02  0.17506726269E+02  0.00000000000E+00 0. -1.
</event>
<event>
 7    1  0.7755875E-012  0.5930197E+02  0.7816164E-02  0.1266605E+00
        -11   -1    0    0    0    0  0.00000000000E+00  0.00000000000E+00  0.45593999997E+02  0.45594000000E+02  0.51100000000E-03 0.  1.
         11   -1    0    0    0    0 -0.00000000000E+00 -0.00000000000E+00 -0.45593999997E+02  0.45594000000E+02  0.51100000000E-03 0. -1.
    9900012    2    1    2    0    0  0.18680987103E+02  0.25106147910E+02 -0.61172581703E+01  0.59301971875E+02  0.50000050788E+02 0.  0.
         12    1    1    2    0    0 -0.18680987103E+02 -0.25106147910E+02  0.61172581703E+01  0.31886028125E+02  0.00000000000E+00 0. -1.
         11    1    3    3    0    0  0.68235671130E+01  0.97441891579E-01 -0.20509166598E+02  0.21614728263E+02  0.51100000000E-03 0. -1.
        -11    1    3    3    0    0  0.17903568338E+02  0.17445317768E+02  0.11917757578E+02  0.27693136644E+02  0.51100000000E-03 0.  1.
         12    1    3    3    0    0 -0.60461483476E+01  0.75633882505E+01  0.24741508498E+01  0.99941069685E+01  0.00000000000E+00 0. -1.
</event>
<event>
 7    1  0.7755875E-012  0.5930208E+02  0.7816164E-02  0.1266604E+00
        -11   -1    0    0    0    0  0.00000000000E+00  0.00000000000E+00  0.45593999997E+02  0.45594000000E+02  0.51100000000E-03 0.  1.
         11   -1    0    0    0    0 -0.00000000000E+00 -0.00000000000E+00 -0.45593999997E+02  0.45594000000E+02  0.51100000000E-03 0. -1.
    9900012    2    1    2    0    0 -0.43548907711E+00  0.31882768640E+02  0.10498594464E+00  0.59302084474E+02  0.50000256140E+02 0.  0.
         12    1    1    2    0    0  0.43548907711E+00 -0.31882768640E+02 -0.10498594464E+00  0.31885915526E+02  0.00000000000E+00 0. -1.
         11    1    3    3    0    0 -0.21439278689E+02  0.16227339587E+01 -0.29307234413E+00  0.21502600491E+02  0.51100000000E-03 0. -1.
        -11    1    3    3    0    0  0.16790466289E+02  0.17041598025E+02  0.19878561435E+00  0.23924367022E+02  0.51100000000E-03 0.  1.
         12    1    3    3    0    0  0.42133233231E+01  0.13218436656E+02  0.19927267442E+00  0.13875116960E+02  0.00000000000E+00 0. -1.
</event>
<event>
 7    1  0.7755875E-012  0.5930186E+02  0.7816164E-02  0.1266605E+00
        -11   -1    0    0    0    0  0.00000000000E+00  0.00000000000E+00  0.45593999997E+02  0.45594000000E+02  0.51100000000E-03 0.  1.
         11   -1    0    0    0    0 -0.00000000000E+00 -0.00000000000E+00 -0.45593999997E+02  0.45594000000E+02  0.51100000000E-03 0. -1.
    9900012    2    1    2    0    0 -0.29546869966E+02 -0.88032637490E+01  0.81369977601E+01  0.59301863357E+02  0.49999852877E+02 0.  0.
         12    1    1    2    0    0  0.29546869966E+02  0.88032637490E+01 -0.81369977601E+01  0.31886136643E+02  0.00000000000E+00 0. -1.
         11    1    3    3    0    0 -0.33680463127E+02  0.11534071493E+02  0.51655288461E+01  0.35973477593E+02  0.51100000000E-03 0. -1.
        -11    1    3    3    0    0  0.43905609692E+01 -0.14990442818E+02  0.64982479037E+01  0.16917967596E+02  0.51100000000E-03 0.  1.
         12    1    3    3    0    0 -0.25696780884E+00 -0.53468924240E+01 -0.35267789897E+01  0.64104181682E+01  0.00000000000E+00 0. -1.
</event>
<event>
 7    1  0.7755875E-012  0.5930197E+02  0.7816164E-02  0.1266605E+00
        -11   -1    0    0    0    0  0.00000000000E+00  0.00000000000E+00  0.45593999997E+02  0.45594000000E+02  0.51100000000E-03 0. -1.
         11   -1    0    0    0    0 -0.00000000000E+00 -0.00000000000E+00 -0.45593999997E+02  0.45594000000E+02  0.51100000000E-03 0.  1.
    9900012    2    1    2    0    0  0.55094559373E+01 -0.99909469328E+01 -0.29774922109E+02  0.59301966821E+02  0.50000041569E+02 0.  0.
         12    1    1    2    0    0 -0.55094559373E+01  0.99909469328E+01  0.29774922109E+02  0.31886033179E+02  0.00000000000E+00 0. -1.
         11    1    3    3    0    0 -0.46688494389E+00 -0.90201369811E+01 -0.38435979126E+01  0.98160123209E+01  0.51100000000E-03 0. -1.
        -11    1    3    3    0    0  0.87525493356E+01  0.60359628109E+01  0.88895889979E+01  0.13858743079E+02  0.51100000000E-03 0.  1.
        -12    1    3    3    0    0 -0.27762084544E+01 -0.70067727625E+01 -0.34820913194E+02  0.35627211420E+02  0.00000000000E+00 0.  1.
</event>
<event>
 7    1  0.7755875E-012  0.5930195E+02  0.7816164E-02  0.1266605E+00
        -11   -1    0    0    0    0  0.00000000000E+00  0.00000000000E+00  0.45593999997E+02  0.45594000000E+02  0.51100000000E-03 0. -1.
         11   -1    0    0    0    0 -0.00000000000E+00 -0.00000000000E+00 -0.45593999997E+02  0.45594000000E+02  0.51100000000E-03 0.  1.
    9900012    2    1    2    0    0 -0.24345085678E+02  0.16086671257E+02 -0.12855195331E+02  0.59301949198E+02  0.50000009429E+02 0.  0.
         12    1    1    2    0    0  0.24345085678E+02 -0.16086671257E+02  0.12855195331E+02  0.31886050802E+02  0.00000000000E+00 0. -1.
         11    1    3    3    0    0  0.52882631532E+01  0.12821428441E+01 -0.47976760138E+01  0.72544684743E+01  0.51100000000E-03 0. -1.
        -11    1    3    3    0    0 -0.17504531530E+02  0.21116269741E+02 -0.19958117844E+02  0.33920966083E+02  0.51100000000E-03 0.  1.
        -12    1    3    3    0    0 -0.12128817301E+02 -0.63117413283E+01  0.11900598527E+02  0.18126514641E+02  0.00000000000E+00 0.  1.
</event>
<event>
 7    1  0.7755875E-012  0.5930194E+02  0.7816164E-02  0.1266605E+00
        -11   -1    0    0    0    0  0.00000000000E+00  0.00000000000E+00  0.45593999997E+02  0.45594000000E+02  0.51100000000E-03 0.  1.
         11   -1    0    0    0    0 -0.00000000000E+00 -0.00000000000E+00 -0.45593999997E+02  0.45594000000E+02  0.51100000000E-03 0. -1.
    9900012    2    1    2    0    0  0.16172332142E+02  0.23242743930E+02 -0.14661213699E+02  0.59301942554E+02  0.49999997312E+02 0.  0.
         12    1    1    2    0    0 -0.16172332142E+02 -0.23242743930E+02  0.14661213699E+02  0.31886057446E+02  0.00000000000E+00 0. -1.
         11    1    3    3    0    0  0.38747330950E+01  0.25188446703E+02 -0.27466526623E+02  0.37468406543E+02  0.51100000000E-03 0. -1.
        -11    1    3    3    0    0 -0.25831416485E+00 -0.34703039674E+01  0.72042869620E+01  0.80007178882E+01  0.51100000000E-03 0.  1.
         12    1    3    3    0    0  0.12555913212E+02  0.15246011947E+01  0.56010259618E+01  0.13832818123E+02  0.00000000000E+00 0. -1.
</event>
<event>
 7    1  0.7755875E-012  0.5930193E+02  0.7816164E-02  0.1266605E+00
        -11   -1    0    0    0    0  0.00000000000E+00  0.00000000000E+00  0.45593999997E+02  0.45594000000E+02  0.51100000000E-03 0.  1.
         11   -1    0    0    0    0 -0.00000000000E+00 -0.00000000000E+00 -0.45593999997E+02  0.45594000000E+02  0.51100000000E-03 0. -1.
    9900012    2    1    2    0    0 -0.19043290151E+02 -0.25563089850E+02  0.77636562694E+00  0.59301933983E+02  0.49999981680E+02 0.  0.
         12    1    1    2    0    0  0.19043290151E+02  0.25563089850E+02 -0.77636562694E+00  0.31886066017E+02  0.00000000000E+00 0. -1.
         11    1    3    3    0    0  0.90394860210E+01 -0.64677887032E+01  0.15452342281E+02  0.19034691499E+02  0.51100000000E-03 0. -1.
        -11    1    3    3    0    0 -0.96856071819E+01 -0.15981667052E+02 -0.55373221111E+01  0.19490679944E+02  0.51100000000E-03 0.  1.
         12    1    3    3    0    0 -0.18397168990E+02 -0.31136340947E+01 -0.91386545426E+01  0.20776562540E+02  0.00000000000E+00 0. -1.
</event>
<event>
 7    1  0.7755875E-012  0.5930201E+02  0.7816164E-02  0.1266605E+00
        -11   -1    0    0    0    0  0.00000000000E+00  0.00000000000E+00  0.45593999997E+02  0.45594000000E+02  0.51100000000E-03 0.  1.
         11   -1    0    0    0    0 -0.00000000000E+00 -0.00000000000E+00 -0.45593999997E+02  0.45594000000E+02  0.51100000000E-03 0. -1.
    9900012    2    1    2    0    0  0.25171409947E+02  0.71954811418E+00  0.19560133808E+02  0.59302008361E+02  0.50000117329E+02 0.  0.
         12    1    1    2    0    0 -0.25171409947E+02 -0.71954811418E+00 -0.19560133808E+02  0.31885991639E+02  0.00000000000E+00 0. -1.
         11    1    3    3    0    0  0.22685769526E+01  0.12181618204E+02 -0.10972753692E+02  0.16551120424E+02  0.51100000000E-03 0. -1.
        -11    1    3    3    0    0  0.13497227461E+02 -0.58794076330E+01  0.60142561537E+01  0.15903265721E+02  0.51100000000E-03 0.  1.
         12    1    3    3    0    0  0.94056055332E+01 -0.55826624569E+01  0.24518631346E+02  0.26847622216E+02  0.00000000000E+00 0. -1.
</event>
<event>
 7    1  0.7755875E-012  0.5930192E+02  0.7816164E-02  0.1266605E+00
        -11   -1    0    0    0    0  0.00000000000E+00  0.00000000000E+00  0.45593999997E+02  0.45594000000E+02  0.51100000000E-03 0.  1.
         11   -1    0    0    0    0 -0.00000000000E+00 -0.00000000000E+00 -0.45593999997E+02  0.45594000000E+02  0.51100000000E-03 0. -1.
    9900012    2    1    2    0    0 -0.17649863110E+02 -0.23596869715E+02  0.12181620411E+02  0.59301924606E+02  0.49999964580E+02 0.  0.
         12    1    1    2    0    0  0.17649863110E+02  0.23596869715E+02 -0.12181620411E+02  0.31886075394E+02  0.00000000000E+00 0. -1.
         11    1    3    3    0    0  0.10944717381E+02 -0.10876569808E+02  0.10302059696E+01  0.15464408619E+02  0.51100000000E-03 0. -1.
        -11    1    3    3    0    0 -0.10731349459E+02  0.81642869751E+01  0.91240211380E+01  0.16280823229E+02  0.51100000000E-03 0.  1.
         12    1    3    3    0    0 -0.17863231032E+02 -0.20884586883E+02  0.20273933038E+01  0.27556692758E+02  0.00000000000E+00 0. -1.
</event>
<event>
 7    1  0.7755875E-012  0.5930204E+02  0.7816164E-02  0.1266604E+00
        -11   -1    0    0    0    0  0.00000000000E+00  0.00000000000E+00  0.45593999997E+02  0.45594000000E+02  0.51100000000E-03 0.  1.
         11   -1    0    0    0    0 -0.00000000000E+00 -0.00000000000E+00 -0.45593999997E+02  0.45594000000E+02  0.51100000000E-03 0. -1.
    9900012    2    1    2    0    0 -0.20139549133E+02 -0.24712047464E+02  0.65379746403E+00  0.59302044153E+02  0.50000182604E+02 0.  0.
         12    1    1    2    0    0  0.20139549133E+02  0.24712047464E+02 -0.65379746403E+00  0.31885955847E+02  0.00000000000E+00 0. -1.
         11    1    3    3    0    0 -0.22803008979E+02  0.35464784076E+01 -0.75078604561E+01  0.24267729529E+02  0.51100000000E-03 0. -1.
        -11    1    3    3    0    0  0.10400903034E+02 -0.14000853089E+02  0.15270570460E+01  0.17508128816E+02  0.51100000000E-03 0.  1.
         12    1    3    3    0    0 -0.77374431881E+01 -0.14257672782E+02  0.66346008741E+01  0.17526185809E+02  0.00000000000E+00 0. -1.
</event>
<event>
 7    1  0.7755875E-012  0.5930194E+02  0.7816164E-02  0.1266605E+00
        -11   -1    0    0    0    0  0.00000000000E+00  0.00000000000E+00  0.45593999997E+02  0.45594000000E+02  0.51100000000E-03 0.  1.
         11   -1    0    0    0    0 -0.00000000000E+00 -0.00000000000E+00 -0.45593999997E+02  0.45594000000E+02  0.51100000000E-03 0. -1.
    9900012    2    1    2    0    0  0.71237322470E+01 -0.29808533245E+02  0.87991307530E+01  0.59301938510E+02  0.49999989936E+02 0.  0.
         12    1    1    2    0    0 -0.71237322470E+01  0.29808533245E+02 -0.87991307530E+01  0.31886061490E+02  0.00000000000E+00 0. -1.
         11    1    3    3    0    0 -0.15845551280E+02 -0.45226739743E+01 -0.80007568166E+01  0.18317974374E+02  0.51100000000E-03 0. -1.
        -11    1    3    3    0    0 -0.80914654459E+00 -0.50832508780E+01  0.61383380800E+01  0.80108271898E+01  0.51100000000E-03 0.  1.
         12    1    3    3    0    0  0.23778430072E+02 -0.20202608393E+02  0.10661549490E+02  0.32973136946E+02  0.00000000000E+00 0. -1.
</event>
<event>
 7    1  0.7755875E-012  0.5930202E+02  0.7816164E-02  0.1266604E+00
        -11   -1    0    0    0    0  0.00000000000E+00  0.00000000000E+00  0.45593999997E+02  0.45594000000E+02  0.51100000000E-03 0. -1.
         11   -1    0    0    0    0 -0.00000000000E+00 -0.00000000000E+00 -0.45593999997E+02  0.45594000000E+02  0.51100000000E-03 0.  1.
    9900012    2    1    2    0    0  0.10572753770E+01 -0.29466214729E+02 -0.12138372967E+02  0.59302019696E+02  0.50000138000E+02 0.  0.
         12    1    1    2    0    0 -0.10572753770E+01  0.29466214729E+02  0.12138372967E+02  0.31885980304E+02  0.00000000000E+00 0. -1.
         11    1    3    3    0    0  0.11135414062E+02 -0.59787026659E+01 -0.20137616533E+02  0.23775321907E+02  0.51100000000E-03 0. -1.
        -11    1    3    3    0    0 -0.15094591774E+02 -0.22787053906E+02  0.16198579491E+01  0.27381023841E+02  0.51100000000E-03 0.  1.
         12    1    3    3    0    0  0.50164530888E+01 -0.70045815718E+00  0.63793856170E+01  0.81456739483E+01  0.00000000000E+00 0. -1.
</event>
<event>
 7    1  0.7755875E-012  0.5930192E+02  0.7816164E-02  0.1266605E+00
        -11   -1    0    0    0    0  0.00000000000E+00  0.00000000000E+00  0.45593999997E+02  0.45594000000E+02  0.51100000000E-03 0.  1.
         11   -1    0    0    0    0 -0.00000000000E+00 -0.00000000000E+00 -0.45593999997E+02  0.45594000000E+02  0.51100000000E-03 0. -1.
    9900012    2    1    2    0    0 -0.32147388857E+01 -0.26634460846E+02  0.17233479557E+02  0.59301923598E+02  0.49999962741E+02 0.  0.
         12    1    1    2    0    0  0.32147388857E+01  0.26634460846E+02 -0.17233479557E+02  0.31886076402E+02  0.00000000000E+00 0. -1.
         11    1    3    3    0    0  0.19433566106E+02 -0.21656300644E+02  0.20842518654E+02  0.35792030304E+02  0.51100000000E-03 0. -1.
        -11    1    3    3    0    0 -0.64437520364E+01 -0.77535111633E+00 -0.10612216993E+01  0.65764201065E+01  0.51100000000E-03 0.  1.
         12    1    3    3    0    0 -0.16204552955E+02 -0.42028090857E+01 -0.25478173975E+01  0.16933473187E+02  0.00000000000E+00 0. -1.
</event>
<event>
 7    1  0.7755875E-012  0.5930205E+02  0.7816164E-02  0.1266604E+00
        -11   -1    0    0    0    0  0.00000000000E+00  0.00000000000E+00  0.45593999997E+02  0.45594000000E+02  0.51100000000E-03 0.  1.
         11   -1    0    0    0    0 -0.00000000000E+00 -0.00000000000E+00 -0.45593999997E+02  0.45594000000E+02  0.51100000000E-03 0. -1.
    9900012    2    1    2    0    0 -0.20176667266E+02  0.76036882444E+01  0.23490421324E+02  0.59302049005E+02  0.50000191452E+02 0.  0.
         12    1    1    2    0    0  0.20176667266E+02 -0.76036882444E+01 -0.23490421324E+02  0.31885950995E+02  0.00000000000E+00 0. -1.
         11    1    3    3    0    0 -0.17670212650E+02  0.21674803485E+02  0.31554654148E+02  0.42163132235E+02  0.51100000000E-03 0.  1.
        -11    1    3    3    0    0 -0.28082250984E+01 -0.12608909046E+02 -0.52318264896E+01  0.13937098845E+02  0.51100000000E-03 0. -1.
        -12    1    3    3    0    0  0.30177048278E+00 -0.14622061939E+01 -0.28324063343E+01  0.32018179243E+01  0.00000000000E+00 0.  1.
</event>
<event>
 7    1  0.7755875E-012  0.5930193E+02  0.7816164E-02  0.1266605E+00
        -11   -1    0    0    0    0  0.00000000000E+00  0.00000000000E+00  0.45593999997E+02  0.45594000000E+02  0.51100000000E-03 0.  1.
         11   -1    0    0    0    0 -0.00000000000E+00 -0.00000000000E+00 -0.45593999997E+02  0.45594000000E+02  0.51100000000E-03 0. -1.
    9900012    2    1    2    0    0  0.29492241070E+02 -0.11430743130E+02 -0.40332343398E+01  0.59301934845E+02  0.49999983253E+02 0.  0.
         12    1    1    2    0    0 -0.29492241070E+02  0.11430743130E+02  0.40332343398E+01  0.31886065155E+02  0.00000000000E+00 0. -1.
         11    1    3    3    0    0  0.19001800471E+02  0.11097249238E+02  0.14776077554E+02  0.26505656564E+02  0.51100000000E-03 0. -1.
        -11    1    3    3    0    0  0.91413233896E+01 -0.21534125033E+02 -0.13028088979E+02  0.26777106583E+02  0.51100000000E-03 0.  1.
        -12    1    3    3    0    0  0.13491172098E+01 -0.99386733462E+00 -0.57812229153E+01  0.60191716972E+01  0.00000000000E+00 0.  1.
</event>
<event>
 7    1  0.7755875E-012  0.5930189E+02  0.7816164E-02  0.1266605E+00
        -11   -1    0    0    0    0  0.00000000000E+00  0.00000000000E+00  0.45593999997E+02  0.45594000000E+02  0.51100000000E-03 0. -1.
         11   -1    0    0    0    0 -0.00000000000E+00 -0.00000000000E+00 -0.45593999997E+02  0.45594000000E+02  0.51100000000E-03 0.  1.
    9900012    2    1    2    0    0 -0.37138275084E+01 -0.31663543371E+02 -0.59283455639E+00  0.59301891012E+02  0.49999903313E+02 0.  0.
         12    1    1    2    0    0  0.37138275084E+01  0.31663543371E+02  0.59283455639E+00  0.31886108988E+02  0.00000000000E+00 0. -1.
         11    1    3    3    0    0 -0.92244976226E+01 -0.37947241385E+01  0.51513544584E+01  0.11226207761E+02  0.51100000000E-03 0. -1.
        -11    1    3    3    0    0  0.14899564689E+02 -0.13550549495E+02 -0.18006388025E+02  0.27015633057E+02  0.51100000000E-03 0.  1.
        -12    1    3    3    0    0 -0.93888945746E+01 -0.14318269738E+02  0.12262199010E+02  0.21060050194E+02  0.00000000000E+00 0.  1.
</event>
<event>
 7    1  0.7755875E-012  0.5930190E+02  0.7816164E-02  0.1266605E+00
        -11   -1    0    0    0    0  0.00000000000E+00  0.00000000000E+00  0.45593999997E+02  0.45594000000E+02  0.51100000000E-03 0.  1.
         11   -1    0    0    0    0 -0.00000000000E+00 -0.00000000000E+00 -0.45593999997E+02  0.45594000000E+02  0.51100000000E-03 0. -1.
    9900012    2    1    2    0    0 -0.57523981633E+01  0.97715113288E+01  0.29801857076E+02  0.59301902662E+02  0.49999924559E+02 0.  0.
         12    1    1    2    0    0  0.57523981633E+01 -0.97715113288E+01 -0.29801857076E+02  0.31886097338E+02  0.00000000000E+00 0. -1.
         11    1    3    3    0    0  0.13433421424E+02  0.12093811503E+02  0.36449832342E+01  0.18439170016E+02  0.51100000000E-03 0. -1.
        -11    1    3    3    0    0 -0.18612562910E+02 -0.31705567438E+01  0.30789956324E+02  0.36117881151E+02  0.51100000000E-03 0.  1.
         12    1    3    3    0    0 -0.57325667805E+00  0.84825656930E+00 -0.46330824820E+01  0.47448514952E+01  0.00000000000E+00 0. -1.
</event>
<event>
 7    1  0.7755875E-012  0.5930196E+02  0.7816164E-02  0.1266605E+00
        -11   -1    0    0    0    0  0.00000000000E+00  0.00000000000E+00  0.45593999997E+02  0.45594000000E+02  0.51100000000E-03 0. -1.
         11   -1    0    0    0    0 -0.00000000000E+00 -0.00000000000E+00 -0.45593999997E+02  0.45594000000E+02  0.51100000000E-03 0.  1.
    9900012    2    1    2    0    0 -0.24434375384E+02  0.18902583311E+02 -0.78976703728E+01  0.59301959895E+02  0.50000028938E+02 0.  0.
         12    1    1    2    0    0  0.24434375384E+02 -0.18902583311E+02  0.78976703728E+01  0.31886040105E+02  0.00000000000E+00 0. -1.
         11    1    3    3    0    0  0.54752510604E+01 -0.18789089140E+01 -0.33947652300E+01  0.67106709135E+01  0.51100000000E-03 0. -1.
        -11    1    3    3    0    0 -0.31963385362E+02  0.10739054360E+02 -0.15885339306E+02  0.37273707858E+02  0.51100000000E-03 0.  1.
        -12    1    3    3    0    0  0.20537589174E+01  0.10042437866E+02  0.11382434163E+02  0.15317581123E+02  0.00000000000E+00 0.  1.
</event>
<event>
 7    1  0.7755875E-012  0.5930192E+02  0.7816164E-02  0.1266605E+00
        -11   -1    0    0    0    0  0.00000000000E+00  0.00000000000E+00  0.45593999997E+02  0.45594000000E+02  0.51100000000E-03 0. -1.
         11   -1    0    0    0    0 -0.00000000000E+00 -0.00000000000E+00 -0.45593999997E+02  0.45594000000E+02  0.51100000000E-03 0.  1.
    9900012    2    1    2    0    0  0.12730950708E+01  0.31671212493E+02  0.34692003616E+01  0.59301924309E+02  0.49999964038E+02 0.  0.
         12    1    1    2    0    0 -0.12730950708E+01 -0.31671212493E+02 -0.34692003616E+01  0.31886075691E+02  0.00000000000E+00 0. -1.
         11    1    3    3    0    0 -0.18052442008E+01 -0.16345468612E+01 -0.36922777628E+00  0.24631239267E+01  0.51100000000E-03 0. -1.
        -11    1    3    3    0    0 -0.82913263162E+01  0.18959257345E+02  0.22588982530E+02  0.30634321653E+02  0.51100000000E-03 0.  1.
        -12    1    3    3    0    0  0.11369665588E+02  0.14346502009E+02 -0.18750554392E+02  0.26204478729E+02  0.00000000000E+00 0.  1.
</event>
<event>
 7    1  0.7755875E-012  0.5930194E+02  0.7816164E-02  0.1266605E+00
        -11   -1    0    0    0    0  0.00000000000E+00  0.00000000000E+00  0.45593999997E+02  0.45594000000E+02  0.51100000000E-03 0.  1.
         11   -1    0    0    0    0 -0.00000000000E+00 -0.00000000000E+00 -0.45593999997E+02  0.45594000000E+02  0.51100000000E-03 0. -1.
    9900012    2    1    2    0    0  0.25135569390E+02  0.19124535358E+02  0.43790378709E+01  0.59301942327E+02  0.49999996899E+02 0.  0.
         12    1    1    2    0    0 -0.25135569390E+02 -0.19124535358E+02 -0.43790378709E+01  0.31886057673E+02  0.00000000000E+00 0. -1.
         11    1    3    3    0    0  0.21158381438E+02 -0.11003575138E+02  0.19225324731E+01  0.23925967112E+02  0.51100000000E-03 0. -1.
        -11    1    3    3    0    0 -0.18123991035E+01  0.20574258738E+02  0.88886135100E+01  0.22485381107E+02  0.51100000000E-03 0.  1.
         12    1    3    3    0    0  0.57895870562E+01  0.95538517582E+01 -0.64321081123E+01  0.12890594108E+02  0.00000000000E+00 0. -1.
</event>
<event>
 7    1  0.7755875E-012  0.5930205E+02  0.7816164E-02  0.1266604E+00
        -11   -1    0    0    0    0  0.00000000000E+00  0.00000000000E+00  0.45593999997E+02  0.45594000000E+02  0.51100000000E-03 0.  1.
         11   -1    0    0    0    0 -0.00000000000E+00 -0.00000000000E+00 -0.45593999997E+02  0.45594000000E+02  0.51100000000E-03 0. -1.
    9900012    2    1    2    0    0  0.27901360776E+02 -0.13348456690E+01  0.15376809883E+02  0.59302046536E+02  0.50000186950E+02 0.  0.
         12    1    1    2    0    0 -0.27901360776E+02  0.13348456690E+01 -0.15376809883E+02  0.31885953464E+02  0.00000000000E+00 0. -1.
         11    1    3    3    0    0  0.25057310866E+02 -0.34981665998E+01  0.11954790590E+02  0.27982548413E+02  0.51100000000E-03 0. -1.
        -11    1    3    3    0    0  0.28482111610E+01 -0.12666454452E+02 -0.54034265260E+01  0.14062303996E+02  0.51100000000E-03 0.  1.
        -12    1    3    3    0    0 -0.41612504567E-02  0.14829775383E+02  0.88254458192E+01  0.17257194127E+02  0.00000000000E+00 0.  1.
</event>
<event>
 7    1  0.7755875E-012  0.5930207E+02  0.7816164E-02  0.1266604E+00
        -11   -1    0    0    0    0  0.00000000000E+00  0.00000000000E+00  0.45593999997E+02  0.45594000000E+02  0.51100000000E-03 0.  1.
         11   -1    0    0    0    0 -0.00000000000E+00 -0.00000000000E+00 -0.45593999997E+02  0.45594000000E+02  0.51100000000E-03 0. -1.
    9900012    2    1    2    0    0 -0.15064402359E+02 -0.25863093043E+02  0.10994381713E+02  0.59302074744E+02  0.50000238394E+02 0.  0.
         12    1    1    2    0    0  0.15064402359E+02  0.25863093043E+02 -0.10994381713E+02  0.31885925256E+02  0.00000000000E+00 0. -1.
         11    1    3    3    0    0  0.85642907978E+01  0.56579963272E+01  0.10928584428E+02  0.14993130332E+02  0.51100000000E-03 0. -1.
        -11    1    3    3    0    0 -0.14291148317E+02 -0.13720281880E+02  0.96538298403E+01  0.22038137080E+02  0.51100000000E-03 0.  1.
         12    1    3    3    0    0 -0.93375448400E+01 -0.17800807490E+02 -0.95880325552E+01  0.22270807332E+02  0.00000000000E+00 0. -1.
</event>
<event>
 7    1  0.7755875E-012  0.5930195E+02  0.7816164E-02  0.1266605E+00
        -11   -1    0    0    0    0  0.00000000000E+00  0.00000000000E+00  0.45593999997E+02  0.45594000000E+02  0.51100000000E-03 0. -1.
         11   -1    0    0    0    0 -0.00000000000E+00 -0.00000000000E+00 -0.45593999997E+02  0.45594000000E+02  0.51100000000E-03 0.  1.
    9900012    2    1    2    0    0  0.15331642255E+02  0.27412315344E+02 -0.54978038829E+01  0.59301950789E+02  0.50000012331E+02 0.  0.
         12    1    1    2    0    0 -0.15331642255E+02 -0.27412315344E+02  0.54978038829E+01  0.31886049211E+02  0.00000000000E+00 0. -1.
         11    1    3    3    0    0  0.17560512871E+02  0.78252621566E+01  0.16787447536E+02  0.25523023628E+02  0.51100000000E-03 0. -1.
        -11    1    3    3    0    0 -0.18088152271E+01 -0.21019335007E+01 -0.61399167792E+01  0.67370999164E+01  0.51100000000E-03 0.  1.
         12    1    3    3    0    0 -0.42005538813E+00  0.21688986688E+02 -0.16145334640E+02  0.27041827244E+02  0.00000000000E+00 0. -1.
</event>
<event>
 7    1  0.7755875E-012  0.5930200E+02  0.7816164E-02  0.1266605E+00
        -11   -1    0    0    0    0  0.00000000000E+00  0.00000000000E+00  0.45593999997E+02  0.45594000000E+02  0.51100000000E-03 0. -1.
         11   -1    0    0    0    0 -0.00000000000E+00 -0.00000000000E+00 -0.45593999997E+02  0.45594000000E+02  0.51100000000E-03 0.  1.
    9900012    2    1    2    0    0 -0.21518130093E+02  0.19879183811E+01 -0.23446439677E+02  0.59301995614E+02  0.50000094081E+02 0.  0.
         12    1    1    2    0    0  0.21518130093E+02 -0.19879183811E+01  0.23446439677E+02  0.31886004386E+02  0.00000000000E+00 0. -1.
         11    1    3    3    0    0 -0.19279005819E+02  0.31542506763E+01 -0.74632926984E+00  0.19549587472E+02  0.51100000000E-03 0. -1.
        -11    1    3    3    0    0  0.10922890584E+02 -0.10204701826E+02 -0.17377372223E+02  0.22922010027E+02  0.51100000000E-03 0.  1.
        -12    1    3    3    0    0 -0.13162014859E+02  0.90383695308E+01 -0.53227381841E+01  0.16830398114E+02  0.00000000000E+00 0.  1.
</event>
<event>
 7    1  0.7755875E-012  0.5930194E+02  0.7816164E-02  0.1266605E+00
        -11   -1    0    0    0    0  0.00000000000E+00  0.00000000000E+00  0.45593999997E+02  0.45594000000E+02  0.51100000000E-03 0.  1.
         11   -1    0    0    0    0 -0.00000000000E+00 -0.00000000000E+00 -0.45593999997E+02  0.45594000000E+02  0.51100000000E-03 0. -1.
    9900012    2    1    2    0    0 -0.28259463190E+02 -0.11663530103E+02  0.90600977711E+01  0.59301944021E+02  0.49999999988E+02 0.  0.
         12    1    1    2    0    0  0.28259463190E+02  0.11663530103E+02 -0.90600977711E+01  0.31886055979E+02  0.00000000000E+00 0. -1.
         11    1    3    3    0    0  0.16980768895E+01  0.33975330432E+01 -0.39272388171E+01  0.54635062817E+01  0.51100000000E-03 0. -1.
        -11    1    3    3    0    0 -0.30852015939E+01 -0.23508269145E+02  0.27575140698E+01  0.23869668435E+02  0.51100000000E-03 0.  1.
        -12    1    3    3    0    0 -0.26872338486E+02  0.84472059992E+01  0.10229822518E+02  0.29968769305E+02  0.00000000000E+00 0.  1.
</event>
<event>
 7    1  0.7755875E-012  0.5930195E+02  0.7816164E-02  0.1266605E+00
        -11   -1    0    0    0    0  0.00000000000E+00  0.00000000000E+00  0.45593999997E+02  0.45594000000E+02  0.51100000000E-03 0. -1.
         11   -1    0    0    0    0 -0.00000000000E+00 -0.00000000000E+00 -0.45593999997E+02  0.45594000000E+02  0.51100000000E-03 0.  1.
    9900012    2    1    2    0    0 -0.31494719067E+02 -0.49390926086E+01 -0.63868646812E+00  0.59301954693E+02  0.50000019451E+02 0.  0.
         12    1    1    2    0    0  0.31494719067E+02  0.49390926086E+01  0.63868646812E+00  0.31886045307E+02  0.00000000000E+00 0. -1.
         11    1    3    3    0    0 -0.86108383630E+01 -0.14633327738E+02  0.12751646828E+02  0.21234060259E+02  0.51100000000E-03 0. -1.
        -11    1    3    3    0    0 -0.15356754886E+02  0.16855551422E+02 -0.15360327485E+02  0.27493257266E+02  0.51100000000E-03 0.  1.
        -12    1    3    3    0    0 -0.75271258183E+01 -0.71613162931E+01  0.19699941889E+01  0.10574637168E+02  0.00000000000E+00 0.  1.
</event>
<event>
 7    1  0.7755875E-012  0.5930191E+02  0.7816164E-02  0.1266605E+00
        -11   -1    0    0    0    0  0.00000000000E+00  0.00000000000E+00  0.45593999997E+02  0.45594000000E+02  0.51100000000E-03 0. -1.
         11   -1    0    0    0    0 -0.00000000000E+00 -0.00000000000E+00 -0.45593999997E+02  0.45594000000E+02  0.51100000000E-03 0.  1.
    9900012    2    1    2    0    0 -0.28327624079E+02  0.13222178907E+02  0.62803310490E+01  0.59301908062E+02  0.49999934406E+02 0.  0.
         12    1    1    2    0    0  0.28327624079E+02 -0.13222178907E+02 -0.62803310490E+01  0.31886091938E+02  0.00000000000E+00 0. -1.
         11    1    3    3    0    0  0.10895330888E+02  0.82120247601E+01  0.50881767480E+01  0.14561426053E+02  0.51100000000E-03 0. -1.
        -11    1    3    3    0    0 -0.22228538096E+02  0.12597569898E+02 -0.28088511498E+01  0.25704013660E+02  0.51100000000E-03 0.  1.
        -12    1    3    3    0    0 -0.16994416871E+02 -0.75874157511E+01  0.40010054508E+01  0.19036468349E+02  0.00000000000E+00 0.  1.
</event>
<event>
 7    1  0.7755875E-012  0.5930195E+02  0.7816164E-02  0.1266605E+00
        -11   -1    0    0    0    0  0.00000000000E+00  0.00000000000E+00  0.45593999997E+02  0.45594000000E+02  0.51100000000E-03 0.  1.
         11   -1    0    0    0    0 -0.00000000000E+00 -0.00000000000E+00 -0.45593999997E+02  0.45594000000E+02  0.51100000000E-03 0. -1.
    9900012    2    1    2    0    0 -0.14726495074E+02 -0.11782432644E+02  0.25710406304E+02  0.59301947117E+02  0.50000005634E+02 0.  0.
         12    1    1    2    0    0  0.14726495074E+02  0.11782432644E+02 -0.25710406304E+02  0.31886052883E+02  0.00000000000E+00 0. -1.
         11    1    3    3    0    0 -0.28334787325E+02 -0.14332447844E+02  0.34006222541E+01  0.31934988115E+02  0.51100000000E-03 0. -1.
        -11    1    3    3    0    0  0.57896244995E+01 -0.24862919500E+01  0.67056805594E+01  0.92014972441E+01  0.51100000000E-03 0.  1.
         12    1    3    3    0    0  0.78186677515E+01  0.50363071505E+01  0.15604103490E+02  0.18165461757E+02  0.00000000000E+00 0. -1.
</event>
<event>
 7    1  0.7755875E-012  0.5930192E+02  0.7816164E-02  0.1266605E+00
        -11   -1    0    0    0    0  0.00000000000E+00  0.00000000000E+00  0.45593999997E+02  0.45594000000E+02  0.51100000000E-03 0.  1.
         11   -1    0    0    0    0 -0.00000000000E+00 -0.00000000000E+00 -0.45593999997E+02  0.45594000000E+02  0.51100000000E-03 0. -1.
    9900012    2    1    2    0    0 -0.15410586035E+02 -0.29713913601E+01  0.27756204418E+02  0.59301918205E+02  0.49999952905E+02 0.  0.
         12    1    1    2    0    0  0.15410586035E+02  0.29713913601E+01 -0.27756204418E+02  0.31886081795E+02  0.00000000000E+00 0. -1.
         11    1    3    3    0    0 -0.15390055560E+01 -0.14846449564E+02 -0.27525168156E+01  0.15177679396E+02  0.51100000000E-03 0. -1.
        -11    1    3    3    0    0 -0.20412426350E+02  0.27597392071E+01  0.18441242697E+02  0.27647110924E+02  0.51100000000E-03 0.  1.
        -12    1    3    3    0    0  0.65408458704E+01  0.91153189970E+01  0.12067478536E+02  0.16477127885E+02  0.00000000000E+00 0.  1.
</event>
<event>
 7    1  0.7755875E-012  0.5930194E+02  0.7816164E-02  0.1266605E+00
        -11   -1    0    0    0    0  0.00000000000E+00  0.00000000000E+00  0.45593999997E+02  0.45594000000E+02  0.51100000000E-03 0.  1.
         11   -1    0    0    0    0 -0.00000000000E+00 -0.00000000000E+00 -0.45593999997E+02  0.45594000000E+02  0.51100000000E-03 0. -1.
    9900012    2    1    2    0    0  0.64384971644E+00 -0.59187820536E+01  0.31325294089E+02  0.59301943906E+02  0.49999999778E+02 0.  0.
         12    1    1    2    0    0 -0.64384971644E+00  0.59187820536E+01 -0.31325294089E+02  0.31886056094E+02  0.00000000000E+00 0. -1.
         11    1    3    3    0    0 -0.10430784877E+02  0.15167435483E+02  0.32855693362E+01  0.18698859281E+02  0.51100000000E-03 0. -1.
        -11    1    3    3    0    0  0.36188510424E+01 -0.19094200669E+02  0.26284260565E+02  0.32688636187E+02  0.51100000000E-03 0.  1.
         12    1    3    3    0    0  0.74557835512E+01 -0.19920168671E+01  0.17554641878E+01  0.79144484379E+01  0.00000000000E+00 0. -1.
</event>
<event>
 7    1  0.7755875E-012  0.5930216E+02  0.7816164E-02  0.1266604E+00
        -11   -1    0    0    0    0  0.00000000000E+00  0.00000000000E+00  0.45593999997E+02  0.45594000000E+02  0.51100000000E-03 0.  1.
         11   -1    0    0    0    0 -0.00000000000E+00 -0.00000000000E+00 -0.45593999997E+02  0.45594000000E+02  0.51100000000E-03 0. -1.
    9900012    2    1    2    0    0 -0.14689469262E+02 -0.10953450589E+02  0.26094990054E+02  0.59302155289E+02  0.50000385289E+02 0.  0.
         12    1    1    2    0    0  0.14689469262E+02  0.10953450589E+02 -0.26094990054E+02  0.31885844711E+02  0.00000000000E+00 0. -1.
         11    1    3    3    0    0  0.69196519748E+01 -0.15186641314E+02 -0.67077944508E+01  0.17986388312E+02  0.51100000000E-03 0. -1.
        -11    1    3    3    0    0 -0.41480441770E+01  0.10780519612E+01  0.31401187169E+00  0.42973329219E+01  0.51100000000E-03 0.  1.
         12    1    3    3    0    0 -0.17461077060E+02  0.31551387639E+01  0.32488772633E+02  0.37018434055E+02  0.00000000000E+00 0. -1.
</event>
<event>
 7    1  0.7755875E-012  0.5930191E+02  0.7816164E-02  0.1266605E+00
        -11   -1    0    0    0    0  0.00000000000E+00  0.00000000000E+00  0.45593999997E+02  0.45594000000E+02  0.51100000000E-03 0.  1.
         11   -1    0    0    0    0 -0.00000000000E+00 -0.00000000000E+00 -0.45593999997E+02  0.45594000000E+02  0.51100000000E-03 0. -1.
    9900012    2    1    2    0    0  0.28493070445E+02 -0.10038234638E+02  0.10203011859E+02  0.59301911042E+02  0.49999939843E+02 0.  0.
         12    1    1    2    0    0 -0.28493070445E+02  0.10038234638E+02 -0.10203011859E+02  0.31886088958E+02  0.00000000000E+00 0. -1.
         11    1    3    3    0    0  0.23876709843E+02 -0.74200928559E+01  0.23957711832E+02  0.34628413296E+02  0.51100000000E-03 0.  1.
        -11    1    3    3    0    0 -0.52623432194E+01  0.41858038080E+01 -0.10100796942E+02  0.12134220569E+02  0.51100000000E-03 0. -1.
        -12    1    3    3    0    0  0.98787038209E+01 -0.68039455905E+01 -0.36539030304E+01  0.12539277178E+02  0.00000000000E+00 0.  1.
</event>
<event>
 7    1  0.7755875E-012  0.5930199E+02  0.7816164E-02  0.1266605E+00
        -11   -1    0    0    0    0  0.00000000000E+00  0.00000000000E+00  0.45593999997E+02  0.45594000000E+02  0.51100000000E-03 0. -1.
         11   -1    0    0    0    0 -0.00000000000E+00 -0.00000000000E+00 -0.45593999997E+02  0.45594000000E+02  0.51100000000E-03 0.  1.
    9900012    2    1    2    0    0  0.29490177547E+01  0.10115680497E+02 -0.30094752105E+02  0.59301987363E+02  0.50000079032E+02 0.  0.
         12    1    1    2    0    0 -0.29490177547E+01 -0.10115680497E+02  0.30094752105E+02  0.31886012637E+02  0.00000000000E+00 0. -1.
         11    1    3    3    0    0  0.45112902778E+01 -0.28467454465E+01 -0.16115333901E+00  0.53368221132E+01  0.51100000000E-03 0. -1.
        -11    1    3    3    0    0 -0.70610879973E+01  0.27969839062E+02 -0.17785937559E+02  0.33889680376E+02  0.51100000000E-03 0.  1.
        -12    1    3    3    0    0  0.54988154742E+01 -0.15007413118E+02 -0.12147661207E+02  0.20075484874E+02  0.00000000000E+00 0.  1.
</event>
<event>
 7    1  0.7755875E-012  0.5930195E+02  0.7816164E-02  0.1266605E+00
        -11   -1    0    0    0    0  0.00000000000E+00  0.00000000000E+00  0.45593999997E+02  0.45594000000E+02  0.51100000000E-03 0. -1.
         11   -1    0    0    0    0 -0.00000000000E+00 -0.00000000000E+00 -0.45593999997E+02  0.45594000000E+02  0.51100000000E-03 0.  1.
    9900012    2    1    2    0    0  0.48857761160E+01  0.29705006869E+02  0.10510097466E+02  0.59301946777E+02  0.50000005015E+02 0.  0.
         12    1    1    2    0    0 -0.48857761160E+01 -0.29705006869E+02 -0.10510097466E+02  0.31886053223E+02  0.00000000000E+00 0. -1.
         11    1    3    3    0    0 -0.19183185430E+02  0.15874161420E+02  0.13386578379E+02  0.28269844092E+02  0.51100000000E-03 0. -1.
        -11    1    3    3    0    0  0.53981692697E+01  0.98353004891E+01 -0.39859925420E+01  0.11906364012E+02  0.51100000000E-03 0.  1.
         12    1    3    3    0    0  0.18670792276E+02  0.39955449604E+01  0.11095116289E+01  0.19125738674E+02  0.00000000000E+00 0. -1.
</event>
<event>
 7    1  0.7755875E-012  0.5930187E+02  0.7816164E-02  0.1266605E+00
        -11   -1    0    0    0    0  0.00000000000E+00  0.00000000000E+00  0.45593999997E+02  0.45594000000E+02  0.51100000000E-03 0. -1.
         11   -1    0    0    0    0 -0.00000000000E+00 -0.00000000000E+00 -0.45593999997E+02  0.45594000000E+02  0.51100000000E-03 0.  1.
    9900012    2    1    2    0    0 -0.10043626329E+02  0.29858863079E+02  0.49294124971E+01  0.59301870699E+02  0.49999866266E+02 0.  0.
         12    1    1    2    0    0  0.10043626329E+02 -0.29858863079E+02 -0.49294124971E+01  0.31886129301E+02  0.00000000000E+00 0. -1.
         11    1    3    3    0    0  0.12843341904E+02  0.16860100259E+02  0.97730722881E+01  0.23339394898E+02  0.51100000000E-03 0. -1.
        -11    1    3    3    0    0 -0.10218648968E+02  0.15483227788E+02 -0.11098087983E+02  0.21617555056E+02  0.51100000000E-03 0.  1.
         12    1    3    3    0    0 -0.12668319265E+02 -0.24844649673E+01  0.62544281916E+01  0.14344920745E+02  0.00000000000E+00 0. -1.
</event>
<event>
 7    1  0.7755875E-012  0.5930195E+02  0.7816164E-02  0.1266605E+00
        -11   -1    0    0    0    0  0.00000000000E+00  0.00000000000E+00  0.45593999997E+02  0.45594000000E+02  0.51100000000E-03 0. -1.
         11   -1    0    0    0    0 -0.00000000000E+00 -0.00000000000E+00 -0.45593999997E+02  0.45594000000E+02  0.51100000000E-03 0.  1.
    9900012    2    1    2    0    0 -0.98448960792E+01 -0.29788002696E+02 -0.56985076413E+01  0.59301951754E+02  0.50000014090E+02 0.  0.
         12    1    1    2    0    0  0.98448960792E+01  0.29788002696E+02  0.56985076413E+01  0.31886048246E+02  0.00000000000E+00 0. -1.
         11    1    3    3    0    0 -0.14863697135E+02 -0.22191953033E+02 -0.60018176037E+01  0.27375793811E+02  0.51100000000E-03 0. -1.
        -11    1    3    3    0    0  0.14330252019E+00  0.59085966349E+01  0.12019926136E+02  0.13394426989E+02  0.51100000000E-03 0.  1.
        -12    1    3    3    0    0  0.48754985354E+01 -0.13504646298E+02 -0.11716616173E+02  0.18531730954E+02  0.00000000000E+00 0.  1.
</event>
<event>
 7    1  0.7755875E-012  0.5930193E+02  0.7816164E-02  0.1266605E+00
        -11   -1    0    0    0    0  0.00000000000E+00  0.00000000000E+00  0.45593999997E+02  0.45594000000E+02  0.51100000000E-03 0.  1.
         11   -1    0    0    0    0 -0.00000000000E+00 -0.00000000000E+00 -0.45593999997E+02  0.45594000000E+02  0.51100000000E-03 0. -1.
    9900012    2    1    2    0    0  0.18940815073E+02 -0.58561334807E+01  0.24973442756E+02  0.59301927523E+02  0.49999969899E+02 0.  0.
         12    1    1    2    0    0 -0.18940815073E+02  0.58561334807E+01 -0.24973442756E+02  0.31886072477E+02  0.00000000000E+00 0. -1.
         11    1    3    3    0    0  0.13530043253E+02 -0.34800360345E+01  0.38291541559E+02  0.40760457265E+02  0.51100000000E-03 0. -1.
        -11    1    3    3    0    0 -0.35278526955E+01  0.18271091615E+00 -0.45616068616E+01  0.57695221068E+01  0.51100000000E-03 0.  1.
         12    1    3    3    0    0  0.89386245147E+01 -0.25588083624E+01 -0.87564919413E+01  0.12771948151E+02  0.00000000000E+00 0. -1.
</event>
<event>
 7    1  0.7755875E-012  0.5930197E+02  0.7816164E-02  0.1266605E+00
        -11   -1    0    0    0    0  0.00000000000E+00  0.00000000000E+00  0.45593999997E+02  0.45594000000E+02  0.51100000000E-03 0.  1.
         11   -1    0    0    0    0 -0.00000000000E+00 -0.00000000000E+00 -0.45593999997E+02  0.45594000000E+02  0.51100000000E-03 0. -1.
    9900012    2    1    2    0    0 -0.17457780725E+02  0.20886847979E+02  0.16603754754E+02  0.59301965466E+02  0.50000039099E+02 0.  0.
         12    1    1    2    0    0  0.17457780725E+02 -0.20886847979E+02 -0.16603754754E+02  0.31886034534E+02  0.00000000000E+00 0. -1.
         11    1    3    3    0    0  0.88274896185E+01  0.47657565969E+01  0.10110754412E+02  0.14243046161E+02  0.51100000000E-03 0. -1.
        -11    1    3    3    0    0 -0.24994526501E+02  0.19649400789E+02  0.15447965698E+02  0.35347771512E+02  0.51100000000E-03 0.  1.
         12    1    3    3    0    0 -0.12907438424E+01 -0.35283094071E+01 -0.89549653559E+01  0.97111477934E+01  0.00000000000E+00 0. -1.
</event>
<event>
 7    1  0.7755875E-012  0.5930200E+02  0.7816164E-02  0.1266605E+00
        -11   -1    0    0    0    0  0.00000000000E+00  0.00000000000E+00  0.45593999997E+02  0.45594000000E+02  0.51100000000E-03 0.  1.
         11   -1    0    0    0    0 -0.00000000000E+00 -0.00000000000E+00 -0.45593999997E+02  0.45594000000E+02  0.51100000000E-03 0. -1.
    9900012    2    1    2    0    0  0.13035724973E+02 -0.14448975737E+02  0.25258939239E+02  0.59301999359E+02  0.50000100910E+02 0.  0.
         12    1    1    2    0    0 -0.13035724973E+02  0.14448975737E+02 -0.25258939239E+02  0.31886000641E+02  0.00000000000E+00 0. -1.
         11    1    3    3    0    0 -0.26980079518E+01  0.17695263401E+01 -0.26748320224E+01  0.41910854186E+01  0.51100000000E-03 0. -1.
        -11    1    3    3    0    0  0.40792309783E+01 -0.25953031854E+02  0.37259226237E+01  0.26534552708E+02  0.51100000000E-03 0.  1.
        -12    1    3    3    0    0  0.11654501947E+02  0.97345297762E+01  0.24207848637E+02  0.28576361232E+02  0.00000000000E+00 0.  1.
</event>
<event>
 7    1  0.7755875E-012  0.5930194E+02  0.7816164E-02  0.1266605E+00
        -11   -1    0    0    0    0  0.00000000000E+00  0.00000000000E+00  0.45593999997E+02  0.45594000000E+02  0.51100000000E-03 0.  1.
         11   -1    0    0    0    0 -0.00000000000E+00 -0.00000000000E+00 -0.45593999997E+02  0.45594000000E+02  0.51100000000E-03 0. -1.
    9900012    2    1    2    0    0 -0.30759976924E+02  0.22452508499E+01 -0.80934415437E+01  0.59301935210E+02  0.49999983919E+02 0.  0.
         12    1    1    2    0    0  0.30759976924E+02 -0.22452508499E+01  0.80934415437E+01  0.31886064790E+02  0.00000000000E+00 0. -1.
         11    1    3    3    0    0  0.84090276387E+01  0.55842143290E+00 -0.15015957958E+01  0.85602786474E+01  0.51100000000E-03 0.  1.
        -11    1    3    3    0    0 -0.24408849455E+02  0.16153489794E+02 -0.68985214014E+01  0.30071859970E+02  0.51100000000E-03 0. -1.
        -12    1    3    3    0    0 -0.14760155107E+02 -0.14466660377E+02  0.30667565352E+00  0.20669796593E+02  0.00000000000E+00 0.  1.
</event>
<event>
 7    1  0.7755875E-012  0.5930195E+02  0.7816164E-02  0.1266605E+00
        -11   -1    0    0    0    0  0.00000000000E+00  0.00000000000E+00  0.45593999997E+02  0.45594000000E+02  0.51100000000E-03 0.  1.
         11   -1    0    0    0    0 -0.00000000000E+00 -0.00000000000E+00 -0.45593999997E+02  0.45594000000E+02  0.51100000000E-03 0. -1.
    9900012    2    1    2    0    0 -0.31820067955E+02  0.10734953879E+00  0.20474733743E+01  0.59301946688E+02  0.50000004851E+02 0.  0.
         12    1    1    2    0    0  0.31820067955E+02 -0.10734953879E+00 -0.20474733743E+01  0.31886053312E+02  0.00000000000E+00 0. -1.
         11    1    3    3    0    0 -0.18830234993E+02 -0.22844134650E+02  0.73111109465E+01  0.30494008942E+02  0.51100000000E-03 0. -1.
        -11    1    3    3    0    0 -0.10108576306E+02  0.77061832305E+01 -0.11878858811E+01  0.12766348266E+02  0.51100000000E-03 0.  1.
         12    1    3    3    0    0 -0.28812566564E+01  0.15245300958E+02 -0.40757516912E+01  0.16041589481E+02  0.00000000000E+00 0. -1.
</event>
<event>
 7    1  0.7755875E-012  0.5930195E+02  0.7816164E-02  0.1266605E+00
        -11   -1    0    0    0    0  0.00000000000E+00  0.00000000000E+00  0.45593999997E+02  0.45594000000E+02  0.51100000000E-03 0. -1.
         11   -1    0    0    0    0 -0.00000000000E+00 -0.00000000000E+00 -0.45593999997E+02  0.45594000000E+02  0.51100000000E-03 0.  1.
    9900012    2    1    2    0    0 -0.13483198835E+02  0.15983350465E+02 -0.24071894054E+02  0.59301949347E+02  0.50000009701E+02 0.  0.
         12    1    1    2    0    0  0.13483198835E+02 -0.15983350465E+02  0.24071894054E+02  0.31886050653E+02  0.00000000000E+00 0. -1.
         11    1    3    3    0    0  0.49156566941E+01  0.23730929917E+01  0.12613757298E+02  0.13744166927E+02  0.51100000000E-03 0. -1.
        -11    1    3    3    0    0 -0.36551268534E+01  0.79256169797E+01 -0.47740981318E+01  0.99482345196E+01  0.51100000000E-03 0.  1.
         12    1    3    3    0    0 -0.14743728675E+02  0.56846404934E+01 -0.31911553220E+02  0.35609547901E+02  0.00000000000E+00 0. -1.
</event>
<event>
 7    1  0.7755875E-012  0.5930210E+02  0.7816164E-02  0.1266604E+00
        -11   -1    0    0    0    0  0.00000000000E+00  0.00000000000E+00  0.45593999997E+02  0.45594000000E+02  0.51100000000E-03 0.  1.
         11   -1    0    0    0    0 -0.00000000000E+00 -0.00000000000E+00 -0.45593999997E+02  0.45594000000E+02  0.51100000000E-03 0. -1.
    9900012    2    1    2    0    0  0.28995810359E+02  0.12107989338E+02 -0.54176086972E+01  0.59302095462E+02  0.50000276180E+02 0.  0.
         12    1    1    2    0    0 -0.28995810359E+02 -0.12107989338E+02  0.54176086972E+01  0.31885904538E+02  0.00000000000E+00 0. -1.
         11    1    3    3    0    0  0.25392712665E+02  0.98988894467E+01 -0.14669815089E+02  0.30951273702E+02  0.51100000000E-03 0. -1.
        -11    1    3    3    0    0 -0.11104323600E+01  0.85218242632E+01  0.15879434285E+02  0.18055774208E+02  0.51100000000E-03 0.  1.
         12    1    3    3    0    0  0.47135300543E+01 -0.63127243721E+01 -0.66272278922E+01  0.10295047552E+02  0.00000000000E+00 0. -1.
</event>
<event>
 7    1  0.7755875E-012  0.5930189E+02  0.7816164E-02  0.1266605E+00
        -11   -1    0    0    0    0  0.00000000000E+00  0.00000000000E+00  0.45593999997E+02  0.45594000000E+02  0.51100000000E-03 0.  1.
         11   -1    0    0    0    0 -0.00000000000E+00 -0.00000000000E+00 -0.45593999997E+02  0.45594000000E+02  0.51100000000E-03 0. -1.
    9900012    2    1    2    0    0 -0.26021521097E+01 -0.11622874379E+02  0.29578055418E+02  0.59301893829E+02  0.49999908449E+02 0.  0.
         12    1    1    2    0    0  0.26021521097E+01  0.11622874379E+02 -0.29578055418E+02  0.31886106171E+02  0.00000000000E+00 0. -1.
         11    1    3    3    0    0  0.36934312769E+01 -0.17218671503E+02  0.34106153416E+02  0.38384290850E+02  0.51100000000E-03 0. -1.
        -11    1    3    3    0    0 -0.12402306789E+02  0.16885231143E+01 -0.29024205891E+00  0.12520086450E+02  0.51100000000E-03 0.  1.
         12    1    3    3    0    0  0.61067234022E+01  0.39072740097E+01 -0.42378559390E+01  0.83975165292E+01  0.00000000000E+00 0. -1.
</event>
<event>
 7    1  0.7755875E-012  0.5930192E+02  0.7816164E-02  0.1266605E+00
        -11   -1    0    0    0    0  0.00000000000E+00  0.00000000000E+00  0.45593999997E+02  0.45594000000E+02  0.51100000000E-03 0.  1.
         11   -1    0    0    0    0 -0.00000000000E+00 -0.00000000000E+00 -0.45593999997E+02  0.45594000000E+02  0.51100000000E-03 0. -1.
    9900012    2    1    2    0    0 -0.82576583791E+01  0.13347596637E+02  0.27755630746E+02  0.59301916891E+02  0.49999950510E+02 0.  0.
         12    1    1    2    0    0  0.82576583791E+01 -0.13347596637E+02 -0.27755630746E+02  0.31886083109E+02  0.00000000000E+00 0. -1.
         11    1    3    3    0    0  0.13160431156E+02  0.91209406459E+01 -0.12805551611E+00  0.16012648280E+02  0.51100000000E-03 0. -1.
        -11    1    3    3    0    0 -0.69364651237E+01  0.20513208697E+01  0.27715850837E+02  0.28644211520E+02  0.51100000000E-03 0.  1.
         12    1    3    3    0    0 -0.14481624411E+02  0.21753351214E+01  0.16783542585E+00  0.14645057091E+02  0.00000000000E+00 0. -1.
</event>
<event>
 7    1  0.7755875E-012  0.5930192E+02  0.7816164E-02  0.1266605E+00
        -11   -1    0    0    0    0  0.00000000000E+00  0.00000000000E+00  0.45593999997E+02  0.45594000000E+02  0.51100000000E-03 0.  1.
         11   -1    0    0    0    0 -0.00000000000E+00 -0.00000000000E+00 -0.45593999997E+02  0.45594000000E+02  0.51100000000E-03 0. -1.
    9900012    2    1    2    0    0  0.15586288132E+02 -0.17236827221E+02  0.21833030254E+02  0.59301924662E+02  0.49999964681E+02 0.  0.
         12    1    1    2    0    0 -0.15586288132E+02  0.17236827221E+02 -0.21833030254E+02  0.31886075338E+02  0.00000000000E+00 0. -1.
         11    1    3    3    0    0 -0.49172364265E+01 -0.49651023686E+01 -0.42860082665E+01  0.81976412904E+01  0.51100000000E-03 0. -1.
        -11    1    3    3    0    0  0.28847001804E+02 -0.18469305066E+01  0.10987775091E+02  0.30923969135E+02  0.51100000000E-03 0.  1.
        -12    1    3    3    0    0 -0.83434772454E+01 -0.10424794346E+02  0.15131263429E+02  0.20180314236E+02  0.00000000000E+00 0.  1.
</event>
<event>
 7    1  0.7755875E-012  0.5930193E+02  0.7816164E-02  0.1266605E+00
        -11   -1    0    0    0    0  0.00000000000E+00  0.00000000000E+00  0.45593999997E+02  0.45594000000E+02  0.51100000000E-03 0.  1.
         11   -1    0    0    0    0 -0.00000000000E+00 -0.00000000000E+00 -0.45593999997E+02  0.45594000000E+02  0.51100000000E-03 0. -1.
    9900012    2    1    2    0    0 -0.15753854598E+02  0.23958700234E+02  0.13946988068E+02  0.59301925802E+02  0.49999966760E+02 0.  0.
         12    1    1    2    0    0  0.15753854598E+02 -0.23958700234E+02 -0.13946988068E+02  0.31886074198E+02  0.00000000000E+00 0. -1.
         11    1    3    3    0    0  0.26749402391E+01 -0.62115186993E+01  0.14705224265E+02  0.16185854651E+02  0.51100000000E-03 0. -1.
        -11    1    3    3    0    0 -0.13829848951E+02  0.21101210843E+02 -0.12016955249E+02  0.27945179098E+02  0.51100000000E-03 0.  1.
         12    1    3    3    0    0 -0.45989458856E+01  0.90690080899E+01  0.11258719053E+02  0.15170892054E+02  0.00000000000E+00 0. -1.
</event>
<event>
 7    1  0.7755875E-012  0.5930193E+02  0.7816164E-02  0.1266605E+00
        -11   -1    0    0    0    0  0.00000000000E+00  0.00000000000E+00  0.45593999997E+02  0.45594000000E+02  0.51100000000E-03 0.  1.
         11   -1    0    0    0    0 -0.00000000000E+00 -0.00000000000E+00 -0.45593999997E+02  0.45594000000E+02  0.51100000000E-03 0. -1.
    9900012    2    1    2    0    0 -0.10251693219E+02  0.52111576895E+01  0.29740009395E+02  0.59301928792E+02  0.49999972213E+02 0.  0.
         12    1    1    2    0    0  0.10251693219E+02 -0.52111576895E+01 -0.29740009395E+02  0.31886071208E+02  0.00000000000E+00 0. -1.
         11    1    3    3    0    0 -0.10499279998E+02  0.10795316264E+02 -0.56458248244E+01  0.16082570439E+02  0.51100000000E-03 0. -1.
        -11    1    3    3    0    0  0.81425404807E+01  0.43990632551E+01  0.25425702471E+02  0.27057698893E+02  0.51100000000E-03 0.  1.
         12    1    3    3    0    0 -0.78949537014E+01 -0.99832218293E+01  0.99601317482E+01  0.16161659459E+02  0.00000000000E+00 0. -1.
</event>
<event>
 7    1  0.7755875E-012  0.5930201E+02  0.7816164E-02  0.1266605E+00
        -11   -1    0    0    0    0  0.00000000000E+00  0.00000000000E+00  0.45593999997E+02  0.45594000000E+02  0.51100000000E-03 0.  1.
         11   -1    0    0    0    0 -0.00000000000E+00 -0.00000000000E+00 -0.45593999997E+02  0.45594000000E+02  0.51100000000E-03 0. -1.
    9900012    2    1    2    0    0  0.30647814951E+01 -0.82924370284E+01  0.30635910747E+02  0.59302008958E+02  0.50000118417E+02 0.  0.
         12    1    1    2    0    0 -0.30647814951E+01  0.82924370284E+01 -0.30635910747E+02  0.31885991042E+02  0.00000000000E+00 0. -1.
         11    1    3    3    0    0 -0.18916189164E+02 -0.65942154788E+01  0.12661677898E+01  0.20072595034E+02  0.51100000000E-03 0. -1.
        -11    1    3    3    0    0  0.10530778416E+02 -0.72520028763E+01  0.10910572211E+02  0.16808611662E+02  0.51100000000E-03 0.  1.
         12    1    3    3    0    0  0.11450192243E+02  0.55537813267E+01  0.18459170746E+02  0.22420802262E+02  0.00000000000E+00 0. -1.
</event>
<event>
 7    1  0.7755875E-012  0.5930159E+02  0.7816164E-02  0.1266606E+00
        -11   -1    0    0    0    0  0.00000000000E+00  0.00000000000E+00  0.45593999997E+02  0.45594000000E+02  0.51100000000E-03 0.  1.
         11   -1    0    0    0    0 -0.00000000000E+00 -0.00000000000E+00 -0.45593999997E+02  0.45594000000E+02  0.51100000000E-03 0. -1.
    9900012    2    1    2    0    0 -0.45900452513E+01  0.31643349999E+01  0.31395248221E+02  0.59301590007E+02  0.49999354347E+02 0.  0.
         12    1    1    2    0    0  0.45900452513E+01 -0.31643349999E+01 -0.31395248221E+02  0.31886409993E+02  0.00000000000E+00 0. -1.
         11    1    3    3    0    0  0.12728526937E+02 -0.99688342744E+01  0.18231415720E+02  0.24367551666E+02  0.51100000000E-03 0.  1.
        -11    1    3    3    0    0 -0.81511790855E+00  0.10255702928E+02  0.14883953257E+02  0.18093532673E+02  0.51100000000E-03 0. -1.
         12    1    3    3    0    0 -0.16503454280E+02  0.28774663461E+01 -0.17201207567E+01  0.16840505668E+02  0.00000000000E+00 0. -1.
</event>
<event>
 7    1  0.7755875E-012  0.5930190E+02  0.7816164E-02  0.1266605E+00
        -11   -1    0    0    0    0  0.00000000000E+00  0.00000000000E+00  0.45593999997E+02  0.45594000000E+02  0.51100000000E-03 0.  1.
         11   -1    0    0    0    0 -0.00000000000E+00 -0.00000000000E+00 -0.45593999997E+02  0.45594000000E+02  0.51100000000E-03 0. -1.
    9900012    2    1    2    0    0  0.24783178972E+02  0.16619764013E+02  0.11238372351E+02  0.59301897559E+02  0.49999915251E+02 0.  0.
         12    1    1    2    0    0 -0.24783178972E+02 -0.16619764013E+02 -0.11238372351E+02  0.31886102441E+02  0.00000000000E+00 0. -1.
         11    1    3    3    0    0 -0.29420636180E+01  0.32027427898E+01 -0.11984887517E+02  0.12749542296E+02  0.51100000000E-03 0. -1.
        -11    1    3    3    0    0  0.27839736842E+02  0.70662423148E+01  0.76354340447E+01  0.29720070343E+02  0.51100000000E-03 0.  1.
         12    1    3    3    0    0 -0.11449425260E+00  0.63507789085E+01  0.15587825824E+02  0.16832284919E+02  0.00000000000E+00 0. -1.
</event>
<event>
 7    1  0.7755875E-012  0.5930193E+02  0.7816164E-02  0.1266605E+00
        -11   -1    0    0    0    0  0.00000000000E+00  0.00000000000E+00  0.45593999997E+02  0.45594000000E+02  0.51100000000E-03 0.  1.
         11   -1    0    0    0    0 -0.00000000000E+00 -0.00000000000E+00 -0.45593999997E+02  0.45594000000E+02  0.51100000000E-03 0. -1.
    9900012    2    1    2    0    0  0.27580336150E+02  0.12055920758E+02 -0.10521469719E+02  0.59301929491E+02  0.49999973488E+02 0.  0.
         12    1    1    2    0    0 -0.27580336150E+02 -0.12055920758E+02  0.10521469719E+02  0.31886070509E+02  0.00000000000E+00 0. -1.
         11    1    3    3    0    0  0.30588932304E+02 -0.79214905953E+01 -0.61185498144E+00  0.31603910510E+02  0.51100000000E-03 0. -1.
        -11    1    3    3    0    0 -0.30484819233E+01  0.93399573836E+01  0.36348220449E+01  0.10475685062E+02  0.51100000000E-03 0.  1.
        -12    1    3    3    0    0  0.39885769320E-01  0.10637453969E+02 -0.13544436782E+02  0.17222333918E+02  0.00000000000E+00 0.  1.
</event>
<event>
 7    1  0.7755875E-012  0.5930194E+02  0.7816164E-02  0.1266605E+00
        -11   -1    0    0    0    0  0.00000000000E+00  0.00000000000E+00  0.45593999997E+02  0.45594000000E+02  0.51100000000E-03 0.  1.
         11   -1    0    0    0    0 -0.00000000000E+00 -0.00000000000E+00 -0.45593999997E+02  0.45594000000E+02  0.51100000000E-03 0. -1.
    9900012    2    1    2    0    0 -0.22039896252E+02  0.11764034777E+02  0.19813411206E+02  0.59301940277E+02  0.49999993160E+02 0.  0.
         12    1    1    2    0    0  0.22039896252E+02 -0.11764034777E+02 -0.19813411206E+02  0.31886059723E+02  0.00000000000E+00 0. -1.
         11    1    3    3    0    0  0.47381348456E-01  0.79732505244E+01  0.14310515687E+02  0.16381874997E+02  0.51100000000E-03 0. -1.
        -11    1    3    3    0    0 -0.19880346181E+02 -0.12597908551E+02 -0.39610446785E+01  0.23866825079E+02  0.51100000000E-03 0.  1.
        -12    1    3    3    0    0 -0.22069314193E+01  0.16388692804E+02  0.94639401975E+01  0.19053240202E+02  0.00000000000E+00 0.  1.
</event>
<event>
 7    1  0.7755875E-012  0.5930195E+02  0.7816164E-02  0.1266605E+00
        -11   -1    0    0    0    0  0.00000000000E+00  0.00000000000E+00  0.45593999997E+02  0.45594000000E+02  0.51100000000E-03 0. -1.
         11   -1    0    0    0    0 -0.00000000000E+00 -0.00000000000E+00 -0.45593999997E+02  0.45594000000E+02  0.51100000000E-03 0.  1.
    9900012    2    1    2    0    0  0.58112865109E+01  0.28632260805E+02 -0.12772743518E+02  0.59301946831E+02  0.50000005113E+02 0.  0.
         12    1    1    2    0    0 -0.58112865109E+01 -0.28632260805E+02  0.12772743518E+02  0.31886053169E+02  0.00000000000E+00 0. -1.
         11    1    3    3    0    0  0.15294775413E+02  0.31420597318E+02 -0.41888056366E+01  0.35195598925E+02  0.51100000000E-03 0. -1.
        -11    1    3    3    0    0 -0.12254626486E+02 -0.40455858730E+01 -0.13275482258E+02  0.18514347539E+02  0.51100000000E-03 0.  1.
         12    1    3    3    0    0  0.27711375836E+01  0.12572493602E+01  0.46915443768E+01  0.55920003667E+01  0.00000000000E+00 0. -1.
</event>
<event>
 7    1  0.7755875E-012  0.5930192E+02  0.7816164E-02  0.1266605E+00
        -11   -1    0    0    0    0  0.00000000000E+00  0.00000000000E+00  0.45593999997E+02  0.45594000000E+02  0.51100000000E-03 0. -1.
         11   -1    0    0    0    0 -0.00000000000E+00 -0.00000000000E+00 -0.45593999997E+02  0.45594000000E+02  0.51100000000E-03 0.  1.
    9900012    2    1    2    0    0 -0.91216806845E+01  0.22635822964E+02 -0.20521617790E+02  0.59301916257E+02  0.49999949352E+02 0.  0.
         12    1    1    2    0    0  0.91216806845E+01 -0.22635822964E+02  0.20521617790E+02  0.31886083743E+02  0.00000000000E+00 0. -1.
         11    1    3    3    0    0  0.62538551980E+01  0.18607018521E+02  0.37026499109E+00  0.19633362919E+02  0.51100000000E-03 0. -1.
        -11    1    3    3    0    0 -0.84478491492E+01  0.47941658576E+01 -0.28046074360E+02  0.29680506545E+02  0.51100000000E-03 0.  1.
         12    1    3    3    0    0 -0.69276867333E+01 -0.76536141463E+00  0.71541915792E+01  0.99880467921E+01  0.00000000000E+00 0. -1.
</event>
<event>
 7    1  0.7755875E-012  0.5930194E+02  0.7816164E-02  0.1266605E+00
        -11   -1    0    0    0    0  0.00000000000E+00  0.00000000000E+00  0.45593999997E+02  0.45594000000E+02  0.51100000000E-03 0.  1.
         11   -1    0    0    0    0 -0.00000000000E+00 -0.00000000000E+00 -0.45593999997E+02  0.45594000000E+02  0.51100000000E-03 0. -1.
    9900012    2    1    2    0    0  0.96292757391E+01 -0.45647104213E+01  0.30052643720E+02  0.59301938357E+02  0.49999989659E+02 0.  0.
         12    1    1    2    0    0 -0.96292757391E+01  0.45647104213E+01 -0.30052643720E+02  0.31886061643E+02  0.00000000000E+00 0. -1.
         11    1    3    3    0    0  0.53826116199E+01 -0.12004571771E+02 -0.25313908582E+01  0.13397394941E+02  0.51100000000E-03 0. -1.
        -11    1    3    3    0    0  0.16694059669E+02  0.15130663579E+01  0.25198275633E+02  0.30264403070E+02  0.51100000000E-03 0.  1.
        -12    1    3    3    0    0 -0.12447395550E+02  0.59267949923E+01  0.73857589454E+01  0.15640140346E+02  0.00000000000E+00 0.  1.
</event>
<event>
 7    1  0.7755875E-012  0.5930194E+02  0.7816164E-02  0.1266605E+00
        -11   -1    0    0    0    0  0.00000000000E+00  0.00000000000E+00  0.45593999997E+02  0.45594000000E+02  0.51100000000E-03 0. -1.
         11   -1    0    0    0    0 -0.00000000000E+00 -0.00000000000E+00 -0.45593999997E+02  0.45594000000E+02  0.51100000000E-03 0.  1.
    9900012    2    1    2    0    0  0.13826286411E+02 -0.78456502824E-02 -0.28732462283E+02  0.59301942760E+02  0.49999997687E+02 0.  0.
         12    1    1    2    0    0 -0.13826286411E+02  0.78456502824E-02  0.28732462283E+02  0.31886057240E+02  0.00000000000E+00 0. -1.
         11    1    3    3    0    0  0.83996155320E+01  0.55531633335E+01  0.10341962860E+02  0.14434242625E+02  0.51100000000E-03 0. -1.
        -11    1    3    3    0    0  0.23285944014E+01 -0.11561648950E+02 -0.35107587318E+02  0.37035614831E+02  0.51100000000E-03 0.  1.
        -12    1    3    3    0    0  0.30980764774E+01  0.60006399666E+01 -0.39668378259E+01  0.78320853038E+01  0.00000000000E+00 0.  1.
</event>
<event>
 7    1  0.7755875E-012  0.5930193E+02  0.7816164E-02  0.1266605E+00
        -11   -1    0    0    0    0  0.00000000000E+00  0.00000000000E+00  0.45593999997E+02  0.45594000000E+02  0.51100000000E-03 0.  1.
         11   -1    0    0    0    0 -0.00000000000E+00 -0.00000000000E+00 -0.45593999997E+02  0.45594000000E+02  0.51100000000E-03 0. -1.
    9900012    2    1    2    0    0  0.26194738929E+02  0.17387312907E+02 -0.53140099119E+01  0.59301926252E+02  0.49999967582E+02 0.  0.
         12    1    1    2    0    0 -0.26194738929E+02 -0.17387312907E+02  0.53140099119E+01  0.31886073748E+02  0.00000000000E+00 0. -1.
         11    1    3    3    0    0 -0.26084091890E+01  0.40459408650E+00 -0.90569767718E+00  0.27906600323E+01  0.51100000000E-03 0. -1.
        -11    1    3    3    0    0  0.21731596242E+02  0.31818916438E+02 -0.87484605865E+01  0.39512545874E+02  0.51100000000E-03 0.  1.
        -12    1    3    3    0    0  0.70715518768E+01 -0.14836197618E+02  0.43401483517E+01  0.16998720346E+02  0.00000000000E+00 0.  1.
</event>
<event>
 7    1  0.7755875E-012  0.5930196E+02  0.7816164E-02  0.1266605E+00
        -11   -1    0    0    0    0  0.00000000000E+00  0.00000000000E+00  0.45593999997E+02  0.45594000000E+02  0.51100000000E-03 0. -1.
         11   -1    0    0    0    0 -0.00000000000E+00 -0.00000000000E+00 -0.45593999997E+02  0.45594000000E+02  0.51100000000E-03 0.  1.
    9900012    2    1    2    0    0  0.17528874782E+01 -0.13855193942E+02 -0.28664974944E+02  0.59301955996E+02  0.50000021828E+02 0.  0.
         12    1    1    2    0    0 -0.17528874782E+01  0.13855193942E+02  0.28664974944E+02  0.31886044004E+02  0.00000000000E+00 0. -1.
         11    1    3    3    0    0  0.83591048615E+01 -0.52422470697E+01  0.10183461903E+02  0.14179516389E+02  0.51100000000E-03 0. -1.
        -11    1    3    3    0    0 -0.93105690998E+01 -0.50364170229E+01 -0.39219811035E+02  0.40623217146E+02  0.51100000000E-03 0.  1.
        -12    1    3    3    0    0  0.27043517165E+01 -0.35765298499E+01  0.37137418804E+00  0.44992224619E+01  0.00000000000E+00 0.  1.
</event>
<event>
 7    1  0.7755875E-012  0.5930195E+02  0.7816164E-02  0.1266605E+00
        -11   -1    0    0    0    0  0.00000000000E+00  0.00000000000E+00  0.45593999997E+02  0.45594000000E+02  0.51100000000E-03 0. -1.
         11   -1    0    0    0    0 -0.00000000000E+00 -0.00000000000E+00 -0.45593999997E+02  0.45594000000E+02  0.51100000000E-03 0.  1.
    9900012    2    1    2    0    0 -0.14376913246E+02 -0.76985678241E+01 -0.27399937727E+02  0.59301950253E+02  0.50000011354E+02 0.  0.
         12    1    1    2    0    0  0.14376913246E+02  0.76985678241E+01  0.27399937727E+02  0.31886049747E+02  0.00000000000E+00 0. -1.
         11    1    3    3    0    0  0.70071467019E+00 -0.19781520320E+02 -0.33388313017E+01  0.20073548314E+02  0.51100000000E-03 0. -1.
        -11    1    3    3    0    0 -0.21509315025E+02  0.77605986222E+01 -0.15203370476E+02  0.27459424574E+02  0.51100000000E-03 0.  1.
         12    1    3    3    0    0  0.64316871092E+01  0.43223538734E+01 -0.88577359493E+01  0.11768977365E+02  0.00000000000E+00 0. -1.
</event>
<event>
 7    1  0.7755875E-012  0.5930195E+02  0.7816164E-02  0.1266605E+00
        -11   -1    0    0    0    0  0.00000000000E+00  0.00000000000E+00  0.45593999997E+02  0.45594000000E+02  0.51100000000E-03 0. -1.
         11   -1    0    0    0    0 -0.00000000000E+00 -0.00000000000E+00 -0.45593999997E+02  0.45594000000E+02  0.51100000000E-03 0.  1.
    9900012    2    1    2    0    0 -0.90812004410E+00  0.20315099397E+02 -0.24559977325E+02  0.59301946125E+02  0.50000003825E+02 0.  0.
         12    1    1    2    0    0  0.90812004410E+00 -0.20315099397E+02  0.24559977325E+02  0.31886053875E+02  0.00000000000E+00 0. -1.
         11    1    3    3    0    0  0.10199714282E+02 -0.62051548918E+01 -0.34820201986E+01  0.12436341246E+02  0.51100000000E-03 0. -1.
        -11    1    3    3    0    0 -0.84520077826E+01  0.10422227867E+02 -0.26474259586E+02  0.29680729273E+02  0.51100000000E-03 0.  1.
         12    1    3    3    0    0 -0.26558265440E+01  0.16098026423E+02  0.53963024604E+01  0.17184875606E+02  0.00000000000E+00 0. -1.
</event>
<event>
 7    1  0.7755875E-012  0.5930196E+02  0.7816164E-02  0.1266605E+00
        -11   -1    0    0    0    0  0.00000000000E+00  0.00000000000E+00  0.45593999997E+02  0.45594000000E+02  0.51100000000E-03 0. -1.
         11   -1    0    0    0    0 -0.00000000000E+00 -0.00000000000E+00 -0.45593999997E+02  0.45594000000E+02  0.51100000000E-03 0.  1.
    9900012    2    1    2    0    0  0.17976581119E+02  0.17381967628E+02 -0.19784568464E+02  0.59301962042E+02  0.50000032854E+02 0.  0.
         12    1    1    2    0    0 -0.17976581119E+02 -0.17381967628E+02  0.19784568464E+02  0.31886037958E+02  0.00000000000E+00 0. -1.
         11    1    3    3    0    0  0.80498272728E+01  0.55571733638E+01  0.45100771775E+01  0.10771382981E+02  0.51100000000E-03 0. -1.
        -11    1    3    3    0    0  0.11265438325E+02  0.13376622827E+01 -0.32962003786E+02  0.34859620407E+02  0.51100000000E-03 0.  1.
        -12    1    3    3    0    0 -0.13386844783E+01  0.10487131981E+02  0.86673581450E+01  0.13670958655E+02  0.00000000000E+00 0.  1.
</event>
<event>
 7    1  0.7755875E-012  0.5930195E+02  0.7816164E-02  0.1266605E+00
        -11   -1    0    0    0    0  0.00000000000E+00  0.00000000000E+00  0.45593999997E+02  0.45594000000E+02  0.51100000000E-03 0.  1.
         11   -1    0    0    0    0 -0.00000000000E+00 -0.00000000000E+00 -0.45593999997E+02  0.45594000000E+02  0.51100000000E-03 0. -1.
    9900012    2    1    2    0    0 -0.10485383448E+02 -0.95749116735E+00  0.30097512106E+02  0.59301948342E+02  0.50000007868E+02 0.  0.
         12    1    1    2    0    0  0.10485383448E+02  0.95749116735E+00 -0.30097512106E+02  0.31886051658E+02  0.00000000000E+00 0. -1.
         11    1    3    3    0    0 -0.23376836670E+02 -0.33935874574E+01  0.10803454671E+02  0.25975133524E+02  0.51100000000E-03 0. -1.
        -11    1    3    3    0    0  0.13324482285E+02 -0.76368310605E+01  0.17145744291E+02  0.23018244163E+02  0.51100000000E-03 0.  1.
         12    1    3    3    0    0 -0.43302906288E+00  0.10072927351E+02  0.21483131437E+01  0.10308570655E+02  0.00000000000E+00 0. -1.
</event>
<event>
 7    1  0.7755875E-012  0.5930195E+02  0.7816164E-02  0.1266605E+00
        -11   -1    0    0    0    0  0.00000000000E+00  0.00000000000E+00  0.45593999997E+02  0.45594000000E+02  0.51100000000E-03 0.  1.
         11   -1    0    0    0    0 -0.00000000000E+00 -0.00000000000E+00 -0.45593999997E+02  0.45594000000E+02  0.51100000000E-03 0. -1.
    9900012    2    1    2    0    0 -0.19877083699E+02 -0.17974846397E+02 -0.17277921878E+02  0.59301950640E+02  0.50000012059E+02 0.  0.
         12    1    1    2    0    0  0.19877083699E+02  0.17974846397E+02  0.17277921878E+02  0.31886049360E+02  0.00000000000E+00 0. -1.
         11    1    3    3    0    0 -0.13741315436E+02  0.61175146029E+00 -0.14289752611E+02  0.19834188154E+02  0.51100000000E-03 0. -1.
        -11    1    3    3    0    0  0.12803389014E+02 -0.15210222843E+02 -0.36720160339E+01  0.20217847343E+02  0.51100000000E-03 0.  1.
        -12    1    3    3    0    0 -0.18939157277E+02 -0.33763750152E+01  0.68384676671E+00  0.19249915143E+02  0.00000000000E+00 0.  1.
</event>
<event>
 7    1  0.7755875E-012  0.5930195E+02  0.7816164E-02  0.1266605E+00
        -11   -1    0    0    0    0  0.00000000000E+00  0.00000000000E+00  0.45593999997E+02  0.45594000000E+02  0.51100000000E-03 0. -1.
         11   -1    0    0    0    0 -0.00000000000E+00 -0.00000000000E+00 -0.45593999997E+02  0.45594000000E+02  0.51100000000E-03 0.  1.
    9900012    2    1    2    0    0  0.27859984292E+02 -0.11429388226E+02 -0.10483817761E+02  0.59301951722E+02  0.50000014032E+02 0.  0.
         12    1    1    2    0    0 -0.27859984292E+02  0.11429388226E+02  0.10483817761E+02  0.31886048278E+02  0.00000000000E+00 0. -1.
         11    1    3    3    0    0  0.39636352081E+01 -0.12454655166E+02 -0.15155193428E+02  0.20012714146E+02  0.51100000000E-03 0.  1.
        -11    1    3    3    0    0  0.19145084538E+02 -0.65427144400E+01  0.15327348684E+02  0.25382454415E+02  0.51100000000E-03 0. -1.
        -12    1    3    3    0    0  0.47512645462E+01  0.75679813794E+01 -0.10655973017E+02  0.13906783161E+02  0.00000000000E+00 0.  1.
</event>
<event>
 7    1  0.7755875E-012  0.5930191E+02  0.7816164E-02  0.1266605E+00
        -11   -1    0    0    0    0  0.00000000000E+00  0.00000000000E+00  0.45593999997E+02  0.45594000000E+02  0.51100000000E-03 0.  1.
         11   -1    0    0    0    0 -0.00000000000E+00 -0.00000000000E+00 -0.45593999997E+02  0.45594000000E+02  0.51100000000E-03 0. -1.
    9900012    2    1    2    0    0 -0.46701316633E+01  0.11789515411E+02  0.29256114122E+02  0.59301905587E+02  0.49999929894E+02 0.  0.
         12    1    1    2    0    0  0.46701316633E+01 -0.11789515411E+02 -0.29256114122E+02  0.31886094413E+02  0.00000000000E+00 0. -1.
         11    1    3    3    0    0 -0.13180232946E+02  0.14295368978E+02  0.58543281960E+01  0.20306385046E+02  0.51100000000E-03 0. -1.
        -11    1    3    3    0    0 -0.29699353936E+00  0.88846214869E+01  0.22926361506E+02  0.24589484669E+02  0.51100000000E-03 0.  1.
         12    1    3    3    0    0  0.88070948225E+01 -0.11390475054E+02  0.47542442052E+00  0.14406035872E+02  0.00000000000E+00 0. -1.
</event>
<event>
 7    1  0.7755875E-012  0.5930195E+02  0.7816164E-02  0.1266605E+00
        -11   -1    0    0    0    0  0.00000000000E+00  0.00000000000E+00  0.45593999997E+02  0.45594000000E+02  0.51100000000E-03 0.  1.
         11   -1    0    0    0    0 -0.00000000000E+00 -0.00000000000E+00 -0.45593999997E+02  0.45594000000E+02  0.51100000000E-03 0. -1.
    9900012    2    1    2    0    0 -0.13347022877E+02  0.21245197502E+02  0.19677870319E+02  0.59301952630E+02  0.50000015688E+02 0.  0.
         12    1    1    2    0    0  0.13347022877E+02 -0.21245197502E+02 -0.19677870319E+02  0.31886047370E+02  0.00000000000E+00 0. -1.
         11    1    3    3    0    0 -0.18391032155E+02  0.76132067872E+01  0.27536338440E+01  0.20094115579E+02  0.51100000000E-03 0. -1.
        -11    1    3    3    0    0  0.99316251669E+01  0.21698300292E+02  0.17749114636E+02  0.29740283869E+02  0.51100000000E-03 0.  1.
        -12    1    3    3    0    0 -0.48876158890E+01 -0.80663095767E+01 -0.82487816070E+00  0.94675531816E+01  0.00000000000E+00 0.  1.
</event>
<event>
 7    1  0.7755875E-012  0.5930194E+02  0.7816164E-02  0.1266605E+00
        -11   -1    0    0    0    0  0.00000000000E+00  0.00000000000E+00  0.45593999997E+02  0.45594000000E+02  0.51100000000E-03 0.  1.
         11   -1    0    0    0    0 -0.00000000000E+00 -0.00000000000E+00 -0.45593999997E+02  0.45594000000E+02  0.51100000000E-03 0. -1.
    9900012    2    1    2    0    0 -0.25582316906E+02 -0.15587052838E+02 -0.10922902629E+02  0.59301937899E+02  0.49999988822E+02 0.  0.
         12    1    1    2    0    0  0.25582316906E+02  0.15587052838E+02  0.10922902629E+02  0.31886062101E+02  0.00000000000E+00 0. -1.
         11    1    3    3    0    0  0.37541690116E+01 -0.16337455752E+02 -0.91590065868E+01  0.19102189596E+02  0.51100000000E-03 0. -1.
        -11    1    3    3    0    0 -0.19989291788E+02 -0.20381033914E+01  0.11944541069E+02  0.23375151620E+02  0.51100000000E-03 0.  1.
         12    1    3    3    0    0 -0.93471941299E+01  0.27885063055E+01 -0.13708437112E+02  0.16824596683E+02  0.00000000000E+00 0. -1.
</event>
<event>
 7    1  0.7755875E-012  0.5930195E+02  0.7816164E-02  0.1266605E+00
        -11   -1    0    0    0    0  0.00000000000E+00  0.00000000000E+00  0.45593999997E+02  0.45594000000E+02  0.51100000000E-03 0. -1.
         11   -1    0    0    0    0 -0.00000000000E+00 -0.00000000000E+00 -0.45593999997E+02  0.45594000000E+02  0.51100000000E-03 0.  1.
    9900012    2    1    2    0    0  0.20924699083E+01 -0.49720489576E+01 -0.31426431589E+02  0.59301948134E+02  0.50000007490E+02 0.  0.
         12    1    1    2    0    0 -0.20924699083E+01  0.49720489576E+01  0.31426431589E+02  0.31886051866E+02  0.00000000000E+00 0. -1.
         11    1    3    3    0    0 -0.13966450580E+02 -0.18638150855E+02 -0.40828773993E+01  0.23645555549E+02  0.51100000000E-03 0. -1.
        -11    1    3    3    0    0  0.13875143445E+02  0.64871532848E+01 -0.19580469608E+02  0.24859556586E+02  0.51100000000E-03 0.  1.
         12    1    3    3    0    0  0.21837770434E+01  0.71789486130E+01 -0.77630845818E+01  0.10796835999E+02  0.00000000000E+00 0. -1.
</event>
<event>
 7    1  0.7755875E-012  0.5930195E+02  0.7816164E-02  0.1266605E+00
        -11   -1    0    0    0    0  0.00000000000E+00  0.00000000000E+00  0.45593999997E+02  0.45594000000E+02  0.51100000000E-03 0.  1.
         11   -1    0    0    0    0 -0.00000000000E+00 -0.00000000000E+00 -0.45593999997E+02  0.45594000000E+02  0.51100000000E-03 0. -1.
    9900012    2    1    2    0    0  0.26418947537E+01 -0.11098162546E+02  0.29775352227E+02  0.59301946308E+02  0.50000004159E+02 0.  0.
         12    1    1    2    0    0 -0.26418947537E+01  0.11098162546E+02 -0.29775352227E+02  0.31886053692E+02  0.00000000000E+00 0. -1.
         11    1    3    3    0    0 -0.13284132309E+02  0.48392018286E+01  0.12512784131E+01  0.14193369701E+02  0.51100000000E-03 0. -1.
        -11    1    3    3    0    0 -0.30074776181E+01 -0.14302043594E+02  0.18644672400E+02  0.23690022832E+02  0.51100000000E-03 0.  1.
        -12    1    3    3    0    0  0.18933504681E+02 -0.16353207804E+01  0.98794014141E+01  0.21418553776E+02  0.00000000000E+00 0.  1.
</event>
<event>
 7    1  0.7755875E-012  0.5930187E+02  0.7816164E-02  0.1266605E+00
        -11   -1    0    0    0    0  0.00000000000E+00  0.00000000000E+00  0.45593999997E+02  0.45594000000E+02  0.51100000000E-03 0.  1.
         11   -1    0    0    0    0 -0.00000000000E+00 -0.00000000000E+00 -0.45593999997E+02  0.45594000000E+02  0.51100000000E-03 0. -1.
    9900012    2    1    2    0    0 -0.30376654184E+02 -0.66673911592E+01  0.70377654282E+01  0.59301868743E+02  0.49999862699E+02 0.  0.
         12    1    1    2    0    0  0.30376654184E+02  0.66673911592E+01 -0.70377654282E+01  0.31886131257E+02  0.00000000000E+00 0. -1.
         11    1    3    3    0    0 -0.28683292505E+02 -0.86866411579E+01  0.15063335710E+02  0.33542407286E+02  0.51100000000E-03 0. -1.
        -11    1    3    3    0    0  0.21939686692E+01  0.10964024265E+02  0.24499496588E+01  0.11446640564E+02  0.51100000000E-03 0.  1.
         12    1    3    3    0    0 -0.38873303483E+01 -0.89447742663E+01 -0.10475519941E+02  0.14312820894E+02  0.00000000000E+00 0. -1.
</event>
<event>
 7    1  0.7755875E-012  0.5930193E+02  0.7816164E-02  0.1266605E+00
        -11   -1    0    0    0    0  0.00000000000E+00  0.00000000000E+00  0.45593999997E+02  0.45594000000E+02  0.51100000000E-03 0.  1.
         11   -1    0    0    0    0 -0.00000000000E+00 -0.00000000000E+00 -0.45593999997E+02  0.45594000000E+02  0.51100000000E-03 0. -1.
    9900012    2    1    2    0    0 -0.14809945913E+02 -0.14939909073E+02  0.23962176380E+02  0.59301932856E+02  0.49999979626E+02 0.  0.
         12    1    1    2    0    0  0.14809945913E+02  0.14939909073E+02 -0.23962176380E+02  0.31886067144E+02  0.00000000000E+00 0. -1.
         11    1    3    3    0    0  0.56234846157E+01  0.47626875942E+01  0.10704997428E+00  0.73700903862E+01  0.51100000000E-03 0. -1.
        -11    1    3    3    0    0 -0.10696796448E+02 -0.26159188383E+02  0.35206266102E+01  0.28480158059E+02  0.51100000000E-03 0.  1.
        -12    1    3    3    0    0 -0.97366340799E+01  0.64565917152E+01  0.20334499795E+02  0.23451684411E+02  0.00000000000E+00 0.  1.
</event>
<event>
 7    1  0.7755875E-012  0.5930196E+02  0.7816164E-02  0.1266605E+00
        -11   -1    0    0    0    0  0.00000000000E+00  0.00000000000E+00  0.45593999997E+02  0.45594000000E+02  0.51100000000E-03 0.  1.
         11   -1    0    0    0    0 -0.00000000000E+00 -0.00000000000E+00 -0.45593999997E+02  0.45594000000E+02  0.51100000000E-03 0. -1.
    9900012    2    1    2    0    0  0.60642495312E+01  0.31244639275E+02  0.19279163180E+01  0.59301961250E+02  0.50000031410E+02 0.  0.
         12    1    1    2    0    0 -0.60642495312E+01 -0.31244639275E+02 -0.19279163180E+01  0.31886038750E+02  0.00000000000E+00 0. -1.
         11    1    3    3    0    0 -0.88703861914E+01  0.17526157446E+02  0.10000637742E+02  0.22042293472E+02  0.51100000000E-03 0.  1.
        -11    1    3    3    0    0  0.15621264564E+02  0.21238290459E+02 -0.11745756228E+02  0.28862634631E+02  0.51100000000E-03 0. -1.
        -12    1    3    3    0    0 -0.68662884159E+00 -0.75198086301E+01  0.36730348043E+01  0.83970331471E+01  0.00000000000E+00 0.  1.
</event>
<event>
 7    1  0.7755875E-012  0.5930191E+02  0.7816164E-02  0.1266605E+00
        -11   -1    0    0    0    0  0.00000000000E+00  0.00000000000E+00  0.45593999997E+02  0.45594000000E+02  0.51100000000E-03 0. -1.
         11   -1    0    0    0    0 -0.00000000000E+00 -0.00000000000E+00 -0.45593999997E+02  0.45594000000E+02  0.51100000000E-03 0.  1.
    9900012    2    1    2    0    0  0.24974255131E+02 -0.65291457971E+01 -0.18718421230E+02  0.59301914359E+02  0.49999945891E+02 0.  0.
         12    1    1    2    0    0 -0.24974255131E+02  0.65291457971E+01  0.18718421230E+02  0.31886085641E+02  0.00000000000E+00 0. -1.
         11    1    3    3    0    0  0.24537656939E+02 -0.74217335150E+01  0.30407127829E+00  0.25637300873E+02  0.51100000000E-03 0.  1.
        -11    1    3    3    0    0 -0.10035147332E+02 -0.82727173251E+01 -0.13347067116E+02  0.18635617370E+02  0.51100000000E-03 0. -1.
        -12    1    3    3    0    0  0.10471745524E+02  0.91653050429E+01 -0.56754253932E+01  0.15028996115E+02  0.00000000000E+00 0.  1.
</event>
<event>
 7    1  0.7755875E-012  0.5930184E+02  0.7816164E-02  0.1266605E+00
        -11   -1    0    0    0    0  0.00000000000E+00  0.00000000000E+00  0.45593999997E+02  0.45594000000E+02  0.51100000000E-03 0.  1.
         11   -1    0    0    0    0 -0.00000000000E+00 -0.00000000000E+00 -0.45593999997E+02  0.45594000000E+02  0.51100000000E-03 0. -1.
    9900012    2    1    2    0    0  0.23151246330E+02  0.21334349795E+02 -0.50589307805E+01  0.59301835783E+02  0.49999802587E+02 0.  0.
         12    1    1    2    0    0 -0.23151246330E+02 -0.21334349795E+02  0.50589307805E+01  0.31886164217E+02  0.00000000000E+00 0. -1.
         11    1    3    3    0    0  0.91824011375E+01  0.12319840462E+02 -0.21157156305E+01  0.15510358234E+02  0.51100000000E-03 0. -1.
        -11    1    3    3    0    0  0.49628203795E+00 -0.15486243721E+02 -0.32397375454E+01  0.15829274780E+02  0.51100000000E-03 0.  1.
        -12    1    3    3    0    0  0.13472563155E+02  0.24500753054E+02  0.29652239529E+00  0.27962202769E+02  0.00000000000E+00 0.  1.
</event>
<event>
 7    1  0.7755875E-012  0.5930162E+02  0.7816164E-02  0.1266606E+00
        -11   -1    0    0    0    0  0.00000000000E+00  0.00000000000E+00  0.45593999997E+02  0.45594000000E+02  0.51100000000E-03 0. -1.
         11   -1    0    0    0    0 -0.00000000000E+00 -0.00000000000E+00 -0.45593999997E+02  0.45594000000E+02  0.51100000000E-03 0.  1.
    9900012    2    1    2    0    0 -0.58978979973E+01  0.25162448847E+02 -0.18676372543E+02  0.59301624788E+02  0.49999417781E+02 0.  0.
         12    1    1    2    0    0  0.58978979973E+01 -0.25162448847E+02  0.18676372543E+02  0.31886375212E+02  0.00000000000E+00 0. -1.
         11    1    3    3    0    0 -0.11576790624E+01 -0.71433314152E+01  0.51416000257E+01  0.88771310458E+01  0.51100000000E-03 0. -1.
        -11    1    3    3    0    0 -0.77377645312E+01  0.24828295341E+02 -0.30411191355E+02  0.40014470000E+02  0.51100000000E-03 0.  1.
        -12    1    3    3    0    0  0.29975455963E+01  0.74774849217E+01  0.65932187866E+01  0.10410023743E+02  0.00000000000E+00 0.  1.
</event>
<event>
 7    1  0.7755875E-012  0.5930191E+02  0.7816164E-02  0.1266605E+00
        -11   -1    0    0    0    0  0.00000000000E+00  0.00000000000E+00  0.45593999997E+02  0.45594000000E+02  0.51100000000E-03 0.  1.
         11   -1    0    0    0    0 -0.00000000000E+00 -0.00000000000E+00 -0.45593999997E+02  0.45594000000E+02  0.51100000000E-03 0. -1.
    9900012    2    1    2    0    0 -0.35033560175E+00 -0.10375589269E+02  0.30148750345E+02  0.59301910007E+02  0.49999937954E+02 0.  0.
         12    1    1    2    0    0  0.35033560175E+00  0.10375589269E+02 -0.30148750345E+02  0.31886089993E+02  0.00000000000E+00 0. -1.
         11    1    3    3    0    0 -0.16510054505E+02 -0.37119451848E+01 -0.25219532853E+00  0.16924066875E+02  0.51100000000E-03 0. -1.
        -11    1    3    3    0    0  0.10190483713E+02 -0.15660843694E+02  0.20347246718E+02  0.27624598328E+02  0.51100000000E-03 0.  1.
         12    1    3    3    0    0  0.59692351904E+01  0.89971996100E+01  0.10053698956E+02  0.14753244805E+02  0.00000000000E+00 0. -1.
</event>
<event>
 7    1  0.7755875E-012  0.5930193E+02  0.7816164E-02  0.1266605E+00
        -11   -1    0    0    0    0  0.00000000000E+00  0.00000000000E+00  0.45593999997E+02  0.45594000000E+02  0.51100000000E-03 0. -1.
         11   -1    0    0    0    0 -0.00000000000E+00 -0.00000000000E+00 -0.45593999997E+02  0.45594000000E+02  0.51100000000E-03 0.  1.
    9900012    2    1    2    0    0  0.26380251802E+02  0.17104298678E+02 -0.53147426135E+01  0.59301933961E+02  0.49999981641E+02 0.  0.
         12    1    1    2    0    0 -0.26380251802E+02 -0.17104298678E+02  0.53147426135E+01  0.31886066039E+02  0.00000000000E+00 0. -1.
         11    1    3    3    0    0 -0.28970691558E+00 -0.41224814624E+01  0.51061696139E+01  0.65689993067E+01  0.51100000000E-03 0. -1.
        -11    1    3    3    0    0  0.28549618967E+02  0.17055539258E+01 -0.15422421585E+02  0.32493703162E+02  0.51100000000E-03 0.  1.
        -12    1    3    3    0    0 -0.18796602499E+01  0.19521226214E+02  0.50015093577E+01  0.20239231493E+02  0.00000000000E+00 0.  1.
</event>
<event>
 7    1  0.7755875E-012  0.5930200E+02  0.7816164E-02  0.1266605E+00
        -11   -1    0    0    0    0  0.00000000000E+00  0.00000000000E+00  0.45593999997E+02  0.45594000000E+02  0.51100000000E-03 0.  1.
         11   -1    0    0    0    0 -0.00000000000E+00 -0.00000000000E+00 -0.45593999997E+02  0.45594000000E+02  0.51100000000E-03 0. -1.
    9900012    2    1    2    0    0  0.26297174750E+02  0.11401994139E+02 -0.13970325277E+02  0.59302002155E+02  0.50000106011E+02 0.  0.
         12    1    1    2    0    0 -0.26297174750E+02 -0.11401994139E+02  0.13970325277E+02  0.31885997845E+02  0.00000000000E+00 0. -1.
         11    1    3    3    0    0  0.20835611645E+02 -0.15217444078E+02 -0.27585989227E+01  0.25948086349E+02  0.51100000000E-03 0.  1.
        -11    1    3    3    0    0  0.97640525785E+01  0.24603691991E+02 -0.10786372669E+02  0.28583635492E+02  0.51100000000E-03 0. -1.
        -12    1    3    3    0    0 -0.43024894735E+01  0.20157462258E+01 -0.42535368578E+00  0.47702803141E+01  0.00000000000E+00 0.  1.
</event>
<event>
 7    1  0.7755875E-012  0.5930202E+02  0.7816164E-02  0.1266604E+00
        -11   -1    0    0    0    0  0.00000000000E+00  0.00000000000E+00  0.45593999997E+02  0.45594000000E+02  0.51100000000E-03 0.  1.
         11   -1    0    0    0    0 -0.00000000000E+00 -0.00000000000E+00 -0.45593999997E+02  0.45594000000E+02  0.51100000000E-03 0. -1.
    9900012    2    1    2    0    0 -0.30398300403E+02  0.83565562115E+01 -0.47777630281E+01  0.59302020030E+02  0.50000138609E+02 0.  0.
         12    1    1    2    0    0  0.30398300403E+02 -0.83565562115E+01  0.47777630281E+01  0.31885979970E+02  0.00000000000E+00 0. -1.
         11    1    3    3    0    0 -0.53321081820E+01  0.15202883093E+02 -0.93363038423E+01  0.18620569317E+02  0.51100000000E-03 0. -1.
        -11    1    3    3    0    0 -0.21124816147E+02 -0.14425268308E+02 -0.68004723287E+01  0.26468710720E+02  0.51100000000E-03 0.  1.
        -12    1    3    3    0    0 -0.39413760737E+01  0.75789414267E+01  0.11359013143E+02  0.14212739992E+02  0.00000000000E+00 0.  1.
</event>
<event>
 7    1  0.7755875E-012  0.5930205E+02  0.7816164E-02  0.1266604E+00
        -11   -1    0    0    0    0  0.00000000000E+00  0.00000000000E+00  0.45593999997E+02  0.45594000000E+02  0.51100000000E-03 0. -1.
         11   -1    0    0    0    0 -0.00000000000E+00 -0.00000000000E+00 -0.45593999997E+02  0.45594000000E+02  0.51100000000E-03 0.  1.
    9900012    2    1    2    0    0  0.18212183051E+02  0.87922253383E+01 -0.24652118030E+02  0.59302050724E+02  0.50000194588E+02 0.  0.
         12    1    1    2    0    0 -0.18212183051E+02 -0.87922253383E+01  0.24652118030E+02  0.31885949276E+02  0.00000000000E+00 0. -1.
         11    1    3    3    0    0  0.16750243833E+02  0.21220124580E+02  0.30924217682E+01  0.27210796172E+02  0.51100000000E-03 0. -1.
        -11    1    3    3    0    0  0.77501752571E-01 -0.20591947621E+01 -0.16894680976E+02  0.17019886461E+02  0.51100000000E-03 0.  1.
         12    1    3    3    0    0  0.13844374651E+01 -0.10368704479E+02 -0.10849858822E+02  0.15071368091E+02  0.00000000000E+00 0. -1.
</event>
<event>
 7    1  0.7755875E-012  0.5930171E+02  0.7816164E-02  0.1266606E+00
        -11   -1    0    0    0    0  0.00000000000E+00  0.00000000000E+00  0.45593999997E+02  0.45594000000E+02  0.51100000000E-03 0. -1.
         11   -1    0    0    0    0 -0.00000000000E+00 -0.00000000000E+00 -0.45593999997E+02  0.45594000000E+02  0.51100000000E-03 0.  1.
    9900012    2    1    2    0    0 -0.26828105993E+02 -0.17197126501E+02  0.11168474092E+01  0.59301705465E+02  0.49999564917E+02 0.  0.
         12    1    1    2    0    0  0.26828105993E+02  0.17197126501E+02 -0.11168474092E+01  0.31886294535E+02  0.00000000000E+00 0. -1.
         11    1    3    3    0    0  0.12541719066E+02 -0.48711572164E+01 -0.60666967623E+00  0.13468145311E+02  0.51100000000E-03 0. -1.
        -11    1    3    3    0    0 -0.21915266610E+02 -0.34366828505E+00 -0.68921185187E+01  0.22976037874E+02  0.51100000000E-03 0.  1.
         12    1    3    3    0    0 -0.17454558449E+02 -0.11982300999E+02  0.86156356042E+01  0.22857522280E+02  0.00000000000E+00 0. -1.
</event>
<event>
 7    1  0.7755875E-012  0.5930192E+02  0.7816164E-02  0.1266605E+00
        -11   -1    0    0    0    0  0.00000000000E+00  0.00000000000E+00  0.45593999997E+02  0.45594000000E+02  0.51100000000E-03 0. -1.
         11   -1    0    0    0    0 -0.00000000000E+00 -0.00000000000E+00 -0.45593999997E+02  0.45594000000E+02  0.51100000000E-03 0.  1.
    9900012    2    1    2    0    0  0.29920247984E-01  0.81834892832E+01 -0.30818037639E+02  0.59301924105E+02  0.49999963666E+02 0.  0.
         12    1    1    2    0    0 -0.29920247984E-01 -0.81834892832E+01  0.30818037639E+02  0.31886075895E+02  0.00000000000E+00 0. -1.
         11    1    3    3    0    0 -0.72362865411E+01  0.83804374338E+01  0.23297031995E+00  0.11074739271E+02  0.51100000000E-03 0. -1.
        -11    1    3    3    0    0  0.11082482115E+02  0.68664040692E+01 -0.36343613267E+02  0.38611230753E+02  0.51100000000E-03 0.  1.
        -12    1    3    3    0    0 -0.38162753257E+01 -0.70633522198E+01  0.52926053085E+01  0.96159540813E+01  0.00000000000E+00 0.  1.
</event>
<event>
 7    1  0.7755875E-012  0.5930190E+02  0.7816164E-02  0.1266605E+00
        -11   -1    0    0    0    0  0.00000000000E+00  0.00000000000E+00  0.45593999997E+02  0.45594000000E+02  0.51100000000E-03 0.  1.
         11   -1    0    0    0    0 -0.00000000000E+00 -0.00000000000E+00 -0.45593999997E+02  0.45594000000E+02  0.51100000000E-03 0. -1.
    9900012    2    1    2    0    0  0.30893282011E+02 -0.78323994969E+01 -0.99107742388E+00  0.59301896605E+02  0.49999913512E+02 0.  0.
         12    1    1    2    0    0 -0.30893282011E+02  0.78323994969E+01  0.99107742388E+00  0.31886103395E+02  0.00000000000E+00 0. -1.
         11    1    3    3    0    0  0.11928685995E+02  0.11897902071E+02 -0.16479016141E+02  0.23567172009E+02  0.51100000000E-03 0. -1.
        -11    1    3    3    0    0  0.16110085844E+02 -0.48803299646E+01  0.10366893398E+02  0.19769293499E+02  0.51100000000E-03 0.  1.
         12    1    3    3    0    0  0.28545101724E+01 -0.14849971604E+02  0.51210453186E+01  0.15965431097E+02  0.00000000000E+00 0. -1.
</event>
<event>
 7    1  0.7755875E-012  0.5930195E+02  0.7816164E-02  0.1266605E+00
        -11   -1    0    0    0    0  0.00000000000E+00  0.00000000000E+00  0.45593999997E+02  0.45594000000E+02  0.51100000000E-03 0.  1.
         11   -1    0    0    0    0 -0.00000000000E+00 -0.00000000000E+00 -0.45593999997E+02  0.45594000000E+02  0.51100000000E-03 0. -1.
    9900012    2    1    2    0    0 -0.29919347658E+02 -0.96513369619E+01  0.53296180563E+01  0.59301945085E+02  0.50000001928E+02 0.  0.
         12    1    1    2    0    0  0.29919347658E+02  0.96513369619E+01 -0.53296180563E+01  0.31886054915E+02  0.00000000000E+00 0. -1.
         11    1    3    3    0    0 -0.34030108762E+02  0.11994788903E+02  0.38645135325E+01  0.36288534391E+02  0.51100000000E-03 0. -1.
        -11    1    3    3    0    0  0.52351297012E+01 -0.11579305468E+02 -0.39846305010E+00  0.12713995091E+02  0.51100000000E-03 0.  1.
         12    1    3    3    0    0 -0.11243685978E+01 -0.10066820397E+02  0.18635675739E+01  0.10299415603E+02  0.00000000000E+00 0. -1.
</event>
<event>
 7    1  0.7755875E-012  0.5930194E+02  0.7816164E-02  0.1266605E+00
        -11   -1    0    0    0    0  0.00000000000E+00  0.00000000000E+00  0.45593999997E+02  0.45594000000E+02  0.51100000000E-03 0.  1.
         11   -1    0    0    0    0 -0.00000000000E+00 -0.00000000000E+00 -0.45593999997E+02  0.45594000000E+02  0.51100000000E-03 0. -1.
    9900012    2    1    2    0    0  0.83773012621E+01  0.17985061015E+02  0.24961558115E+02  0.59301937532E+02  0.49999988154E+02 0.  0.
         12    1    1    2    0    0 -0.83773012621E+01 -0.17985061015E+02 -0.24961558115E+02  0.31886062468E+02  0.00000000000E+00 0. -1.
         11    1    3    3    0    0  0.10986939814E+02  0.23026657078E+02  0.52960805397E+01  0.26057403017E+02  0.51100000000E-03 0. -1.
        -11    1    3    3    0    0 -0.90664780407E+01  0.20602706730E+01 -0.20335765675E+01  0.95174142090E+01  0.51100000000E-03 0.  1.
         12    1    3    3    0    0  0.64568394890E+01 -0.71018667359E+01  0.21699054143E+02  0.23727120306E+02  0.00000000000E+00 0. -1.
</event>
<event>
 7    1  0.7755875E-012  0.5930197E+02  0.7816164E-02  0.1266605E+00
        -11   -1    0    0    0    0  0.00000000000E+00  0.00000000000E+00  0.45593999997E+02  0.45594000000E+02  0.51100000000E-03 0.  1.
         11   -1    0    0    0    0 -0.00000000000E+00 -0.00000000000E+00 -0.45593999997E+02  0.45594000000E+02  0.51100000000E-03 0. -1.
    9900012    2    1    2    0    0 -0.13403434784E+02  0.24425190230E+02  0.15507310945E+02  0.59301973679E+02  0.50000054077E+02 0.  0.
         12    1    1    2    0    0  0.13403434784E+02 -0.24425190230E+02 -0.15507310945E+02  0.31886026321E+02  0.00000000000E+00 0. -1.
         11    1    3    3    0    0  0.39251992559E+01  0.21428393937E+02 -0.99417811647E+01  0.23946237051E+02  0.51100000000E-03 0. -1.
        -11    1    3    3    0    0 -0.16487959558E+01  0.46044200337E+01  0.16544686265E+02  0.17252415942E+02  0.51100000000E-03 0.  1.
         12    1    3    3    0    0 -0.15679838084E+02 -0.16076237404E+01  0.89044058447E+01  0.18103320686E+02  0.00000000000E+00 0. -1.
</event>
<event>
 7    1  0.7755875E-012  0.5930196E+02  0.7816164E-02  0.1266605E+00
        -11   -1    0    0    0    0  0.00000000000E+00  0.00000000000E+00  0.45593999997E+02  0.45594000000E+02  0.51100000000E-03 0.  1.
         11   -1    0    0    0    0 -0.00000000000E+00 -0.00000000000E+00 -0.45593999997E+02  0.45594000000E+02  0.51100000000E-03 0. -1.
    9900012    2    1    2    0    0  0.44730220945E+01 -0.70748214936E+01  0.30767811925E+02  0.59301964240E+02  0.50000036862E+02 0.  0.
         12    1    1    2    0    0 -0.44730220945E+01  0.70748214936E+01 -0.30767811925E+02  0.31886035760E+02  0.00000000000E+00 0. -1.
         11    1    3    3    0    0 -0.82822075839E+00  0.17494723585E+02  0.64425374752E+01  0.18661661028E+02  0.51100000000E-03 0. -1.
        -11    1    3    3    0    0 -0.51972119166E+01 -0.91555261310E+01  0.18172764859E+02  0.21002001174E+02  0.51100000000E-03 0.  1.
         12    1    3    3    0    0  0.10498454769E+02 -0.15414018947E+02  0.61525095910E+01  0.19638302038E+02  0.00000000000E+00 0. -1.
</event>
<event>
 7    1  0.7755875E-012  0.5930198E+02  0.7816164E-02  0.1266605E+00
        -11   -1    0    0    0    0  0.00000000000E+00  0.00000000000E+00  0.45593999997E+02  0.45594000000E+02  0.51100000000E-03 0. -1.
         11   -1    0    0    0    0 -0.00000000000E+00 -0.00000000000E+00 -0.45593999997E+02  0.45594000000E+02  0.51100000000E-03 0.  1.
    9900012    2    1    2    0    0 -0.25398703374E+02 -0.14824973781E+02 -0.12322502749E+02  0.59301983399E+02  0.50000071804E+02 0.  0.
         12    1    1    2    0    0  0.25398703374E+02  0.14824973781E+02  0.12322502749E+02  0.31886016601E+02  0.00000000000E+00 0. -1.
         11    1    3    3    0    0 -0.18844266416E+02 -0.92604410481E+01  0.10623182941E+02  0.23531131746E+02  0.51100000000E-03 0. -1.
        -11    1    3    3    0    0 -0.15195168461E+02 -0.24449026838E+01 -0.21545830371E+02  0.26478170260E+02  0.51100000000E-03 0.  1.
         12    1    3    3    0    0  0.86407315038E+01 -0.31196300489E+01 -0.13998553189E+01  0.92926813933E+01  0.00000000000E+00 0. -1.
</event>
<event>
 7    1  0.7755875E-012  0.5930220E+02  0.7816164E-02  0.1266604E+00
        -11   -1    0    0    0    0  0.00000000000E+00  0.00000000000E+00  0.45593999997E+02  0.45594000000E+02  0.51100000000E-03 0.  1.
         11   -1    0    0    0    0 -0.00000000000E+00 -0.00000000000E+00 -0.45593999997E+02  0.45594000000E+02  0.51100000000E-03 0. -1.
    9900012    2    1    2    0    0  0.23203231538E+01  0.27479601500E+02 -0.16005984481E+02  0.59302204772E+02  0.50000475532E+02 0.  0.
         12    1    1    2    0    0 -0.23203231538E+01 -0.27479601500E+02  0.16005984481E+02  0.31885795228E+02  0.00000000000E+00 0. -1.
         11    1    3    3    0    0 -0.90972165281E+01  0.17689824445E+01  0.11819057619E+02  0.15019279966E+02  0.51100000000E-03 0.  1.
        -11    1    3    3    0    0  0.79296542820E+01  0.27666717337E+01 -0.47267304399E+00  0.84117364189E+01  0.51100000000E-03 0. -1.
         12    1    3    3    0    0  0.34878853999E+01  0.22943947322E+02 -0.27352369056E+02  0.35871188386E+02  0.00000000000E+00 0. -1.
</event>
<event>
 7    1  0.7755875E-012  0.5930195E+02  0.7816164E-02  0.1266605E+00
        -11   -1    0    0    0    0  0.00000000000E+00  0.00000000000E+00  0.45593999997E+02  0.45594000000E+02  0.51100000000E-03 0.  1.
         11   -1    0    0    0    0 -0.00000000000E+00 -0.00000000000E+00 -0.45593999997E+02  0.45594000000E+02  0.51100000000E-03 0. -1.
    9900012    2    1    2    0    0 -0.76759312450E+01  0.27719473060E+02  0.13763396514E+02  0.59301949903E+02  0.50000010715E+02 0.  0.
         12    1    1    2    0    0  0.76759312450E+01 -0.27719473060E+02 -0.13763396514E+02  0.31886050097E+02  0.00000000000E+00 0. -1.
         11    1    3    3    0    0 -0.23707455653E+02  0.64246992247E+01 -0.68698699041E+01  0.25505201948E+02  0.51100000000E-03 0. -1.
        -11    1    3    3    0    0  0.12944687337E+02  0.18093279805E+02  0.18089648279E+02  0.28673456009E+02  0.51100000000E-03 0.  1.
         12    1    3    3    0    0  0.30868370708E+01  0.32014940298E+01  0.25436181396E+01  0.51232919461E+01  0.00000000000E+00 0. -1.
</event>
<event>
 7    1  0.7755875E-012  0.5930196E+02  0.7816164E-02  0.1266605E+00
        -11   -1    0    0    0    0  0.00000000000E+00  0.00000000000E+00  0.45593999997E+02  0.45594000000E+02  0.51100000000E-03 0.  1.
         11   -1    0    0    0    0 -0.00000000000E+00 -0.00000000000E+00 -0.45593999997E+02  0.45594000000E+02  0.51100000000E-03 0. -1.
    9900012    2    1    2    0    0  0.26845715261E+02 -0.15284499333E+02  0.79000593926E+01  0.59301964088E+02  0.50000036585E+02 0.  0.
         12    1    1    2    0    0 -0.26845715261E+02  0.15284499333E+02 -0.79000593926E+01  0.31886035912E+02  0.00000000000E+00 0. -1.
         11    1    3    3    0    0  0.31053762283E+00 -0.72116167107E+01 -0.79257766258E+01  0.10720157862E+02  0.51100000000E-03 0. -1.
        -11    1    3    3    0    0  0.23114195256E+02  0.10848095867E+02  0.14369515571E+02  0.29298979237E+02  0.51100000000E-03 0.  1.
         12    1    3    3    0    0  0.34209823819E+01 -0.18920978490E+02  0.14563204471E+01  0.19282826990E+02  0.00000000000E+00 0. -1.
</event>
<event>
 7    1  0.7755875E-012  0.5930185E+02  0.7816164E-02  0.1266605E+00
        -11   -1    0    0    0    0  0.00000000000E+00  0.00000000000E+00  0.45593999997E+02  0.45594000000E+02  0.51100000000E-03 0. -1.
         11   -1    0    0    0    0 -0.00000000000E+00 -0.00000000000E+00 -0.45593999997E+02  0.45594000000E+02  0.51100000000E-03 0.  1.
    9900012    2    1    2    0    0  0.25469847194E+02  0.42915531718E+01 -0.18697488361E+02  0.59301849155E+02  0.49999826975E+02 0.  0.
         12    1    1    2    0    0 -0.25469847194E+02 -0.42915531718E+01  0.18697488361E+02  0.31886150845E+02  0.00000000000E+00 0. -1.
         11    1    3    3    0    0  0.81650777205E+01 -0.14636980107E+01 -0.13461877909E+02  0.15812433815E+02  0.51100000000E-03 0. -1.
        -11    1    3    3    0    0  0.23972389614E+02 -0.19014354252E+01  0.92794069170E+01  0.25775925075E+02  0.51100000000E-03 0.  1.
        -12    1    3    3    0    0 -0.66676201408E+01  0.76566866077E+01 -0.14515017369E+02  0.17713490265E+02  0.00000000000E+00 0.  1.
</event>
<event>
 7    1  0.7755875E-012  0.5930195E+02  0.7816164E-02  0.1266605E+00
        -11   -1    0    0    0    0  0.00000000000E+00  0.00000000000E+00  0.45593999997E+02  0.45594000000E+02  0.51100000000E-03 0.  1.
         11   -1    0    0    0    0 -0.00000000000E+00 -0.00000000000E+00 -0.45593999997E+02  0.45594000000E+02  0.51100000000E-03 0. -1.
    9900012    2    1    2    0    0  0.10219074398E+02  0.27178632997E+02 -0.13176215407E+02  0.59301949358E+02  0.50000009721E+02 0.  0.
         12    1    1    2    0    0 -0.10219074398E+02 -0.27178632997E+02  0.13176215407E+02  0.31886050642E+02  0.00000000000E+00 0. -1.
         11    1    3    3    0    0  0.28776254698E+01  0.91495325178E+01  0.16031932604E+02  0.18682011052E+02  0.51100000000E-03 0.  1.
        -11    1    3    3    0    0 -0.50717294967E+01  0.95091520823E+01 -0.20672081713E+02  0.23312687019E+02  0.51100000000E-03 0. -1.
         12    1    3    3    0    0  0.12413178425E+02  0.85199483964E+01 -0.85360662981E+01  0.17307251287E+02  0.00000000000E+00 0. -1.
</event>
<event>
 7    1  0.7755875E-012  0.5930234E+02  0.7816164E-02  0.1266603E+00
        -11   -1    0    0    0    0  0.00000000000E+00  0.00000000000E+00  0.45593999997E+02  0.45594000000E+02  0.51100000000E-03 0.  1.
         11   -1    0    0    0    0 -0.00000000000E+00 -0.00000000000E+00 -0.45593999997E+02  0.45594000000E+02  0.51100000000E-03 0. -1.
    9900012    2    1    2    0    0 -0.11478931283E+02 -0.11982116641E+02  0.27227897373E+02  0.59302338991E+02  0.50000720314E+02 0.  0.
         12    1    1    2    0    0  0.11478931283E+02  0.11982116641E+02 -0.27227897373E+02  0.31885661009E+02  0.00000000000E+00 0. -1.
         11    1    3    3    0    0  0.16205183879E+02 -0.63444153086E+01  0.57497359850E+01  0.18328094672E+02  0.51100000000E-03 0. -1.
        -11    1    3    3    0    0 -0.28033862975E+02 -0.41349507005E+01  0.24578432097E+02  0.37511259846E+02  0.51100000000E-03 0.  1.
         12    1    3    3    0    0  0.34974781302E+00 -0.15027506320E+01 -0.31002707090E+01  0.34629844735E+01  0.00000000000E+00 0. -1.
</event>
<event>
 7    1  0.7755875E-012  0.5930190E+02  0.7816164E-02  0.1266605E+00
        -11   -1    0    0    0    0  0.00000000000E+00  0.00000000000E+00  0.45593999997E+02  0.45594000000E+02  0.51100000000E-03 0. -1.
         11   -1    0    0    0    0 -0.00000000000E+00 -0.00000000000E+00 -0.45593999997E+02  0.45594000000E+02  0.51100000000E-03 0.  1.
    9900012    2    1    2    0    0  0.16184745682E+02 -0.22957040444E+02 -0.15091435883E+02  0.59301903723E+02  0.49999926495E+02 0.  0.
         12    1    1    2    0    0 -0.16184745682E+02  0.22957040444E+02  0.15091435883E+02  0.31886096277E+02  0.00000000000E+00 0. -1.
         11    1    3    3    0    0  0.17033449382E+02 -0.24583859123E+01 -0.11728530613E+02  0.20826437279E+02  0.51100000000E-03 0. -1.
        -11    1    3    3    0    0 -0.48683350966E+01 -0.27332640328E+02 -0.84920366858E+01  0.29032543830E+02  0.51100000000E-03 0.  1.
        -12    1    3    3    0    0  0.40196313972E+01  0.68339857962E+01  0.51291314155E+01  0.94429226148E+01  0.00000000000E+00 0.  1.
</event>
<event>
 7    1  0.7755875E-012  0.5930193E+02  0.7816164E-02  0.1266605E+00
        -11   -1    0    0    0    0  0.00000000000E+00  0.00000000000E+00  0.45593999997E+02  0.45594000000E+02  0.51100000000E-03 0.  1.
         11   -1    0    0    0    0 -0.00000000000E+00 -0.00000000000E+00 -0.45593999997E+02  0.45594000000E+02  0.51100000000E-03 0. -1.
    9900012    2    1    2    0    0 -0.29839825017E+02 -0.43057394958E+01  0.10381075188E+02  0.59301932953E+02  0.49999979802E+02 0.  0.
         12    1    1    2    0    0  0.29839825017E+02  0.43057394958E+01 -0.10381075188E+02  0.31886067047E+02  0.00000000000E+00 0. -1.
         11    1    3    3    0    0  0.47623217499E+01 -0.84205430336E+01 -0.71759057994E+01  0.12044869353E+02  0.51100000000E-03 0. -1.
        -11    1    3    3    0    0 -0.23088913407E+02 -0.40179986989E+01  0.22334021550E+02  0.32373612012E+02  0.51100000000E-03 0.  1.
         12    1    3    3    0    0 -0.11513233360E+02  0.81328022368E+01 -0.47770405621E+01  0.14883451588E+02  0.00000000000E+00 0. -1.
</event>
<event>
 7    1  0.7755875E-012  0.5930191E+02  0.7816164E-02  0.1266605E+00
        -11   -1    0    0    0    0  0.00000000000E+00  0.00000000000E+00  0.45593999997E+02  0.45594000000E+02  0.51100000000E-03 0.  1.
         11   -1    0    0    0    0 -0.00000000000E+00 -0.00000000000E+00 -0.45593999997E+02  0.45594000000E+02  0.51100000000E-03 0. -1.
    9900012    2    1    2    0    0 -0.24296699376E+01  0.23699272414E+02  0.21193490185E+02  0.59301908437E+02  0.49999935091E+02 0.  0.
         12    1    1    2    0    0  0.24296699376E+01 -0.23699272414E+02 -0.21193490185E+02  0.31886091563E+02  0.00000000000E+00 0. -1.
         11    1    3    3    0    0  0.13144016768E+02 -0.35573918295E+01  0.73344850522E+01  0.15466573139E+02  0.51100000000E-03 0. -1.
        -11    1    3    3    0    0 -0.15906368563E+02  0.28864590844E+02  0.19272287485E+02  0.38178504824E+02  0.51100000000E-03 0.  1.
        -12    1    3    3    0    0  0.33268185674E+00 -0.16079266004E+01 -0.54132823526E+01  0.56568304729E+01  0.00000000000E+00 0.  1.
</event>
<event>
 7    1  0.7755875E-012  0.5930197E+02  0.7816164E-02  0.1266605E+00
        -11   -1    0    0    0    0  0.00000000000E+00  0.00000000000E+00  0.45593999997E+02  0.45594000000E+02  0.51100000000E-03 0.  1.
         11   -1    0    0    0    0 -0.00000000000E+00 -0.00000000000E+00 -0.45593999997E+02  0.45594000000E+02  0.51100000000E-03 0. -1.
    9900012    2    1    2    0    0 -0.62886222551E+01 -0.26111597726E+02  0.17185946885E+02  0.59301967384E+02  0.50000042596E+02 0.  0.
         12    1    1    2    0    0  0.62886222551E+01  0.26111597726E+02 -0.17185946885E+02  0.31886032616E+02  0.00000000000E+00 0. -1.
         11    1    3    3    0    0 -0.31492202186E+01  0.94433776751E+01  0.66971733950E+01  0.11997795699E+02  0.51100000000E-03 0. -1.
        -11    1    3    3    0    0  0.12499793368E+02 -0.13456416885E+02  0.27341878611E+00  0.18368308243E+02  0.51100000000E-03 0.  1.
         12    1    3    3    0    0 -0.15639195404E+02 -0.22098558516E+02  0.10215354704E+02  0.28935863441E+02  0.00000000000E+00 0. -1.
</event>
<event>
 7    1  0.7755875E-012  0.5930192E+02  0.7816164E-02  0.1266605E+00
        -11   -1    0    0    0    0  0.00000000000E+00  0.00000000000E+00  0.45593999997E+02  0.45594000000E+02  0.51100000000E-03 0.  1.
         11   -1    0    0    0    0 -0.00000000000E+00 -0.00000000000E+00 -0.45593999997E+02  0.45594000000E+02  0.51100000000E-03 0. -1.
    9900012    2    1    2    0    0  0.29650815282E+02 -0.94408915484E+01 -0.69584973303E+01  0.59301922079E+02  0.49999959971E+02 0.  0.
         12    1    1    2    0    0 -0.29650815282E+02  0.94408915484E+01  0.69584973303E+01  0.31886077921E+02  0.00000000000E+00 0. -1.
         11    1    3    3    0    0  0.23606211502E+02 -0.14546421544E+02 -0.57133409321E+01  0.28310667002E+02  0.51100000000E-03 0. -1.
        -11    1    3    3    0    0  0.12126748401E+01  0.16214698558E+02  0.54509315190E+01  0.17149334806E+02  0.51100000000E-03 0.  1.
         12    1    3    3    0    0  0.48319289394E+01 -0.11109168562E+02 -0.66960879173E+01  0.13841920271E+02  0.00000000000E+00 0. -1.
</event>
<event>
 7    1  0.7755875E-012  0.5930195E+02  0.7816164E-02  0.1266605E+00
        -11   -1    0    0    0    0  0.00000000000E+00  0.00000000000E+00  0.45593999997E+02  0.45594000000E+02  0.51100000000E-03 0. -1.
         11   -1    0    0    0    0 -0.00000000000E+00 -0.00000000000E+00 -0.45593999997E+02  0.45594000000E+02  0.51100000000E-03 0.  1.
    9900012    2    1    2    0    0  0.18659116111E+00 -0.17814538488E+02 -0.26444805651E+02  0.59301947505E+02  0.50000006342E+02 0.  0.
         12    1    1    2    0    0 -0.18659116111E+00  0.17814538488E+02  0.26444805651E+02  0.31886052495E+02  0.00000000000E+00 0. -1.
         11    1    3    3    0    0 -0.16700246011E+02  0.38098898280E+01 -0.19450876244E+02  0.25918141605E+02  0.51100000000E-03 0. -1.
        -11    1    3    3    0    0  0.68830889279E+01 -0.17602972306E+02 -0.11015355537E+02  0.21876462352E+02  0.51100000000E-03 0.  1.
         12    1    3    3    0    0  0.10003748245E+02 -0.40214560105E+01  0.40214261304E+01  0.11507343547E+02  0.00000000000E+00 0. -1.
</event>
<event>
 7    1  0.7755875E-012  0.5930194E+02  0.7816164E-02  0.1266605E+00
        -11   -1    0    0    0    0  0.00000000000E+00  0.00000000000E+00  0.45593999997E+02  0.45594000000E+02  0.51100000000E-03 0.  1.
         11   -1    0    0    0    0 -0.00000000000E+00 -0.00000000000E+00 -0.45593999997E+02  0.45594000000E+02  0.51100000000E-03 0. -1.
    9900012    2    1    2    0    0  0.28936124120E+02 -0.10165656581E+02  0.87224500452E+01  0.59301937408E+02  0.49999987927E+02 0.  0.
         12    1    1    2    0    0 -0.28936124120E+02  0.10165656581E+02 -0.87224500452E+01  0.31886062592E+02  0.00000000000E+00 0. -1.
         11    1    3    3    0    0 -0.99386123261E+01  0.78927209695E+01 -0.42958985694E+01  0.13398723971E+02  0.51100000000E-03 0. -1.
        -11    1    3    3    0    0  0.83806873914E+01 -0.21190884341E+01  0.66591792779E+01  0.10911971676E+02  0.51100000000E-03 0.  1.
         12    1    3    3    0    0  0.30494049055E+02 -0.15939289116E+02  0.63591693367E+01  0.34991241761E+02  0.00000000000E+00 0. -1.
</event>
<event>
 7    1  0.7755875E-012  0.5930194E+02  0.7816164E-02  0.1266605E+00
        -11   -1    0    0    0    0  0.00000000000E+00  0.00000000000E+00  0.45593999997E+02  0.45594000000E+02  0.51100000000E-03 0. -1.
         11   -1    0    0    0    0 -0.00000000000E+00 -0.00000000000E+00 -0.45593999997E+02  0.45594000000E+02  0.51100000000E-03 0.  1.
    9900012    2    1    2    0    0 -0.26251739312E+02 -0.11594840784E+02 -0.13897012551E+02  0.59301935527E+02  0.49999984498E+02 0.  0.
         12    1    1    2    0    0  0.26251739312E+02  0.11594840784E+02  0.13897012551E+02  0.31886064473E+02  0.00000000000E+00 0. -1.
         11    1    3    3    0    0 -0.31003366979E+02 -0.16026634596E+02 -0.10767024621E+02  0.36523836052E+02  0.51100000000E-03 0. -1.
        -11    1    3    3    0    0  0.52836584602E+01  0.12471145360E+02 -0.51189350659E+01  0.14479295901E+02  0.51100000000E-03 0.  1.
        -12    1    3    3    0    0 -0.53203079326E+00 -0.80393515471E+01  0.19889471358E+01  0.82988035747E+01  0.00000000000E+00 0.  1.
</event>
<event>
 7    1  0.7755875E-012  0.5930193E+02  0.7816164E-02  0.1266605E+00
        -11   -1    0    0    0    0  0.00000000000E+00  0.00000000000E+00  0.45593999997E+02  0.45594000000E+02  0.51100000000E-03 0. -1.
         11   -1    0    0    0    0 -0.00000000000E+00 -0.00000000000E+00 -0.45593999997E+02  0.45594000000E+02  0.51100000000E-03 0.  1.
    9900012    2    1    2    0    0 -0.71789621311E+01 -0.30921680593E+02  0.30056131779E+01  0.59301928768E+02  0.49999972171E+02 0.  0.
         12    1    1    2    0    0  0.71789621311E+01  0.30921680593E+02 -0.30056131779E+01  0.31886071232E+02  0.00000000000E+00 0. -1.
         11    1    3    3    0    0 -0.87049773211E+01 -0.77729553295E+01  0.84363679885E+01  0.14400269783E+02  0.51100000000E-03 0. -1.
        -11    1    3    3    0    0 -0.67392611579E+01 -0.17983605301E+01 -0.17630178273E+02  0.18959824043E+02  0.51100000000E-03 0.  1.
        -12    1    3    3    0    0  0.82652763479E+01 -0.21350364734E+02  0.12199423462E+02  0.25941834943E+02  0.00000000000E+00 0.  1.
</event>
<event>
 7    1  0.7755875E-012  0.5930194E+02  0.7816164E-02  0.1266605E+00
        -11   -1    0    0    0    0  0.00000000000E+00  0.00000000000E+00  0.45593999997E+02  0.45594000000E+02  0.51100000000E-03 0. -1.
         11   -1    0    0    0    0 -0.00000000000E+00 -0.00000000000E+00 -0.45593999997E+02  0.45594000000E+02  0.51100000000E-03 0.  1.
    9900012    2    1    2    0    0 -0.55448112828E+01 -0.24648265636E+02  0.19453503117E+02  0.59301941690E+02  0.49999995737E+02 0.  0.
         12    1    1    2    0    0  0.55448112828E+01  0.24648265636E+02 -0.19453503117E+02  0.31886058310E+02  0.00000000000E+00 0. -1.
         11    1    3    3    0    0 -0.92842906160E+01 -0.77746387272E+01  0.25871911626E+02  0.28565693953E+02  0.51100000000E-03 0. -1.
        -11    1    3    3    0    0 -0.36165153626E+01 -0.33713352528E+01 -0.13076940468E+02  0.13980395453E+02  0.51100000000E-03 0.  1.
         12    1    3    3    0    0  0.73559946958E+01 -0.13502291656E+02  0.66585319594E+01  0.16755852284E+02  0.00000000000E+00 0. -1.
</event>
<event>
 7    1  0.7755875E-012  0.5930192E+02  0.7816164E-02  0.1266605E+00
        -11   -1    0    0    0    0  0.00000000000E+00  0.00000000000E+00  0.45593999997E+02  0.45594000000E+02  0.51100000000E-03 0.  1.
         11   -1    0    0    0    0 -0.00000000000E+00 -0.00000000000E+00 -0.45593999997E+02  0.45594000000E+02  0.51100000000E-03 0. -1.
    9900012    2    1    2    0    0 -0.14763929117E+01  0.57599259377E+01  0.31326752338E+02  0.59301923181E+02  0.49999961981E+02 0.  0.
         12    1    1    2    0    0  0.14763929117E+01 -0.57599259377E+01 -0.31326752338E+02  0.31886076819E+02  0.00000000000E+00 0. -1.
         11    1    3    3    0    0 -0.14425282313E+00 -0.18362341646E+02  0.27837679518E+02  0.33348655158E+02  0.51100000000E-03 0. -1.
        -11    1    3    3    0    0  0.33022105816E+01  0.10891064718E+02 -0.45475306134E+00  0.11389762334E+02  0.51100000000E-03 0.  1.
         12    1    3    3    0    0 -0.46343506701E+01  0.13231202865E+02  0.39438258809E+01  0.14563505690E+02  0.00000000000E+00 0. -1.
</event>
<event>
 7    1  0.7755875E-012  0.5930194E+02  0.7816164E-02  0.1266605E+00
        -11   -1    0    0    0    0  0.00000000000E+00  0.00000000000E+00  0.45593999997E+02  0.45594000000E+02  0.51100000000E-03 0.  1.
         11   -1    0    0    0    0 -0.00000000000E+00 -0.00000000000E+00 -0.45593999997E+02  0.45594000000E+02  0.51100000000E-03 0. -1.
    9900012    2    1    2    0    0 -0.25284940231E+02 -0.91100231892E+01  0.17158091045E+02  0.59301940142E+02  0.49999992913E+02 0.  0.
         12    1    1    2    0    0  0.25284940231E+02  0.91100231892E+01 -0.17158091045E+02  0.31886059858E+02  0.00000000000E+00 0. -1.
         11    1    3    3    0    0 -0.14926543639E+01  0.45255510979E+01 -0.11444392664E+02  0.12396884830E+02  0.51100000000E-03 0. -1.
        -11    1    3    3    0    0 -0.25803913288E+02 -0.26135487474E+01  0.20897335350E+02  0.33307224487E+02  0.51100000000E-03 0.  1.
         12    1    3    3    0    0  0.20116274216E+01 -0.11022025540E+02  0.77051483592E+01  0.13597830824E+02  0.00000000000E+00 0. -1.
</event>
<event>
 7    1  0.7755875E-012  0.5930195E+02  0.7816164E-02  0.1266605E+00
        -11   -1    0    0    0    0  0.00000000000E+00  0.00000000000E+00  0.45593999997E+02  0.45594000000E+02  0.51100000000E-03 0.  1.
         11   -1    0    0    0    0 -0.00000000000E+00 -0.00000000000E+00 -0.45593999997E+02  0.45594000000E+02  0.51100000000E-03 0. -1.
    9900012    2    1    2    0    0 -0.86478359469E+01  0.24439609212E+02  0.18564493323E+02  0.59301953250E+02  0.50000016819E+02 0.  0.
         12    1    1    2    0    0  0.86478359469E+01 -0.24439609212E+02 -0.18564493323E+02  0.31886046750E+02  0.00000000000E+00 0. -1.
         11    1    3    3    0    0  0.22538772015E+01 -0.41917442786E+01  0.98666525059E+01  0.10954520276E+02  0.51100000000E-03 0. -1.
        -11    1    3    3    0    0 -0.22150731368E+02  0.11094872984E+02 -0.21337094570E+01  0.24865715814E+02  0.51100000000E-03 0.  1.
        -12    1    3    3    0    0  0.11249018219E+02  0.17536480507E+02  0.10831550274E+02  0.23481717160E+02  0.00000000000E+00 0.  1.
</event>
<event>
 7    1  0.7755875E-012  0.5930197E+02  0.7816164E-02  0.1266605E+00
        -11   -1    0    0    0    0  0.00000000000E+00  0.00000000000E+00  0.45593999997E+02  0.45594000000E+02  0.51100000000E-03 0.  1.
         11   -1    0    0    0    0 -0.00000000000E+00 -0.00000000000E+00 -0.45593999997E+02  0.45594000000E+02  0.51100000000E-03 0. -1.
    9900012    2    1    2    0    0 -0.86574945815E+01 -0.28755914018E+02 -0.10717462762E+02  0.59301971532E+02  0.50000050160E+02 0.  0.
         12    1    1    2    0    0  0.86574945815E+01  0.28755914018E+02  0.10717462762E+02  0.31886028468E+02  0.00000000000E+00 0. -1.
         11    1    3    3    0    0  0.56259323428E+01  0.17320171935E+01  0.93203422212E+01  0.11023600939E+02  0.51100000000E-03 0. -1.
        -11    1    3    3    0    0 -0.22504604099E+02 -0.25303358186E+02 -0.17991162568E+02  0.38345782975E+02  0.51100000000E-03 0.  1.
        -12    1    3    3    0    0  0.82211771750E+01 -0.51845730254E+01 -0.20466424150E+01  0.99325876172E+01  0.00000000000E+00 0.  1.
</event>
<event>
 7    1  0.7755875E-012  0.5930195E+02  0.7816164E-02  0.1266605E+00
        -11   -1    0    0    0    0  0.00000000000E+00  0.00000000000E+00  0.45593999997E+02  0.45594000000E+02  0.51100000000E-03 0.  1.
         11   -1    0    0    0    0 -0.00000000000E+00 -0.00000000000E+00 -0.45593999997E+02  0.45594000000E+02  0.51100000000E-03 0. -1.
    9900012    2    1    2    0    0  0.25505068754E+02  0.14995157867E+02  0.11889360009E+02  0.59301950181E+02  0.50000011223E+02 0.  0.
         12    1    1    2    0    0 -0.25505068754E+02 -0.14995157867E+02 -0.11889360009E+02  0.31886049819E+02  0.00000000000E+00 0. -1.
         11    1    3    3    0    0  0.26273213355E+00 -0.11242296054E+02  0.43766876437E+01  0.12067047847E+02  0.51100000000E-03 0. -1.
        -11    1    3    3    0    0  0.16072898494E+02  0.19010971896E+02  0.18645282436E+02  0.31103081452E+02  0.51100000000E-03 0.  1.
         12    1    3    3    0    0  0.91694381260E+01  0.72264820257E+01 -0.11132610070E+02  0.16131820883E+02  0.00000000000E+00 0. -1.
</event>
<event>
 7    1  0.7755875E-012  0.5930204E+02  0.7816164E-02  0.1266604E+00
        -11   -1    0    0    0    0  0.00000000000E+00  0.00000000000E+00  0.45593999997E+02  0.45594000000E+02  0.51100000000E-03 0.  1.
         11   -1    0    0    0    0 -0.00000000000E+00 -0.00000000000E+00 -0.45593999997E+02  0.45594000000E+02  0.51100000000E-03 0. -1.
    9900012    2    1    2    0    0 -0.19893654315E+02  0.55308679433E+01  0.24297453587E+02  0.59302043326E+02  0.50000181095E+02 0.  0.
         12    1    1    2    0    0  0.19893654315E+02 -0.55308679433E+01 -0.24297453587E+02  0.31885956674E+02  0.00000000000E+00 0. -1.
         11    1    3    3    0    0 -0.57750235197E+01  0.24012089240E+02  0.12716870773E+01  0.24729506962E+02  0.51100000000E-03 0. -1.
        -11    1    3    3    0    0 -0.10873805666E+02 -0.10018889619E+02  0.74613759410E+01  0.16561700699E+02  0.51100000000E-03 0.  1.
         12    1    3    3    0    0 -0.32448251300E+01 -0.84623316772E+01  0.15564390569E+02  0.18010835664E+02  0.00000000000E+00 0. -1.
</event>
<event>
 7    1  0.7755875E-012  0.5930198E+02  0.7816164E-02  0.1266605E+00
        -11   -1    0    0    0    0  0.00000000000E+00  0.00000000000E+00  0.45593999997E+02  0.45594000000E+02  0.51100000000E-03 0.  1.
         11   -1    0    0    0    0 -0.00000000000E+00 -0.00000000000E+00 -0.45593999997E+02  0.45594000000E+02  0.51100000000E-03 0. -1.
    9900012    2    1    2    0    0  0.30992627938E+02 -0.39955633423E+01  0.63411718156E+01  0.59301984681E+02  0.50000074142E+02 0.  0.
         12    1    1    2    0    0 -0.30992627938E+02  0.39955633423E+01 -0.63411718156E+01  0.31886015319E+02  0.00000000000E+00 0. -1.
         11    1    3    3    0    0  0.25287281919E+02 -0.23427652039E+02 -0.86797136439E+00  0.34482675092E+02  0.51100000000E-03 0. -1.
        -11    1    3    3    0    0  0.26053894804E+01  0.18563729460E+02  0.93550722168E+01  0.20950357569E+02  0.51100000000E-03 0.  1.
        -12    1    3    3    0    0  0.30999565382E+01  0.86835923656E+00 -0.21459290367E+01  0.38689520200E+01  0.00000000000E+00 0.  1.
</event>
<event>
 7    1  0.7755875E-012  0.5930193E+02  0.7816164E-02  0.1266605E+00
        -11   -1    0    0    0    0  0.00000000000E+00  0.00000000000E+00  0.45593999997E+02  0.45594000000E+02  0.51100000000E-03 0.  1.
         11   -1    0    0    0    0 -0.00000000000E+00 -0.00000000000E+00 -0.45593999997E+02  0.45594000000E+02  0.51100000000E-03 0. -1.
    9900012    2    1    2    0    0  0.56171542876E+01  0.15960883127E+02  0.27026268141E+02  0.59301931222E+02  0.49999976646E+02 0.  0.
         12    1    1    2    0    0 -0.56171542876E+01 -0.15960883127E+02 -0.27026268141E+02  0.31886068778E+02  0.00000000000E+00 0. -1.
         11    1    3    3    0    0 -0.19823271057E+02  0.73810658695E+01  0.64993149231E+01  0.22128789020E+02  0.51100000000E-03 0. -1.
        -11    1    3    3    0    0  0.86545633563E+01 -0.43918370080E+01  0.76424080270E+01  0.12352979394E+02  0.51100000000E-03 0.  1.
         12    1    3    3    0    0  0.16785861988E+02  0.12971654265E+02  0.12884545191E+02  0.24820162808E+02  0.00000000000E+00 0. -1.
</event>
<event>
 7    1  0.7755875E-012  0.5930192E+02  0.7816164E-02  0.1266605E+00
        -11   -1    0    0    0    0  0.00000000000E+00  0.00000000000E+00  0.45593999997E+02  0.45594000000E+02  0.51100000000E-03 0. -1.
         11   -1    0    0    0    0 -0.00000000000E+00 -0.00000000000E+00 -0.45593999997E+02  0.45594000000E+02  0.51100000000E-03 0.  1.
    9900012    2    1    2    0    0  0.97185921072E+01 -0.11790377468E+02 -0.27986742424E+02  0.59301924906E+02  0.49999965126E+02 0.  0.
         12    1    1    2    0    0 -0.97185921072E+01  0.11790377468E+02  0.27986742424E+02  0.31886075094E+02  0.00000000000E+00 0. -1.
         11    1    3    3    0    0 -0.67069661000E+01  0.79702022345E+01  0.64365705676E+01  0.12244874800E+02  0.51100000000E-03 0. -1.
        -11    1    3    3    0    0  0.10214014379E+02 -0.15800272166E+02 -0.95173158591E+01  0.21084449049E+02  0.51100000000E-03 0.  1.
         12    1    3    3    0    0  0.62115438280E+01 -0.39603075368E+01 -0.24905997133E+02  0.25972601057E+02  0.00000000000E+00 0. -1.
</event>
<event>
 7    1  0.7755875E-012  0.5930193E+02  0.7816164E-02  0.1266605E+00
        -11   -1    0    0    0    0  0.00000000000E+00  0.00000000000E+00  0.45593999997E+02  0.45594000000E+02  0.51100000000E-03 0. -1.
         11   -1    0    0    0    0 -0.00000000000E+00 -0.00000000000E+00 -0.45593999997E+02  0.45594000000E+02  0.51100000000E-03 0.  1.
    9900012    2    1    2    0    0 -0.82729141647E+01 -0.22808344156E+02 -0.20689602390E+02  0.59301932212E+02  0.49999978451E+02 0.  0.
         12    1    1    2    0    0  0.82729141647E+01  0.22808344156E+02  0.20689602390E+02  0.31886067788E+02  0.00000000000E+00 0. -1.
         11    1    3    3    0    0  0.29592940406E+01 -0.12101767849E+02 -0.15142774916E+01  0.12550029597E+02  0.51100000000E-03 0. -1.
        -11    1    3    3    0    0 -0.42392366091E+01 -0.16674774003E+02 -0.28732957209E+02  0.33490327638E+02  0.51100000000E-03 0.  1.
        -12    1    3    3    0    0 -0.69929715962E+01  0.59681976962E+01  0.95576323104E+01  0.13261574977E+02  0.00000000000E+00 0.  1.
</event>
<event>
 7    1  0.7755875E-012  0.5930197E+02  0.7816164E-02  0.1266605E+00
        -11   -1    0    0    0    0  0.00000000000E+00  0.00000000000E+00  0.45593999997E+02  0.45594000000E+02  0.51100000000E-03 0. -1.
         11   -1    0    0    0    0 -0.00000000000E+00 -0.00000000000E+00 -0.45593999997E+02  0.45594000000E+02  0.51100000000E-03 0.  1.
    9900012    2    1    2    0    0  0.24794646069E+00 -0.29960577478E+01 -0.31743996192E+02  0.59301966479E+02  0.50000040946E+02 0.  0.
         12    1    1    2    0    0 -0.24794646069E+00  0.29960577478E+01  0.31743996192E+02  0.31886033521E+02  0.00000000000E+00 0. -1.
         11    1    3    3    0    0 -0.64336447889E+00 -0.51547614185E+00  0.10319774416E+02  0.10352650760E+02  0.51100000000E-03 0. -1.
        -11    1    3    3    0    0 -0.64946701776E+01  0.78972757711E+01 -0.28792875352E+02  0.30554498468E+02  0.51100000000E-03 0.  1.
        -12    1    3    3    0    0  0.73859811172E+01 -0.10377857377E+02 -0.13270895256E+02  0.18394817251E+02  0.00000000000E+00 0.  1.
</event>
<event>
 7    1  0.7755875E-012  0.5930202E+02  0.7816164E-02  0.1266605E+00
        -11   -1    0    0    0    0  0.00000000000E+00  0.00000000000E+00  0.45593999997E+02  0.45594000000E+02  0.51100000000E-03 0.  1.
         11   -1    0    0    0    0 -0.00000000000E+00 -0.00000000000E+00 -0.45593999997E+02  0.45594000000E+02  0.51100000000E-03 0. -1.
    9900012    2    1    2    0    0 -0.24388014213E+01  0.13492504997E+02  0.28787503431E+02  0.59302018797E+02  0.50000136361E+02 0.  0.
         12    1    1    2    0    0  0.24388014213E+01 -0.13492504997E+02 -0.28787503431E+02  0.31885981203E+02  0.00000000000E+00 0. -1.
         11    1    3    3    0    0 -0.18808873714E+02  0.14232625185E+02  0.30974159873E+01  0.23789395455E+02  0.51100000000E-03 0. -1.
        -11    1    3    3    0    0  0.13218507333E+02  0.47700677799E+01  0.68530700349E+01  0.15634802586E+02  0.51100000000E-03 0.  1.
         12    1    3    3    0    0  0.31515649592E+01 -0.55101879682E+01  0.18837017409E+02  0.19877820756E+02  0.00000000000E+00 0. -1.
</event>
<event>
 7    1  0.7755875E-012  0.5930193E+02  0.7816164E-02  0.1266605E+00
        -11   -1    0    0    0    0  0.00000000000E+00  0.00000000000E+00  0.45593999997E+02  0.45594000000E+02  0.51100000000E-03 0. -1.
         11   -1    0    0    0    0 -0.00000000000E+00 -0.00000000000E+00 -0.45593999997E+02  0.45594000000E+02  0.51100000000E-03 0.  1.
    9900012    2    1    2    0    0  0.20424649425E+02 -0.15025111519E+02 -0.19333936055E+02  0.59301931511E+02  0.49999977173E+02 0.  0.
         12    1    1    2    0    0 -0.20424649425E+02  0.15025111519E+02  0.19333936055E+02  0.31886068489E+02  0.00000000000E+00 0. -1.
         11    1    3    3    0    0  0.20491955701E+02  0.11272802715E+02 -0.98691869774E-02  0.23387954745E+02  0.51100000000E-03 0.  1.
        -11    1    3    3    0    0  0.42157085908E+00 -0.24051104128E+02 -0.95634124412E+01  0.25886138946E+02  0.51100000000E-03 0. -1.
         12    1    3    3    0    0 -0.48887713526E+00 -0.22468101062E+01 -0.97606544266E+01  0.10027837820E+02  0.00000000000E+00 0. -1.
</event>
<event>
 7    1  0.7755875E-012  0.5930187E+02  0.7816164E-02  0.1266605E+00
        -11   -1    0    0    0    0  0.00000000000E+00  0.00000000000E+00  0.45593999997E+02  0.45594000000E+02  0.51100000000E-03 0. -1.
         11   -1    0    0    0    0 -0.00000000000E+00 -0.00000000000E+00 -0.45593999997E+02  0.45594000000E+02  0.51100000000E-03 0.  1.
    9900012    2    1    2    0    0  0.10248817136E+02 -0.30170705510E+02 -0.11896972032E+01  0.59301872874E+02  0.49999870233E+02 0.  0.
         12    1    1    2    0    0 -0.10248817136E+02  0.30170705510E+02  0.11896972032E+01  0.31886127126E+02  0.00000000000E+00 0. -1.
         11    1    3    3    0    0 -0.12607433324E+02 -0.13848742295E+01 -0.10239434284E+02  0.16300652329E+02  0.51100000000E-03 0.  1.
        -11    1    3    3    0    0  0.67537825335E+01 -0.13381016871E+02  0.13620318306E+02  0.20252858120E+02  0.51100000000E-03 0. -1.
         12    1    3    3    0    0  0.16102467927E+02 -0.15404814409E+02 -0.45705812252E+01  0.22748362426E+02  0.00000000000E+00 0. -1.
</event>
<event>
 7    1  0.7755875E-012  0.5930192E+02  0.7816164E-02  0.1266605E+00
        -11   -1    0    0    0    0  0.00000000000E+00  0.00000000000E+00  0.45593999997E+02  0.45594000000E+02  0.51100000000E-03 0. -1.
         11   -1    0    0    0    0 -0.00000000000E+00 -0.00000000000E+00 -0.45593999997E+02  0.45594000000E+02  0.51100000000E-03 0.  1.
    9900012    2    1    2    0    0  0.17433279562E+02 -0.62617978408E+01 -0.25953660530E+02  0.59301923989E+02  0.49999963454E+02 0.  0.
         12    1    1    2    0    0 -0.17433279562E+02  0.62617978408E+01  0.25953660530E+02  0.31886076011E+02  0.00000000000E+00 0. -1.
         11    1    3    3    0    0 -0.14046449832E+02  0.42357168276E+00  0.43562492454E+01  0.14712548168E+02  0.51100000000E-03 0. -1.
        -11    1    3    3    0    0  0.20171512139E+02 -0.17642031299E+01 -0.16939654478E+02  0.26399890317E+02  0.51100000000E-03 0.  1.
         12    1    3    3    0    0  0.11308217255E+02 -0.49211663937E+01 -0.13370255298E+02  0.18189485504E+02  0.00000000000E+00 0. -1.
</event>
<event>
 7    1  0.7755875E-012  0.5930209E+02  0.7816164E-02  0.1266604E+00
        -11   -1    0    0    0    0  0.00000000000E+00  0.00000000000E+00  0.45593999997E+02  0.45594000000E+02  0.51100000000E-03 0.  1.
         11   -1    0    0    0    0 -0.00000000000E+00 -0.00000000000E+00 -0.45593999997E+02  0.45594000000E+02  0.51100000000E-03 0. -1.
    9900012    2    1    2    0    0 -0.27165924523E+02 -0.14232032277E+01  0.16634258053E+02  0.59302086125E+02  0.50000259151E+02 0.  0.
         12    1    1    2    0    0  0.27165924523E+02  0.14232032277E+01 -0.16634258053E+02  0.31885913875E+02  0.00000000000E+00 0. -1.
         11    1    3    3    0    0 -0.29297416100E+02  0.16840422618E+02  0.50753367492E+01  0.34171588600E+02  0.51100000000E-03 0. -1.
        -11    1    3    3    0    0 -0.41528230421E+01 -0.11171911385E+02  0.28366140885E+01  0.12251690616E+02  0.51100000000E-03 0.  1.
         12    1    3    3    0    0  0.62843146187E+01 -0.70917144612E+01  0.87223072156E+01  0.12878806909E+02  0.00000000000E+00 0. -1.
</event>
<event>
 7    1  0.7755875E-012  0.5930196E+02  0.7816164E-02  0.1266605E+00
        -11   -1    0    0    0    0  0.00000000000E+00  0.00000000000E+00  0.45593999997E+02  0.45594000000E+02  0.51100000000E-03 0.  1.
         11   -1    0    0    0    0 -0.00000000000E+00 -0.00000000000E+00 -0.45593999997E+02  0.45594000000E+02  0.51100000000E-03 0. -1.
    9900012    2    1    2    0    0 -0.66655917382E+01 -0.63061011291E+01  0.30537230939E+02  0.59301960765E+02  0.50000030524E+02 0.  0.
         12    1    1    2    0    0  0.66655917382E+01  0.63061011291E+01 -0.30537230939E+02  0.31886039235E+02  0.00000000000E+00 0. -1.
         11    1    3    3    0    0  0.10984359059E+02  0.11368021000E+02  0.71851441309E+01  0.17364168331E+02  0.51100000000E-03 0. -1.
        -11    1    3    3    0    0 -0.19573036107E+00 -0.17100830083E+02  0.14157201827E+02  0.22201420309E+02  0.51100000000E-03 0.  1.
         12    1    3    3    0    0 -0.17454220436E+02 -0.57329204548E+00  0.91948849819E+01  0.19736372125E+02  0.00000000000E+00 0. -1.
</event>
<event>
 7    1  0.7755875E-012  0.5930194E+02  0.7816164E-02  0.1266605E+00
        -11   -1    0    0    0    0  0.00000000000E+00  0.00000000000E+00  0.45593999997E+02  0.45594000000E+02  0.51100000000E-03 0.  1.
         11   -1    0    0    0    0 -0.00000000000E+00 -0.00000000000E+00 -0.45593999997E+02  0.45594000000E+02  0.51100000000E-03 0. -1.
    9900012    2    1    2    0    0  0.20991545811E+02 -0.11043241801E+02  0.21310148902E+02  0.59301942996E+02  0.49999998118E+02 0.  0.
         12    1    1    2    0    0 -0.20991545811E+02  0.11043241801E+02 -0.21310148902E+02  0.31886057004E+02  0.00000000000E+00 0. -1.
         11    1    3    3    0    0  0.21213671229E+02 -0.23209270808E+01 -0.33357742279E+01  0.21599396739E+02  0.51100000000E-03 0.  1.
        -11    1    3    3    0    0 -0.13636042082E+02 -0.44865870674E+01  0.10795035156E+02  0.17961177341E+02  0.51100000000E-03 0. -1.
        -12    1    3    3    0    0  0.13413916665E+02 -0.42357276532E+01  0.13850887974E+02  0.19741368917E+02  0.00000000000E+00 0.  1.
</event>
<event>
 7    1  0.7755875E-012  0.5930195E+02  0.7816164E-02  0.1266605E+00
        -11   -1    0    0    0    0  0.00000000000E+00  0.00000000000E+00  0.45593999997E+02  0.45594000000E+02  0.51100000000E-03 0.  1.
         11   -1    0    0    0    0 -0.00000000000E+00 -0.00000000000E+00 -0.45593999997E+02  0.45594000000E+02  0.51100000000E-03 0. -1.
    9900012    2    1    2    0    0  0.29335016531E+02  0.11544750499E+02  0.47849489496E+01  0.59301949830E+02  0.50000010583E+02 0.  0.
         12    1    1    2    0    0 -0.29335016531E+02 -0.11544750499E+02 -0.47849489496E+01  0.31886050170E+02  0.00000000000E+00 0. -1.
         11    1    3    3    0    0  0.74918008819E+01 -0.80805051422E+00 -0.93398021106E+01  0.12000497065E+02  0.51100000000E-03 0. -1.
        -11    1    3    3    0    0  0.16639911215E+02  0.24295458862E+02  0.20167629488E+01  0.29516491994E+02  0.51100000000E-03 0.  1.
        -12    1    3    3    0    0  0.52033044339E+01 -0.11942657849E+02  0.12107988111E+02  0.17784960771E+02  0.00000000000E+00 0.  1.
</event>
<event>
 7    1  0.7755875E-012  0.5930195E+02  0.7816164E-02  0.1266605E+00
        -11   -1    0    0    0    0  0.00000000000E+00  0.00000000000E+00  0.45593999997E+02  0.45594000000E+02  0.51100000000E-03 0.  1.
         11   -1    0    0    0    0 -0.00000000000E+00 -0.00000000000E+00 -0.45593999997E+02  0.45594000000E+02  0.51100000000E-03 0. -1.
    9900012    2    1    2    0    0 -0.30636307097E+02  0.48181170010E+01  0.74109958720E+01  0.59301946249E+02  0.50000004051E+02 0.  0.
         12    1    1    2    0    0  0.30636307097E+02 -0.48181170010E+01 -0.74109958720E+01  0.31886053751E+02  0.00000000000E+00 0. -1.
         11    1    3    3    0    0  0.79299353052E+01  0.24592834111E+01  0.12969247395E+02  0.15399133972E+02  0.51100000000E-03 0. -1.
        -11    1    3    3    0    0 -0.22354359645E+02  0.30340303278E-01  0.68217254443E+01  0.23372082791E+02  0.51100000000E-03 0.  1.
        -12    1    3    3    0    0 -0.16211882757E+02  0.23284932865E+01 -0.12379976967E+02  0.20530729486E+02  0.00000000000E+00 0.  1.
</event>
<event>
 7    1  0.7755875E-012  0.5930191E+02  0.7816164E-02  0.1266605E+00
        -11   -1    0    0    0    0  0.00000000000E+00  0.00000000000E+00  0.45593999997E+02  0.45594000000E+02  0.51100000000E-03 0.  1.
         11   -1    0    0    0    0 -0.00000000000E+00 -0.00000000000E+00 -0.45593999997E+02  0.45594000000E+02  0.51100000000E-03 0. -1.
    9900012    2    1    2    0    0 -0.26225604525E+02  0.12958013104E+02  0.12689764766E+02  0.59301912656E+02  0.49999942785E+02 0.  0.
         12    1    1    2    0    0  0.26225604525E+02 -0.12958013104E+02 -0.12689764766E+02  0.31886087344E+02  0.00000000000E+00 0. -1.
         11    1    3    3    0    0  0.84078791869E+01 -0.21612279301E+01  0.12255937203E+02  0.15019032445E+02  0.51100000000E-03 0. -1.
        -11    1    3    3    0    0 -0.33208321035E+02  0.63466002160E+01  0.51855844260E+01  0.34204710295E+02  0.51100000000E-03 0.  1.
        -12    1    3    3    0    0 -0.14251626769E+01  0.87726408183E+01 -0.47517568631E+01  0.10078169917E+02  0.00000000000E+00 0.  1.
</event>
<event>
 7    1  0.7755875E-012  0.5930196E+02  0.7816164E-02  0.1266605E+00
        -11   -1    0    0    0    0  0.00000000000E+00  0.00000000000E+00  0.45593999997E+02  0.45594000000E+02  0.51100000000E-03 0.  1.
         11   -1    0    0    0    0 -0.00000000000E+00 -0.00000000000E+00 -0.45593999997E+02  0.45594000000E+02  0.51100000000E-03 0. -1.
    9900012    2    1    2    0    0 -0.94620618428E+01  0.27009226886E+02  0.14060247227E+02  0.59301960682E+02  0.50000030374E+02 0.  0.
         12    1    1    2    0    0  0.94620618428E+01 -0.27009226886E+02 -0.14060247227E+02  0.31886039318E+02  0.00000000000E+00 0. -1.
         11    1    3    3    0    0 -0.14907883150E+02  0.19594296245E+02 -0.13441878884E+02  0.28051123570E+02  0.51100000000E-03 0. -1.
        -11    1    3    3    0    0 -0.78965772032E-01  0.76175500587E+01  0.82881007832E+01  0.11257260739E+02  0.51100000000E-03 0.  1.
         12    1    3    3    0    0  0.55247870795E+01 -0.20261941807E+00  0.19214025328E+02  0.19993576373E+02  0.00000000000E+00 0. -1.
</event>
<event>
 7    1  0.7755875E-012  0.5930182E+02  0.7816164E-02  0.1266605E+00
        -11   -1    0    0    0    0  0.00000000000E+00  0.00000000000E+00  0.45593999997E+02  0.45594000000E+02  0.51100000000E-03 0. -1.
         11   -1    0    0    0    0 -0.00000000000E+00 -0.00000000000E+00 -0.45593999997E+02  0.45594000000E+02  0.51100000000E-03 0.  1.
    9900012    2    1    2    0    0 -0.10042939791E+02 -0.12007519904E+02 -0.27779259065E+02  0.59301821049E+02  0.49999775716E+02 0.  0.
         12    1    1    2    0    0  0.10042939791E+02  0.12007519904E+02  0.27779259065E+02  0.31886178951E+02  0.00000000000E+00 0. -1.
         11    1    3    3    0    0 -0.41165905717E+01 -0.27097201617E+00  0.40997891658E+01  0.58161856258E+01  0.51100000000E-03 0. -1.
        -11    1    3    3    0    0  0.16844365332E+02 -0.46432377159E+01 -0.20866735957E+02  0.27216042507E+02  0.51100000000E-03 0.  1.
        -12    1    3    3    0    0 -0.22770714552E+02 -0.70933101723E+01 -0.11012312273E+02  0.26269592917E+02  0.00000000000E+00 0.  1.
</event>
<event>
 7    1  0.7755875E-012  0.5930184E+02  0.7816164E-02  0.1266605E+00
        -11   -1    0    0    0    0  0.00000000000E+00  0.00000000000E+00  0.45593999997E+02  0.45594000000E+02  0.51100000000E-03 0.  1.
         11   -1    0    0    0    0 -0.00000000000E+00 -0.00000000000E+00 -0.45593999997E+02  0.45594000000E+02  0.51100000000E-03 0. -1.
    9900012    2    1    2    0    0  0.22562575038E+01  0.29463661878E+02  0.11980366920E+02  0.59301839041E+02  0.49999808528E+02 0.  0.
         12    1    1    2    0    0 -0.22562575038E+01 -0.29463661878E+02 -0.11980366920E+02  0.31886160959E+02  0.00000000000E+00 0. -1.
         11    1    3    3    0    0  0.83004877351E+01  0.18724873098E+02  0.29474764130E+02  0.35892627236E+02  0.51100000000E-03 0. -1.
        -11    1    3    3    0    0 -0.19497792636E+01  0.95127388078E+01 -0.66949654824E+01  0.11794761629E+02  0.51100000000E-03 0.  1.
         12    1    3    3    0    0 -0.40944509677E+01  0.12260499723E+01 -0.10799431727E+02  0.11614450176E+02  0.00000000000E+00 0. -1.
</event>
<event>
 7    1  0.7755875E-012  0.5930195E+02  0.7816164E-02  0.1266605E+00
        -11   -1    0    0    0    0  0.00000000000E+00  0.00000000000E+00  0.45593999997E+02  0.45594000000E+02  0.51100000000E-03 0. -1.
         11   -1    0    0    0    0 -0.00000000000E+00 -0.00000000000E+00 -0.45593999997E+02  0.45594000000E+02  0.51100000000E-03 0.  1.
    9900012    2    1    2    0    0  0.10806110129E+02  0.15854928342E+02 -0.25467027041E+02  0.59301949207E+02  0.50000009447E+02 0.  0.
         12    1    1    2    0    0 -0.10806110129E+02 -0.15854928342E+02  0.25467027041E+02  0.31886050793E+02  0.00000000000E+00 0. -1.
         11    1    3    3    0    0 -0.12431569906E+01  0.29201346272E+02 -0.46091130121E+01  0.29588984207E+02  0.51100000000E-03 0. -1.
        -11    1    3    3    0    0  0.13779762173E+02 -0.91537383373E+01 -0.17403477518E+02  0.24011534750E+02  0.51100000000E-03 0.  1.
        -12    1    3    3    0    0 -0.17304950530E+01 -0.41926795924E+01 -0.34544365108E+01  0.57014302504E+01  0.00000000000E+00 0.  1.
</event>
<event>
 7    1  0.7755875E-012  0.5930194E+02  0.7816164E-02  0.1266605E+00
        -11   -1    0    0    0    0  0.00000000000E+00  0.00000000000E+00  0.45593999997E+02  0.45594000000E+02  0.51100000000E-03 0. -1.
         11   -1    0    0    0    0 -0.00000000000E+00 -0.00000000000E+00 -0.45593999997E+02  0.45594000000E+02  0.51100000000E-03 0.  1.
    9900012    2    1    2    0    0 -0.55584261655E+01  0.19329604313E+02 -0.24742496420E+02  0.59301939826E+02  0.49999992337E+02 0.  0.
         12    1    1    2    0    0  0.55584261655E+01 -0.19329604313E+02  0.24742496420E+02  0.31886060174E+02  0.00000000000E+00 0. -1.
         11    1    3    3    0    0 -0.18963115307E+02  0.17646997725E+01  0.23488224850E+01  0.19189342740E+02  0.51100000000E-03 0. -1.
        -11    1    3    3    0    0  0.16423223846E+01  0.80847910093E+01 -0.23038782144E+02  0.24471341430E+02  0.51100000000E-03 0.  1.
         12    1    3    3    0    0  0.11762366757E+02  0.94801135311E+01 -0.40525367613E+01  0.15641255656E+02  0.00000000000E+00 0. -1.
</event>
<event>
 7    1  0.7755875E-012  0.5930196E+02  0.7816164E-02  0.1266605E+00
        -11   -1    0    0    0    0  0.00000000000E+00  0.00000000000E+00  0.45593999997E+02  0.45594000000E+02  0.51100000000E-03 0. -1.
         11   -1    0    0    0    0 -0.00000000000E+00 -0.00000000000E+00 -0.45593999997E+02  0.45594000000E+02  0.51100000000E-03 0.  1.
    9900012    2    1    2    0    0  0.68784311353E+01 -0.25565274387E+02 -0.17771418358E+02  0.59301962620E+02  0.50000033907E+02 0.  0.
         12    1    1    2    0    0 -0.68784311353E+01  0.25565274387E+02  0.17771418358E+02  0.31886037380E+02  0.00000000000E+00 0. -1.
         11    1    3    3    0    0  0.65290939163E+00  0.25358664517E+01 -0.25937411715E+01  0.36857024921E+01  0.51100000000E-03 0. -1.
        -11    1    3    3    0    0  0.86633559019E+01 -0.35498567713E+02  0.21653706319E+01  0.36604519877E+02  0.51100000000E-03 0.  1.
        -12    1    3    3    0    0 -0.24378341583E+01  0.73974268741E+01 -0.17343047818E+02  0.19011740251E+02  0.00000000000E+00 0.  1.
</event>
<event>
 7    1  0.7755875E-012  0.5930195E+02  0.7816164E-02  0.1266605E+00
        -11   -1    0    0    0    0  0.00000000000E+00  0.00000000000E+00  0.45593999997E+02  0.45594000000E+02  0.51100000000E-03 0.  1.
         11   -1    0    0    0    0 -0.00000000000E+00 -0.00000000000E+00 -0.45593999997E+02  0.45594000000E+02  0.51100000000E-03 0. -1.
    9900012    2    1    2    0    0  0.60206670855E+01  0.18060503351E+02  0.25579094112E+02  0.59301948676E+02  0.50000008477E+02 0.  0.
         12    1    1    2    0    0 -0.60206670855E+01 -0.18060503351E+02 -0.25579094112E+02  0.31886051324E+02  0.00000000000E+00 0. -1.
         11    1    3    3    0    0 -0.88263104017E+01 -0.30649880691E+01 -0.37349026535E+01  0.10062176964E+02  0.51100000000E-03 0. -1.
        -11    1    3    3    0    0  0.11854149598E+02  0.27266983877E+02  0.30165215078E+02  0.42355040708E+02  0.51100000000E-03 0.  1.
        -12    1    3    3    0    0  0.29928278888E+01 -0.61414924573E+01 -0.85121831173E+00  0.68847310034E+01  0.00000000000E+00 0.  1.
</event>
<event>
 7    1  0.7755875E-012  0.5930195E+02  0.7816164E-02  0.1266605E+00
        -11   -1    0    0    0    0  0.00000000000E+00  0.00000000000E+00  0.45593999997E+02  0.45594000000E+02  0.51100000000E-03 0.  1.
         11   -1    0    0    0    0 -0.00000000000E+00 -0.00000000000E+00 -0.45593999997E+02  0.45594000000E+02  0.51100000000E-03 0. -1.
    9900012    2    1    2    0    0  0.27460841511E+01  0.11214945453E+02  0.29722113301E+02  0.59301952914E+02  0.50000016206E+02 0.  0.
         12    1    1    2    0    0 -0.27460841511E+01 -0.11214945453E+02 -0.29722113301E+02  0.31886047086E+02  0.00000000000E+00 0. -1.
         11    1    3    3    0    0  0.64785349016E+01  0.38027564137E+01  0.53502405296E+01  0.92226593127E+01  0.51100000000E-03 0. -1.
        -11    1    3    3    0    0 -0.85233745370E+01  0.16500860148E+02  0.32193653460E+02  0.37166619735E+02  0.51100000000E-03 0.  1.
        -12    1    3    3    0    0  0.47909237865E+01 -0.90886711082E+01 -0.78217806887E+01  0.12912673867E+02  0.00000000000E+00 0.  1.
</event>
<event>
 7    1  0.7755875E-012  0.5930180E+02  0.7816164E-02  0.1266605E+00
        -11   -1    0    0    0    0  0.00000000000E+00  0.00000000000E+00  0.45593999997E+02  0.45594000000E+02  0.51100000000E-03 0. -1.
         11   -1    0    0    0    0 -0.00000000000E+00 -0.00000000000E+00 -0.45593999997E+02  0.45594000000E+02  0.51100000000E-03 0.  1.
    9900012    2    1    2    0    0 -0.61727042683E+01  0.31114180816E+02 -0.32457982577E+01  0.59301800287E+02  0.49999737851E+02 0.  0.
         12    1    1    2    0    0  0.61727042683E+01 -0.31114180816E+02  0.32457982577E+01  0.31886199713E+02  0.00000000000E+00 0. -1.
         11    1    3    3    0    0  0.38989118431E+01  0.47822101634E+01 -0.52021531394E+01  0.80705294221E+01  0.51100000000E-03 0. -1.
        -11    1    3    3    0    0  0.78061476182E+01  0.18271932395E+02  0.17288819588E+02  0.26338237167E+02  0.51100000000E-03 0.  1.
        -12    1    3    3    0    0 -0.17877763730E+02  0.80600382576E+01 -0.15332464707E+02  0.24893033698E+02  0.00000000000E+00 0.  1.
</event>
<event>
 7    1  0.7755875E-012  0.5930195E+02  0.7816164E-02  0.1266605E+00
        -11   -1    0    0    0    0  0.00000000000E+00  0.00000000000E+00  0.45593999997E+02  0.45594000000E+02  0.51100000000E-03 0. -1.
         11   -1    0    0    0    0 -0.00000000000E+00 -0.00000000000E+00 -0.45593999997E+02  0.45594000000E+02  0.51100000000E-03 0.  1.
    9900012    2    1    2    0    0  0.15220720576E+02  0.17024554035E+02 -0.22253411740E+02  0.59301951185E+02  0.50000013054E+02 0.  0.
         12    1    1    2    0    0 -0.15220720576E+02 -0.17024554035E+02  0.22253411740E+02  0.31886048815E+02  0.00000000000E+00 0. -1.
         11    1    3    3    0    0 -0.51683757507E+01 -0.84363720598E+01 -0.33858837481E+01  0.10456992419E+02  0.51100000000E-03 0. -1.
        -11    1    3    3    0    0  0.96840063839E+01  0.22510002453E+02 -0.25936339683E+02  0.35681562557E+02  0.51100000000E-03 0.  1.
        -12    1    3    3    0    0  0.10705089943E+02  0.29509236421E+01  0.70688116917E+01  0.13163396209E+02  0.00000000000E+00 0.  1.
</event>
<event>
 7    1  0.7755875E-012  0.5930192E+02  0.7816164E-02  0.1266605E+00
        -11   -1    0    0    0    0  0.00000000000E+00  0.00000000000E+00  0.45593999997E+02  0.45594000000E+02  0.51100000000E-03 0. -1.
         11   -1    0    0    0    0 -0.00000000000E+00 -0.00000000000E+00 -0.45593999997E+02  0.45594000000E+02  0.51100000000E-03 0.  1.
    9900012    2    1    2    0    0 -0.29251317961E+02  0.10335442363E+02 -0.73662215923E+01  0.59301918525E+02  0.49999953490E+02 0.  0.
         12    1    1    2    0    0  0.29251317961E+02 -0.10335442363E+02  0.73662215923E+01  0.31886081475E+02  0.00000000000E+00 0. -1.
         11    1    3    3    0    0  0.84836451165E+01  0.10809522968E+02  0.71977956523E+01  0.15512133437E+02  0.51100000000E-03 0. -1.
        -11    1    3    3    0    0 -0.14987482647E+02 -0.82818585239E+01 -0.77308371632E+01  0.18787752931E+02  0.51100000000E-03 0.  1.
         12    1    3    3    0    0 -0.22747480431E+02  0.78077779184E+01 -0.68331800814E+01  0.25002032157E+02  0.00000000000E+00 0. -1.
</event>
<event>
 7    1  0.7755875E-012  0.5930194E+02  0.7816164E-02  0.1266605E+00
        -11   -1    0    0    0    0  0.00000000000E+00  0.00000000000E+00  0.45593999997E+02  0.45594000000E+02  0.51100000000E-03 0. -1.
         11   -1    0    0    0    0 -0.00000000000E+00 -0.00000000000E+00 -0.45593999997E+02  0.45594000000E+02  0.51100000000E-03 0.  1.
    9900012    2    1    2    0    0  0.12769952823E+02 -0.16360023166E+02 -0.24207410541E+02  0.59301940692E+02  0.49999993917E+02 0.  0.
         12    1    1    2    0    0 -0.12769952823E+02  0.16360023166E+02  0.24207410541E+02  0.31886059308E+02  0.00000000000E+00 0. -1.
         11    1    3    3    0    0  0.27464194182E+01 -0.88000448430E+00  0.37645420135E+01  0.47422573049E+01  0.51100000000E-03 0. -1.
        -11    1    3    3    0    0  0.22143287158E+02 -0.23418589205E+02 -0.21117045367E+02  0.38531611591E+02  0.51100000000E-03 0.  1.
        -12    1    3    3    0    0 -0.12119753753E+02  0.79385705227E+01 -0.68549071875E+01  0.16028071797E+02  0.00000000000E+00 0.  1.
</event>
<event>
 7    1  0.7755875E-012  0.5930196E+02  0.7816164E-02  0.1266605E+00
        -11   -1    0    0    0    0  0.00000000000E+00  0.00000000000E+00  0.45593999997E+02  0.45594000000E+02  0.51100000000E-03 0. -1.
         11   -1    0    0    0    0 -0.00000000000E+00 -0.00000000000E+00 -0.45593999997E+02  0.45594000000E+02  0.51100000000E-03 0.  1.
    9900012    2    1    2    0    0 -0.27560318657E+02 -0.23507235450E+01 -0.15862614052E+02  0.59301959320E+02  0.50000027890E+02 0.  0.
         12    1    1    2    0    0  0.27560318657E+02  0.23507235450E+01  0.15862614052E+02  0.31886040680E+02  0.00000000000E+00 0. -1.
         11    1    3    3    0    0  0.12396192026E+02 -0.39723866163E+01 -0.97669657973E+01  0.16273876407E+02  0.51100000000E-03 0. -1.
        -11    1    3    3    0    0 -0.19248446206E+02  0.33103508028E+01 -0.99142570299E+01  0.21903278213E+02  0.51100000000E-03 0.  1.
         12    1    3    3    0    0 -0.20708064477E+02 -0.16886877315E+01  0.38186087751E+01  0.21124804700E+02  0.00000000000E+00 0. -1.
</event>
<event>
 7    1  0.7755875E-012  0.5930203E+02  0.7816164E-02  0.1266604E+00
        -11   -1    0    0    0    0  0.00000000000E+00  0.00000000000E+00  0.45593999997E+02  0.45594000000E+02  0.51100000000E-03 0. -1.
         11   -1    0    0    0    0 -0.00000000000E+00 -0.00000000000E+00 -0.45593999997E+02  0.45594000000E+02  0.51100000000E-03 0.  1.
    9900012    2    1    2    0    0  0.31602464990E+02 -0.40722275793E+01 -0.11901093942E+01  0.59302028299E+02  0.50000153691E+02 0.  0.
         12    1    1    2    0    0 -0.31602464990E+02  0.40722275793E+01  0.11901093942E+01  0.31885971701E+02  0.00000000000E+00 0. -1.
         11    1    3    3    0    0  0.23735802941E+02  0.92255625573E+01  0.17935630360E+02  0.31147811840E+02  0.51100000000E-03 0. -1.
        -11    1    3    3    0    0 -0.56423049169E+00 -0.10606838517E+02 -0.15025010173E+02  0.18400388864E+02  0.51100000000E-03 0.  1.
         12    1    3    3    0    0  0.84308925408E+01 -0.26909516196E+01 -0.41007295812E+01  0.97538275949E+01  0.00000000000E+00 0. -1.
</event>
<event>
 7    1  0.7755875E-012  0.5930197E+02  0.7816164E-02  0.1266605E+00
        -11   -1    0    0    0    0  0.00000000000E+00  0.00000000000E+00  0.45593999997E+02  0.45594000000E+02  0.51100000000E-03 0. -1.
         11   -1    0    0    0    0 -0.00000000000E+00 -0.00000000000E+00 -0.45593999997E+02  0.45594000000E+02  0.51100000000E-03 0.  1.
    9900012    2    1    2    0    0  0.30454852324E+02 -0.78311980763E+01 -0.52814101097E+01  0.59301968793E+02  0.50000045166E+02 0.  0.
         12    1    1    2    0    0 -0.30454852324E+02  0.78311980763E+01  0.52814101097E+01  0.31886031207E+02  0.00000000000E+00 0. -1.
         11    1    3    3    0    0  0.29410659549E+02 -0.51555941109E+01  0.12321604043E+02  0.32301532041E+02  0.51100000000E-03 0. -1.
        -11    1    3    3    0    0  0.46022295446E+01 -0.10011537189E+02 -0.52652238302E+01  0.12212042250E+02  0.51100000000E-03 0.  1.
         12    1    3    3    0    0 -0.35580367696E+01  0.73359332236E+01 -0.12337790323E+02  0.14788394503E+02  0.00000000000E+00 0. -1.
</event>
<event>
 7    1  0.7755875E-012  0.5930187E+02  0.7816164E-02  0.1266605E+00
        -11   -1    0    0    0    0  0.00000000000E+00  0.00000000000E+00  0.45593999997E+02  0.45594000000E+02  0.51100000000E-03 0. -1.
         11   -1    0    0    0    0 -0.00000000000E+00 -0.00000000000E+00 -0.45593999997E+02  0.45594000000E+02  0.51100000000E-03 0.  1.
    9900012    2    1    2    0    0  0.29148531884E+02 -0.39252659533E-01 -0.12926196299E+02  0.59301874451E+02  0.49999873109E+02 0.  0.
         12    1    1    2    0    0 -0.29148531884E+02  0.39252659533E-01  0.12926196299E+02  0.31886125549E+02  0.00000000000E+00 0. -1.
         11    1    3    3    0    0  0.19740298140E+01 -0.21629777105E+01  0.14081903363E+02  0.14383159211E+02  0.51100000000E-03 0. -1.
        -11    1    3    3    0    0  0.20748440766E+02  0.95477106795E+01 -0.26643358777E+02  0.35093092491E+02  0.51100000000E-03 0.  1.
         12    1    3    3    0    0  0.64260613042E+01 -0.74239856286E+01 -0.36474088589E+00  0.98256227493E+01  0.00000000000E+00 0. -1.
</event>
<event>
 7    1  0.7755875E-012  0.5930195E+02  0.7816164E-02  0.1266605E+00
        -11   -1    0    0    0    0  0.00000000000E+00  0.00000000000E+00  0.45593999997E+02  0.45594000000E+02  0.51100000000E-03 0. -1.
         11   -1    0    0    0    0 -0.00000000000E+00 -0.00000000000E+00 -0.45593999997E+02  0.45594000000E+02  0.51100000000E-03 0.  1.
    9900012    2    1    2    0    0 -0.85295041122E+01  0.30131747966E+02 -0.60037709461E+01  0.59301953813E+02  0.50000017845E+02 0.  0.
         12    1    1    2    0    0  0.85295041122E+01 -0.30131747966E+02  0.60037709461E+01  0.31886046187E+02  0.00000000000E+00 0. -1.
         11    1    3    3    0    0  0.12716175663E+02  0.16880476890E+01 -0.15065559260E+02  0.19786907403E+02  0.51100000000E-03 0. -1.
        -11    1    3    3    0    0 -0.19417520902E+02  0.22025768074E+02  0.14590508249E+01  0.29399037515E+02  0.51100000000E-03 0.  1.
         12    1    3    3    0    0 -0.18281588727E+01  0.64179322036E+01  0.76027374892E+01  0.10116008895E+02  0.00000000000E+00 0. -1.
</event>
<event>
 7    1  0.7755875E-012  0.5930190E+02  0.7816164E-02  0.1266605E+00
        -11   -1    0    0    0    0  0.00000000000E+00  0.00000000000E+00  0.45593999997E+02  0.45594000000E+02  0.51100000000E-03 0. -1.
         11   -1    0    0    0    0 -0.00000000000E+00 -0.00000000000E+00 -0.45593999997E+02  0.45594000000E+02  0.51100000000E-03 0.  1.
    9900012    2    1    2    0    0  0.17181701087E+02 -0.26623589135E+02 -0.35632866983E+01  0.59301900164E+02  0.49999920002E+02 0.  0.
         12    1    1    2    0    0 -0.17181701087E+02  0.26623589135E+02  0.35632866983E+01  0.31886099836E+02  0.00000000000E+00 0. -1.
         11    1    3    3    0    0  0.11549660378E+02 -0.15235507806E+02 -0.16508367753E+02  0.25259484538E+02  0.51100000000E-03 0. -1.
        -11    1    3    3    0    0 -0.96201325657E+01 -0.12827881858E+02  0.50697323988E+01  0.16816768132E+02  0.51100000000E-03 0.  1.
         12    1    3    3    0    0  0.15252173274E+02  0.14398005287E+01  0.78753486558E+01  0.17225647494E+02  0.00000000000E+00 0. -1.
</event>
<event>
 7    1  0.7755875E-012  0.5930194E+02  0.7816164E-02  0.1266605E+00
        -11   -1    0    0    0    0  0.00000000000E+00  0.00000000000E+00  0.45593999997E+02  0.45594000000E+02  0.51100000000E-03 0. -1.
         11   -1    0    0    0    0 -0.00000000000E+00 -0.00000000000E+00 -0.45593999997E+02  0.45594000000E+02  0.51100000000E-03 0.  1.
    9900012    2    1    2    0    0 -0.18074471742E+02 -0.22808059060E+02 -0.13031763385E+02  0.59301938096E+02  0.49999989183E+02 0.  0.
         12    1    1    2    0    0  0.18074471742E+02  0.22808059060E+02  0.13031763385E+02  0.31886061904E+02  0.00000000000E+00 0. -1.
         11    1    3    3    0    0  0.65595445909E+01  0.74289601450E+01  0.11291304732E+01  0.99745681592E+01  0.51100000000E-03 0. -1.
        -11    1    3    3    0    0 -0.28492467940E+02 -0.31609601777E+02 -0.10494432388E+02  0.43830591659E+02  0.51100000000E-03 0.  1.
        -12    1    3    3    0    0  0.38584516072E+01  0.13725825723E+01 -0.36664614702E+01  0.54967782778E+01  0.00000000000E+00 0.  1.
</event>
<event>
 7    1  0.7755875E-012  0.5930194E+02  0.7816164E-02  0.1266605E+00
        -11   -1    0    0    0    0  0.00000000000E+00  0.00000000000E+00  0.45593999997E+02  0.45594000000E+02  0.51100000000E-03 0.  1.
         11   -1    0    0    0    0 -0.00000000000E+00 -0.00000000000E+00 -0.45593999997E+02  0.45594000000E+02  0.51100000000E-03 0. -1.
    9900012    2    1    2    0    0 -0.12793653032E+02 -0.11011866329E+02  0.27051472508E+02  0.59301938425E+02  0.49999989782E+02 0.  0.
         12    1    1    2    0    0  0.12793653032E+02  0.11011866329E+02 -0.27051472508E+02  0.31886061575E+02  0.00000000000E+00 0. -1.
         11    1    3    3    0    0 -0.33776521277E+01 -0.13454037541E+02 -0.10993159024E+02  0.17699412579E+02  0.51100000000E-03 0. -1.
        -11    1    3    3    0    0 -0.13318693142E+01  0.58679254065E+01  0.64946928867E+01  0.88536693184E+01  0.51100000000E-03 0.  1.
         12    1    3    3    0    0 -0.80841315897E+01 -0.34257541941E+01  0.31549938645E+02  0.32748856527E+02  0.00000000000E+00 0. -1.
</event>
<event>
 7    1  0.7755875E-012  0.5930195E+02  0.7816164E-02  0.1266605E+00
        -11   -1    0    0    0    0  0.00000000000E+00  0.00000000000E+00  0.45593999997E+02  0.45594000000E+02  0.51100000000E-03 0.  1.
         11   -1    0    0    0    0 -0.00000000000E+00 -0.00000000000E+00 -0.45593999997E+02  0.45594000000E+02  0.51100000000E-03 0. -1.
    9900012    2    1    2    0    0  0.49484687092E+01  0.28149037100E+02  0.14137347295E+02  0.59301949433E+02  0.50000009859E+02 0.  0.
         12    1    1    2    0    0 -0.49484687092E+01 -0.28149037100E+02 -0.14137347295E+02  0.31886050567E+02  0.00000000000E+00 0. -1.
         11    1    3    3    0    0  0.58198658349E+01 -0.11271215987E+01  0.32414093574E+01  0.67563286124E+01  0.51100000000E-03 0. -1.
        -11    1    3    3    0    0  0.50877851735E+01  0.32933739602E+02 -0.63608925986E+01  0.33926062505E+02  0.51100000000E-03 0.  1.
        -12    1    3    3    0    0 -0.59591822993E+01 -0.36575809038E+01  0.17256830536E+02  0.18619558316E+02  0.00000000000E+00 0.  1.
</event>
<event>
 7    1  0.7755875E-012  0.5930189E+02  0.7816164E-02  0.1266605E+00
        -11   -1    0    0    0    0  0.00000000000E+00  0.00000000000E+00  0.45593999997E+02  0.45594000000E+02  0.51100000000E-03 0. -1.
         11   -1    0    0    0    0 -0.00000000000E+00 -0.00000000000E+00 -0.45593999997E+02  0.45594000000E+02  0.51100000000E-03 0.  1.
    9900012    2    1    2    0    0 -0.26530375533E+01  0.14911657493E+02 -0.28059360214E+02  0.59301892789E+02  0.49999906552E+02 0.  0.
         12    1    1    2    0    0  0.26530375533E+01 -0.14911657493E+02  0.28059360214E+02  0.31886107211E+02  0.00000000000E+00 0. -1.
         11    1    3    3    0    0 -0.58186595972E+01 -0.50163339071E+01  0.49270302082E+01  0.91266660019E+01  0.51100000000E-03 0. -1.
        -11    1    3    3    0    0  0.16138546673E+02  0.96560329296E+01 -0.26290420836E+02  0.32324570973E+02  0.51100000000E-03 0.  1.
        -12    1    3    3    0    0 -0.12972924629E+02  0.10271958471E+02 -0.66959695869E+01  0.17850655813E+02  0.00000000000E+00 0.  1.
</event>
<event>
 7    1  0.7755875E-012  0.5930198E+02  0.7816164E-02  0.1266605E+00
        -11   -1    0    0    0    0  0.00000000000E+00  0.00000000000E+00  0.45593999997E+02  0.45594000000E+02  0.51100000000E-03 0.  1.
         11   -1    0    0    0    0 -0.00000000000E+00 -0.00000000000E+00 -0.45593999997E+02  0.45594000000E+02  0.51100000000E-03 0. -1.
    9900012    2    1    2    0    0 -0.31050423361E+02 -0.19605313663E+01 -0.69818366207E+01  0.59301976153E+02  0.50000058589E+02 0.  0.
         12    1    1    2    0    0  0.31050423361E+02  0.19605313663E+01  0.69818366207E+01  0.31886023847E+02  0.00000000000E+00 0. -1.
         11    1    3    3    0    0  0.36753107852E+01 -0.79625214876E+01 -0.76628274858E+01  0.11645968536E+02  0.51100000000E-03 0. -1.
        -11    1    3    3    0    0 -0.28465517292E+02  0.17954086101E+02 -0.26492801535E+01  0.33758755428E+02  0.51100000000E-03 0.  1.
        -12    1    3    3    0    0 -0.62602168542E+01 -0.11952095979E+02  0.33302710186E+01  0.13897252189E+02  0.00000000000E+00 0.  1.
</event>
<event>
 7    1  0.7755875E-012  0.5930194E+02  0.7816164E-02  0.1266605E+00
        -11   -1    0    0    0    0  0.00000000000E+00  0.00000000000E+00  0.45593999997E+02  0.45594000000E+02  0.51100000000E-03 0.  1.
         11   -1    0    0    0    0 -0.00000000000E+00 -0.00000000000E+00 -0.45593999997E+02  0.45594000000E+02  0.51100000000E-03 0. -1.
    9900012    2    1    2    0    0  0.33136824796E+00  0.14530290138E+02  0.28381009030E+02  0.59301940194E+02  0.49999993008E+02 0.  0.
         12    1    1    2    0    0 -0.33136824796E+00 -0.14530290138E+02 -0.28381009030E+02  0.31886059806E+02  0.00000000000E+00 0. -1.
         11    1    3    3    0    0 -0.52786930649E+01 -0.12065227266E+02  0.10564783435E+02  0.16883392987E+02  0.51100000000E-03 0. -1.
        -11    1    3    3    0    0  0.73091580774E+01  0.90238341718E+01  0.21452855659E+02  0.24394228644E+02  0.51100000000E-03 0.  1.
         12    1    3    3    0    0 -0.16990967646E+01  0.17571683232E+02 -0.36366300639E+01  0.18024318563E+02  0.00000000000E+00 0. -1.
</event>
<event>
 7    1  0.7755875E-012  0.5930193E+02  0.7816164E-02  0.1266605E+00
        -11   -1    0    0    0    0  0.00000000000E+00  0.00000000000E+00  0.45593999997E+02  0.45594000000E+02  0.51100000000E-03 0. -1.
         11   -1    0    0    0    0 -0.00000000000E+00 -0.00000000000E+00 -0.45593999997E+02  0.45594000000E+02  0.51100000000E-03 0.  1.
    9900012    2    1    2    0    0 -0.23057402150E+02 -0.73135500435E+01 -0.20774728882E+02  0.59301934576E+02  0.49999982762E+02 0.  0.
         12    1    1    2    0    0  0.23057402150E+02  0.73135500435E+01  0.20774728882E+02  0.31886065424E+02  0.00000000000E+00 0. -1.
         11    1    3    3    0    0  0.77200832971E+01  0.13029299637E+02  0.19232305809E+01  0.15266340468E+02  0.51100000000E-03 0. -1.
        -11    1    3    3    0    0 -0.24716629171E+02 -0.19660498340E+02 -0.19867092708E+02  0.37311503929E+02  0.51100000000E-03 0.  1.
         12    1    3    3    0    0 -0.60608562757E+01 -0.68235134113E+00 -0.28308667550E+01  0.67240901787E+01  0.00000000000E+00 0. -1.
</event>
<event>
 7    1  0.7755875E-012  0.5930193E+02  0.7816164E-02  0.1266605E+00
        -11   -1    0    0    0    0  0.00000000000E+00  0.00000000000E+00  0.45593999997E+02  0.45594000000E+02  0.51100000000E-03 0. -1.
         11   -1    0    0    0    0 -0.00000000000E+00 -0.00000000000E+00 -0.45593999997E+02  0.45594000000E+02  0.51100000000E-03 0.  1.
    9900012    2    1    2    0    0  0.20108595151E+01  0.62477073050E+01 -0.31203266255E+02  0.59301933646E+02  0.49999981067E+02 0.  0.
         12    1    1    2    0    0 -0.20108595151E+01 -0.62477073050E+01  0.31203266255E+02  0.31886066354E+02  0.00000000000E+00 0. -1.
         11    1    3    3    0    0  0.69689401436E+01  0.24684985046E+02 -0.11301994879E+02  0.28029443483E+02  0.51100000000E-03 0. -1.
        -11    1    3    3    0    0  0.35495197080E+01 -0.47113832889E+01 -0.11829958270E+02  0.13219082252E+02  0.51100000000E-03 0.  1.
         12    1    3    3    0    0 -0.85076003365E+01 -0.13725894452E+02 -0.80713131052E+01  0.18053407912E+02  0.00000000000E+00 0. -1.
</event>
<event>
 7    1  0.7755875E-012  0.5930210E+02  0.7816164E-02  0.1266604E+00
        -11   -1    0    0    0    0  0.00000000000E+00  0.00000000000E+00  0.45593999997E+02  0.45594000000E+02  0.51100000000E-03 0. -1.
         11   -1    0    0    0    0 -0.00000000000E+00 -0.00000000000E+00 -0.45593999997E+02  0.45594000000E+02  0.51100000000E-03 0.  1.
    9900012    2    1    2    0    0 -0.13663093406E+02 -0.28793787369E+02  0.97376862227E+00  0.59302101271E+02  0.50000286772E+02 0.  0.
         12    1    1    2    0    0  0.13663093406E+02  0.28793787369E+02 -0.97376862227E+00  0.31885898729E+02  0.00000000000E+00 0. -1.
         11    1    3    3    0    0 -0.82913375982E+01 -0.78663087267E+01  0.37861762596E+01  0.12039942819E+02  0.51100000000E-03 0.  1.
        -11    1    3    3    0    0  0.14850001817E+02  0.16118474034E+00  0.70311235491E+01  0.16431227377E+02  0.51100000000E-03 0. -1.
        -12    1    3    3    0    0 -0.20221757625E+02 -0.21088663383E+02 -0.98435311865E+01  0.30830931074E+02  0.00000000000E+00 0.  1.
</event>
<event>
 7    1  0.7755875E-012  0.5930186E+02  0.7816164E-02  0.1266605E+00
        -11   -1    0    0    0    0  0.00000000000E+00  0.00000000000E+00  0.45593999997E+02  0.45594000000E+02  0.51100000000E-03 0.  1.
         11   -1    0    0    0    0 -0.00000000000E+00 -0.00000000000E+00 -0.45593999997E+02  0.45594000000E+02  0.51100000000E-03 0. -1.
    9900012    2    1    2    0    0 -0.15362708129E+02  0.26826924553E+02  0.78121073530E+01  0.59301863462E+02  0.49999853067E+02 0.  0.
         12    1    1    2    0    0  0.15362708129E+02 -0.26826924553E+02 -0.78121073530E+01  0.31886136538E+02  0.00000000000E+00 0. -1.
         11    1    3    3    0    0 -0.45901541136E+01  0.10207194638E+02 -0.56723827809E+01  0.12547201435E+02  0.51100000000E-03 0. -1.
        -11    1    3    3    0    0 -0.12844443548E+02 -0.97708745220E+01  0.12237413229E+02  0.20253493570E+02  0.51100000000E-03 0.  1.
        -12    1    3    3    0    0  0.20718895333E+01  0.26390604437E+02  0.12470769053E+01  0.26501168457E+02  0.00000000000E+00 0.  1.
</event>
<event>
 7    1  0.7755875E-012  0.5930194E+02  0.7816164E-02  0.1266605E+00
        -11   -1    0    0    0    0  0.00000000000E+00  0.00000000000E+00  0.45593999997E+02  0.45594000000E+02  0.51100000000E-03 0.  1.
         11   -1    0    0    0    0 -0.00000000000E+00 -0.00000000000E+00 -0.45593999997E+02  0.45594000000E+02  0.51100000000E-03 0. -1.
    9900012    2    1    2    0    0  0.79755045362E+01  0.20247142596E+02  0.23305911007E+02  0.59301938096E+02  0.49999989181E+02 0.  0.
         12    1    1    2    0    0 -0.79755045362E+01 -0.20247142596E+02 -0.23305911007E+02  0.31886061904E+02  0.00000000000E+00 0. -1.
         11    1    3    3    0    0 -0.73076184666E+01  0.14193951847E+02 -0.22198146703E+01  0.16118223665E+02  0.51100000000E-03 0. -1.
        -11    1    3    3    0    0 -0.30958783036E+00  0.17792605464E+01  0.26897241302E+02  0.26957804113E+02  0.51100000000E-03 0.  1.
        -12    1    3    3    0    0  0.15592710833E+02  0.42739302021E+01 -0.13715156242E+01  0.16225910317E+02  0.00000000000E+00 0.  1.
</event>
<event>
 7    1  0.7755875E-012  0.5930202E+02  0.7816164E-02  0.1266604E+00
        -11   -1    0    0    0    0  0.00000000000E+00  0.00000000000E+00  0.45593999997E+02  0.45594000000E+02  0.51100000000E-03 0.  1.
         11   -1    0    0    0    0 -0.00000000000E+00 -0.00000000000E+00 -0.45593999997E+02  0.45594000000E+02  0.51100000000E-03 0. -1.
    9900012    2    1    2    0    0  0.17055631573E+02 -0.83172257139E+01  0.25625080531E+02  0.59302022452E+02  0.50000143028E+02 0.  0.
         12    1    1    2    0    0 -0.17055631573E+02  0.83172257139E+01 -0.25625080531E+02  0.31885977548E+02  0.00000000000E+00 0. -1.
         11    1    3    3    0    0 -0.22021995475E+01  0.11076690788E+02 -0.74720936271E+01  0.13541600537E+02  0.51100000000E-03 0. -1.
        -11    1    3    3    0    0  0.93729537668E+01 -0.15136481081E+02  0.29418733486E+02  0.34386439217E+02  0.51100000000E-03 0.  1.
         12    1    3    3    0    0  0.98848773534E+01 -0.42574354206E+01  0.36784406722E+01  0.11373982699E+02  0.00000000000E+00 0. -1.
</event>
<event>
 7    1  0.7755875E-012  0.5930190E+02  0.7816164E-02  0.1266605E+00
        -11   -1    0    0    0    0  0.00000000000E+00  0.00000000000E+00  0.45593999997E+02  0.45594000000E+02  0.51100000000E-03 0.  1.
         11   -1    0    0    0    0 -0.00000000000E+00 -0.00000000000E+00 -0.45593999997E+02  0.45594000000E+02  0.51100000000E-03 0. -1.
    9900012    2    1    2    0    0  0.33342454701E+01 -0.42764363707E+01  0.31421622858E+02  0.59301898264E+02  0.49999916538E+02 0.  0.
         12    1    1    2    0    0 -0.33342454701E+01  0.42764363707E+01 -0.31421622858E+02  0.31886101736E+02  0.00000000000E+00 0. -1.
         11    1    3    3    0    0 -0.24982556687E+01 -0.81810892883E+01 -0.88842603231E+01  0.12332947137E+02  0.51100000000E-03 0. -1.
        -11    1    3    3    0    0  0.30153053949E+00  0.39305854816E+01  0.41180881318E+02  0.41369135951E+02  0.51100000000E-03 0.  1.
        -12    1    3    3    0    0  0.55309705994E+01 -0.25932564091E-01 -0.87499813736E+00  0.55998151763E+01  0.00000000000E+00 0.  1.
</event>
<event>
 7    1  0.7755875E-012  0.5930194E+02  0.7816164E-02  0.1266605E+00
        -11   -1    0    0    0    0  0.00000000000E+00  0.00000000000E+00  0.45593999997E+02  0.45594000000E+02  0.51100000000E-03 0. -1.
         11   -1    0    0    0    0 -0.00000000000E+00 -0.00000000000E+00 -0.45593999997E+02  0.45594000000E+02  0.51100000000E-03 0.  1.
    9900012    2    1    2    0    0  0.30010117880E+02  0.25905176476E+01 -0.10459580482E+02  0.59301940652E+02  0.49999993844E+02 0.  0.
         12    1    1    2    0    0 -0.30010117880E+02 -0.25905176476E+01  0.10459580482E+02  0.31886059348E+02  0.00000000000E+00 0. -1.
         11    1    3    3    0    0  0.17263443633E+02  0.36872378526E+01  0.64154899422E+01  0.18782457787E+02  0.51100000000E-03 0. -1.
        -11    1    3    3    0    0 -0.10117488408E+02 -0.39283695661E+01 -0.13361753228E+02  0.17214299542E+02  0.51100000000E-03 0.  1.
        -12    1    3    3    0    0  0.22864162655E+02  0.28316493612E+01 -0.35133171962E+01  0.23305183324E+02  0.00000000000E+00 0.  1.
</event>
<event>
 7    1  0.7755875E-012  0.5930158E+02  0.7816164E-02  0.1266606E+00
        -11   -1    0    0    0    0  0.00000000000E+00  0.00000000000E+00  0.45593999997E+02  0.45594000000E+02  0.51100000000E-03 0.  1.
         11   -1    0    0    0    0 -0.00000000000E+00 -0.00000000000E+00 -0.45593999997E+02  0.45594000000E+02  0.51100000000E-03 0. -1.
    9900012    2    1    2    0    0 -0.18163784114E+01  0.90431503866E+01  0.30523207787E+02  0.59301576352E+02  0.49999329444E+02 0.  0.
         12    1    1    2    0    0  0.18163784114E+01 -0.90431503866E+01 -0.30523207787E+02  0.31886423648E+02  0.00000000000E+00 0. -1.
         11    1    3    3    0    0 -0.92959924994E+01 -0.12260277089E+01 -0.21592318232E+01  0.96218970489E+01  0.51100000000E-03 0. -1.
        -11    1    3    3    0    0  0.20114246506E+02  0.13651908568E+02  0.20353007141E+02  0.31704927378E+02  0.51100000000E-03 0.  1.
        -12    1    3    3    0    0 -0.12634632418E+02 -0.33827304729E+01  0.12329432469E+02  0.17974751926E+02  0.00000000000E+00 0.  1.
</event>
<event>
 7    1  0.7755875E-012  0.5930192E+02  0.7816164E-02  0.1266605E+00
        -11   -1    0    0    0    0  0.00000000000E+00  0.00000000000E+00  0.45593999997E+02  0.45594000000E+02  0.51100000000E-03 0.  1.
         11   -1    0    0    0    0 -0.00000000000E+00 -0.00000000000E+00 -0.45593999997E+02  0.45594000000E+02  0.51100000000E-03 0. -1.
    9900012    2    1    2    0    0 -0.24842505986E+02  0.23425468720E+01  0.19851554277E+02  0.59301924093E+02  0.49999963645E+02 0.  0.
         12    1    1    2    0    0  0.24842505986E+02 -0.23425468720E+01 -0.19851554277E+02  0.31886075907E+02  0.00000000000E+00 0. -1.
         11    1    3    3    0    0 -0.18271753686E+02 -0.18361730623E+02 -0.38416847887E+01  0.26187185349E+02  0.51100000000E-03 0. -1.
        -11    1    3    3    0    0 -0.35413233270E+01  0.14361934755E+02  0.20777829022E+02  0.25505378255E+02  0.51100000000E-03 0.  1.
         12    1    3    3    0    0 -0.30294289727E+01  0.63423427396E+01  0.29154100438E+01  0.76093604889E+01  0.00000000000E+00 0. -1.
</event>
<event>
 7    1  0.7755875E-012  0.5930197E+02  0.7816164E-02  0.1266605E+00
        -11   -1    0    0    0    0  0.00000000000E+00  0.00000000000E+00  0.45593999997E+02  0.45594000000E+02  0.51100000000E-03 0.  1.
         11   -1    0    0    0    0 -0.00000000000E+00 -0.00000000000E+00 -0.45593999997E+02  0.45594000000E+02  0.51100000000E-03 0. -1.
    9900012    2    1    2    0    0 -0.22567262461E+02  0.11283237166E+02  0.19496818767E+02  0.59301972999E+02  0.50000052836E+02 0.  0.
         12    1    1    2    0    0  0.22567262461E+02 -0.11283237166E+02 -0.19496818767E+02  0.31886027001E+02  0.00000000000E+00 0. -1.
         11    1    3    3    0    0  0.22791260268E+01  0.66752878838E+01 -0.41989234227E+01  0.82088270751E+01  0.51100000000E-03 0. -1.
        -11    1    3    3    0    0 -0.24843829541E+02  0.38949091685E+01  0.33151694385E+02  0.41610347566E+02  0.51100000000E-03 0.  1.
        -12    1    3    3    0    0 -0.25589468931E-02  0.71304011330E+00 -0.94559521960E+01  0.94827983573E+01  0.00000000000E+00 0.  1.
</event>
<event>
 7    1  0.7755875E-012  0.5930199E+02  0.7816164E-02  0.1266605E+00
        -11   -1    0    0    0    0  0.00000000000E+00  0.00000000000E+00  0.45593999997E+02  0.45594000000E+02  0.51100000000E-03 0.  1.
         11   -1    0    0    0    0 -0.00000000000E+00 -0.00000000000E+00 -0.45593999997E+02  0.45594000000E+02  0.51100000000E-03 0. -1.
    9900012    2    1    2    0    0  0.85918344861E+01 -0.25874048457E+02  0.16535775378E+02  0.59301986283E+02  0.50000077064E+02 0.  0.
         12    1    1    2    0    0 -0.85918344861E+01  0.25874048457E+02 -0.16535775378E+02  0.31886013717E+02  0.00000000000E+00 0. -1.
         11    1    3    3    0    0  0.11587548195E+01 -0.21729137543E+02 -0.43748896780E+01  0.22195445278E+02  0.51100000000E-03 0. -1.
        -11    1    3    3    0    0  0.94215564110E+01  0.11489187592E+02  0.92588825494E+01  0.17506971841E+02  0.51100000000E-03 0.  1.
        -12    1    3    3    0    0 -0.19884767443E+01 -0.15634098506E+02  0.11651782507E+02  0.19599569164E+02  0.00000000000E+00 0.  1.
</event>
<event>
 7    1  0.7755875E-012  0.5930196E+02  0.7816164E-02  0.1266605E+00
        -11   -1    0    0    0    0  0.00000000000E+00  0.00000000000E+00  0.45593999997E+02  0.45594000000E+02  0.51100000000E-03 0. -1.
         11   -1    0    0    0    0 -0.00000000000E+00 -0.00000000000E+00 -0.45593999997E+02  0.45594000000E+02  0.51100000000E-03 0.  1.
    9900012    2    1    2    0    0  0.29740809122E+02  0.87502224739E+01  0.74590665227E+01  0.59301956125E+02  0.50000022063E+02 0.  0.
         12    1    1    2    0    0 -0.29740809122E+02 -0.87502224739E+01 -0.74590665227E+01  0.31886043875E+02  0.00000000000E+00 0. -1.
         11    1    3    3    0    0 -0.77798690588E+01  0.97895988898E+01 -0.41321955687E+00  0.12511329252E+02  0.51100000000E-03 0. -1.
        -11    1    3    3    0    0  0.26387696336E+02  0.11011678873E+02 -0.28349025479E-03  0.28593138860E+02  0.51100000000E-03 0.  1.
         12    1    3    3    0    0  0.11132981845E+02 -0.12051055289E+02  0.78725695698E+01  0.18197488013E+02  0.00000000000E+00 0. -1.
</event>
<event>
 7    1  0.7755875E-012  0.5930210E+02  0.7816164E-02  0.1266604E+00
        -11   -1    0    0    0    0  0.00000000000E+00  0.00000000000E+00  0.45593999997E+02  0.45594000000E+02  0.51100000000E-03 0.  1.
         11   -1    0    0    0    0 -0.00000000000E+00 -0.00000000000E+00 -0.45593999997E+02  0.45594000000E+02  0.51100000000E-03 0. -1.
    9900012    2    1    2    0    0  0.20695489893E+01 -0.29930998452E+02 -0.10796417772E+02  0.59302104402E+02  0.50000292484E+02 0.  0.
         12    1    1    2    0    0 -0.20695489893E+01  0.29930998452E+02  0.10796417772E+02  0.31885895598E+02  0.00000000000E+00 0. -1.
         11    1    3    3    0    0 -0.28668699404E+01 -0.24766877062E+02 -0.87608271500E+01  0.26426676584E+02  0.51100000000E-03 0. -1.
        -11    1    3    3    0    0  0.67396763467E+01  0.12946287346E+02 -0.38249588069E+00  0.14600544396E+02  0.51100000000E-03 0.  1.
        -12    1    3    3    0    0 -0.18032574170E+01 -0.18110408736E+02 -0.16530947418E+01  0.18274883423E+02  0.00000000000E+00 0.  1.
</event>
<event>
 7    1  0.7755875E-012  0.5930192E+02  0.7816164E-02  0.1266605E+00
        -11   -1    0    0    0    0  0.00000000000E+00  0.00000000000E+00  0.45593999997E+02  0.45594000000E+02  0.51100000000E-03 0.  1.
         11   -1    0    0    0    0 -0.00000000000E+00 -0.00000000000E+00 -0.45593999997E+02  0.45594000000E+02  0.51100000000E-03 0. -1.
    9900012    2    1    2    0    0 -0.30419686637E+02 -0.19211531455E+01  0.93634469461E+01  0.59301916778E+02  0.49999950304E+02 0.  0.
         12    1    1    2    0    0  0.30419686637E+02  0.19211531455E+01 -0.93634469461E+01  0.31886083222E+02  0.00000000000E+00 0. -1.
         11    1    3    3    0    0  0.92613693168E+01 -0.10760452979E+02  0.11284698473E+01  0.14241971577E+02  0.51100000000E-03 0. -1.
        -11    1    3    3    0    0 -0.16760929942E+02 -0.47882956464E+01  0.11500804656E+01  0.17469379870E+02  0.51100000000E-03 0.  1.
         12    1    3    3    0    0 -0.22920126012E+02  0.13627595480E+02  0.70848966333E+01  0.27590565331E+02  0.00000000000E+00 0. -1.
</event>
<event>
 7    1  0.7755875E-012  0.5930201E+02  0.7816164E-02  0.1266605E+00
        -11   -1    0    0    0    0  0.00000000000E+00  0.00000000000E+00  0.45593999997E+02  0.45594000000E+02  0.51100000000E-03 0.  1.
         11   -1    0    0    0    0 -0.00000000000E+00 -0.00000000000E+00 -0.45593999997E+02  0.45594000000E+02  0.51100000000E-03 0. -1.
    9900012    2    1    2    0    0  0.80217922818E+01  0.13406929702E+02  0.27796072975E+02  0.59302006394E+02  0.50000113740E+02 0.  0.
         12    1    1    2    0    0 -0.80217922818E+01 -0.13406929702E+02 -0.27796072975E+02  0.31885993606E+02  0.00000000000E+00 0. -1.
         11    1    3    3    0    0 -0.44455555350E+00 -0.11859966354E+02  0.15413037300E+02  0.19452972797E+02  0.51100000000E-03 0. -1.
        -11    1    3    3    0    0  0.14352080056E+01  0.26351436166E+02  0.97996735769E+00  0.26408679375E+02  0.51100000000E-03 0.  1.
        -12    1    3    3    0    0  0.70311398297E+01 -0.10845401111E+01  0.11403068317E+02  0.13440354222E+02  0.00000000000E+00 0.  1.
</event>
<event>
 7    1  0.7755875E-012  0.5930195E+02  0.7816164E-02  0.1266605E+00
        -11   -1    0    0    0    0  0.00000000000E+00  0.00000000000E+00  0.45593999997E+02  0.45594000000E+02  0.51100000000E-03 0. -1.
         11   -1    0    0    0    0 -0.00000000000E+00 -0.00000000000E+00 -0.45593999997E+02  0.45594000000E+02  0.51100000000E-03 0.  1.
    9900012    2    1    2    0    0  0.14764732067E+02 -0.15513548832E+02 -0.23623142583E+02  0.59301947001E+02  0.50000005422E+02 0.  0.
         12    1    1    2    0    0 -0.14764732067E+02  0.15513548832E+02  0.23623142583E+02  0.31886052999E+02  0.00000000000E+00 0. -1.
         11    1    3    3    0    0 -0.91221661632E+01 -0.76678038401E+01 -0.41023817309E+01  0.12603121334E+02  0.51100000000E-03 0. -1.
        -11    1    3    3    0    0  0.30305077114E+02  0.12232895979E+01 -0.96247677833E+01  0.31820281134E+02  0.51100000000E-03 0.  1.
        -12    1    3    3    0    0 -0.64181788841E+01 -0.90690345896E+01 -0.98959930688E+01  0.14878544532E+02  0.00000000000E+00 0.  1.
</event>
<event>
 7    1  0.7755875E-012  0.5930193E+02  0.7816164E-02  0.1266605E+00
        -11   -1    0    0    0    0  0.00000000000E+00  0.00000000000E+00  0.45593999997E+02  0.45594000000E+02  0.51100000000E-03 0.  1.
         11   -1    0    0    0    0 -0.00000000000E+00 -0.00000000000E+00 -0.45593999997E+02  0.45594000000E+02  0.51100000000E-03 0. -1.
    9900012    2    1    2    0    0 -0.70367728633E+01 -0.18299907405E+02  0.25145952927E+02  0.59301925736E+02  0.49999966641E+02 0.  0.
         12    1    1    2    0    0  0.70367728633E+01  0.18299907405E+02 -0.25145952927E+02  0.31886074264E+02  0.00000000000E+00 0. -1.
         11    1    3    3    0    0  0.67874537534E+01 -0.63404502610E+01 -0.97638795098E+01  0.13476059562E+02  0.51100000000E-03 0. -1.
        -11    1    3    3    0    0 -0.18161009155E+02 -0.14372157720E+01  0.19745136316E+02  0.26865558827E+02  0.51100000000E-03 0.  1.
        -12    1    3    3    0    0  0.43367825381E+01 -0.10522241372E+02  0.15164696121E+02  0.18960307348E+02  0.00000000000E+00 0.  1.
</event>
<event>
 7    1  0.7755875E-012  0.5930193E+02  0.7816164E-02  0.1266605E+00
        -11   -1    0    0    0    0  0.00000000000E+00  0.00000000000E+00  0.45593999997E+02  0.45594000000E+02  0.51100000000E-03 0. -1.
         11   -1    0    0    0    0 -0.00000000000E+00 -0.00000000000E+00 -0.45593999997E+02  0.45594000000E+02  0.51100000000E-03 0.  1.
    9900012    2    1    2    0    0 -0.50914401487E+01  0.97615767335E+01 -0.29925076787E+02  0.59301931509E+02  0.49999977169E+02 0.  0.
         12    1    1    2    0    0  0.50914401487E+01 -0.97615767335E+01  0.29925076787E+02  0.31886068491E+02  0.00000000000E+00 0. -1.
         11    1    3    3    0    0 -0.86455134456E+01 -0.41480951480E+01  0.85562527028E+01  0.12851500172E+02  0.51100000000E-03 0. -1.
        -11    1    3    3    0    0  0.46956673305E+01  0.16994650852E+02 -0.16252039288E+02  0.23979079018E+02  0.51100000000E-03 0.  1.
        -12    1    3    3    0    0 -0.11415940337E+01 -0.30849789703E+01 -0.22229290201E+02  0.22471352319E+02  0.00000000000E+00 0.  1.
</event>
<event>
 7    1  0.7755875E-012  0.5930194E+02  0.7816164E-02  0.1266605E+00
        -11   -1    0    0    0    0  0.00000000000E+00  0.00000000000E+00  0.45593999997E+02  0.45594000000E+02  0.51100000000E-03 0. -1.
         11   -1    0    0    0    0 -0.00000000000E+00 -0.00000000000E+00 -0.45593999997E+02  0.45594000000E+02  0.51100000000E-03 0.  1.
    9900012    2    1    2    0    0 -0.21193799889E+02 -0.23375091399E+02  0.45987990403E+01  0.59301937147E+02  0.49999987451E+02 0.  0.
         12    1    1    2    0    0  0.21193799889E+02  0.23375091399E+02 -0.45987990403E+01  0.31886062853E+02  0.00000000000E+00 0. -1.
         11    1    3    3    0    0 -0.22291671623E+02 -0.11129649034E+01  0.20291382919E+02  0.30164507880E+02  0.51100000000E-03 0. -1.
        -11    1    3    3    0    0  0.23742918627E+01 -0.22921977640E+02 -0.14214034026E+02  0.27075691761E+02  0.51100000000E-03 0.  1.
        -12    1    3    3    0    0 -0.12764201291E+01  0.65985114386E+00 -0.14785498526E+01  0.20617375063E+01  0.00000000000E+00 0.  1.
</event>
<event>
 7    1  0.7755875E-012  0.5930194E+02  0.7816164E-02  0.1266605E+00
        -11   -1    0    0    0    0  0.00000000000E+00  0.00000000000E+00  0.45593999997E+02  0.45594000000E+02  0.51100000000E-03 0.  1.
         11   -1    0    0    0    0 -0.00000000000E+00 -0.00000000000E+00 -0.45593999997E+02  0.45594000000E+02  0.51100000000E-03 0. -1.
    9900012    2    1    2    0    0  0.54942448047E+01  0.13014471667E+02  0.28585969350E+02  0.59301939685E+02  0.49999992080E+02 0.  0.
         12    1    1    2    0    0 -0.54942448047E+01 -0.13014471667E+02 -0.28585969350E+02  0.31886060315E+02  0.00000000000E+00 0. -1.
         11    1    3    3    0    0 -0.95720223607E+01  0.17663532734E+01 -0.25642524433E+01  0.10065734291E+02  0.51100000000E-03 0. -1.
        -11    1    3    3    0    0  0.19029196455E+02  0.19305281409E+02  0.29577976028E+02  0.40120579185E+02  0.51100000000E-03 0.  1.
        -12    1    3    3    0    0 -0.39629292898E+01 -0.80571630162E+01  0.15722457659E+01  0.91156262085E+01  0.00000000000E+00 0.  1.
</event>
<event>
 7    1  0.7755875E-012  0.5930195E+02  0.7816164E-02  0.1266605E+00
        -11   -1    0    0    0    0  0.00000000000E+00  0.00000000000E+00  0.45593999997E+02  0.45594000000E+02  0.51100000000E-03 0. -1.
         11   -1    0    0    0    0 -0.00000000000E+00 -0.00000000000E+00 -0.45593999997E+02  0.45594000000E+02  0.51100000000E-03 0.  1.
    9900012    2    1    2    0    0 -0.96323109417E+01 -0.29865352707E+02 -0.56568170175E+01  0.59301948423E+02  0.50000008016E+02 0.  0.
         12    1    1    2    0    0  0.96323109417E+01  0.29865352707E+02  0.56568170175E+01  0.31886051577E+02  0.00000000000E+00 0. -1.
         11    1    3    3    0    0 -0.33504113089E+01 -0.14691653866E+02  0.14752819278E+02  0.21088281726E+02  0.51100000000E-03 0. -1.
        -11    1    3    3    0    0 -0.10945686415E+02 -0.16719556353E+02 -0.24643510647E+02  0.31727814816E+02  0.51100000000E-03 0.  1.
         12    1    3    3    0    0  0.46637867817E+01  0.15458575125E+01  0.42338743516E+01  0.64858518808E+01  0.00000000000E+00 0. -1.
</event>
<event>
 7    1  0.7755875E-012  0.5930195E+02  0.7816164E-02  0.1266605E+00
        -11   -1    0    0    0    0  0.00000000000E+00  0.00000000000E+00  0.45593999997E+02  0.45594000000E+02  0.51100000000E-03 0.  1.
         11   -1    0    0    0    0 -0.00000000000E+00 -0.00000000000E+00 -0.45593999997E+02  0.45594000000E+02  0.51100000000E-03 0. -1.
    9900012    2    1    2    0    0 -0.12931688774E+02  0.15454119189E+02  0.24711570555E+02  0.59301951425E+02  0.50000013491E+02 0.  0.
         12    1    1    2    0    0  0.12931688774E+02 -0.15454119189E+02 -0.24711570555E+02  0.31886048575E+02  0.00000000000E+00 0. -1.
         11    1    3    3    0    0  0.12222928464E+02  0.66936033342E+01 -0.61429785013E+01  0.15229592607E+02  0.51100000000E-03 0. -1.
        -11    1    3    3    0    0 -0.13435199629E+02  0.11682210811E+02  0.11296024086E+02  0.21085037323E+02  0.51100000000E-03 0.  1.
         12    1    3    3    0    0 -0.11719417609E+02 -0.29216949559E+01  0.19558524970E+02  0.22987321495E+02  0.00000000000E+00 0. -1.
</event>
<event>
 7    1  0.7755875E-012  0.5930194E+02  0.7816164E-02  0.1266605E+00
        -11   -1    0    0    0    0  0.00000000000E+00  0.00000000000E+00  0.45593999997E+02  0.45594000000E+02  0.51100000000E-03 0.  1.
         11   -1    0    0    0    0 -0.00000000000E+00 -0.00000000000E+00 -0.45593999997E+02  0.45594000000E+02  0.51100000000E-03 0. -1.
    9900012    2    1    2    0    0  0.30929542062E+02 -0.63128537153E+01 -0.44980405187E+01  0.59301936230E+02  0.49999985780E+02 0.  0.
         12    1    1    2    0    0 -0.30929542062E+02  0.63128537153E+01  0.44980405187E+01  0.31886063770E+02  0.00000000000E+00 0. -1.
         11    1    3    3    0    0 -0.21026583362E+01 -0.14020086840E+02  0.25615966302E+01  0.14406449411E+02  0.51100000000E-03 0. -1.
        -11    1    3    3    0    0  0.30102901775E+02  0.12879758088E+02  0.33445289604E+01  0.32912896225E+02  0.51100000000E-03 0.  1.
        -12    1    3    3    0    0  0.29292986238E+01 -0.51725249638E+01 -0.10404166109E+02  0.11982590595E+02  0.00000000000E+00 0.  1.
</event>
<event>
 7    1  0.7755875E-012  0.5930196E+02  0.7816164E-02  0.1266605E+00
        -11   -1    0    0    0    0  0.00000000000E+00  0.00000000000E+00  0.45593999997E+02  0.45594000000E+02  0.51100000000E-03 0.  1.
         11   -1    0    0    0    0 -0.00000000000E+00 -0.00000000000E+00 -0.45593999997E+02  0.45594000000E+02  0.51100000000E-03 0. -1.
    9900012    2    1    2    0    0 -0.14692992066E+02 -0.87200307800E+01  0.26922043200E+02  0.59301962888E+02  0.50000034397E+02 0.  0.
         12    1    1    2    0    0  0.14692992066E+02  0.87200307800E+01 -0.26922043200E+02  0.31886037112E+02  0.00000000000E+00 0. -1.
         11    1    3    3    0    0  0.87365226976E+01 -0.10489959260E+01  0.42344955750E+01  0.97651510145E+01  0.51100000000E-03 0. -1.
        -11    1    3    3    0    0 -0.17985975335E+02 -0.10277770412E+02 -0.49080632232E+01  0.21288892838E+02  0.51100000000E-03 0.  1.
        -12    1    3    3    0    0 -0.54435394287E+01  0.26067355581E+01  0.27595610848E+02  0.28247919036E+02  0.00000000000E+00 0.  1.
</event>
<event>
 7    1  0.7755875E-012  0.5930195E+02  0.7816164E-02  0.1266605E+00
        -11   -1    0    0    0    0  0.00000000000E+00  0.00000000000E+00  0.45593999997E+02  0.45594000000E+02  0.51100000000E-03 0.  1.
         11   -1    0    0    0    0 -0.00000000000E+00 -0.00000000000E+00 -0.45593999997E+02  0.45594000000E+02  0.51100000000E-03 0. -1.
    9900012    2    1    2    0    0  0.98180807308E+01  0.62783609747E+01  0.29680091106E+02  0.59301947660E+02  0.50000006624E+02 0.  0.
         12    1    1    2    0    0 -0.98180807308E+01 -0.62783609747E+01 -0.29680091106E+02  0.31886052340E+02  0.00000000000E+00 0. -1.
         11    1    3    3    0    0  0.14729542202E+02 -0.20211951188E+01  0.14506953982E+01  0.14938177954E+02  0.51100000000E-03 0. -1.
        -11    1    3    3    0    0 -0.61178021965E+01  0.15976480961E+02  0.31568160602E+02  0.35905768501E+02  0.51100000000E-03 0.  1.
        -12    1    3    3    0    0  0.12063407255E+01 -0.76769248672E+01 -0.33387648938E+01  0.84580012046E+01  0.00000000000E+00 0.  1.
</event>
<event>
 7    1  0.7755875E-012  0.5930191E+02  0.7816164E-02  0.1266605E+00
        -11   -1    0    0    0    0  0.00000000000E+00  0.00000000000E+00  0.45593999997E+02  0.45594000000E+02  0.51100000000E-03 0.  1.
         11   -1    0    0    0    0 -0.00000000000E+00 -0.00000000000E+00 -0.45593999997E+02  0.45594000000E+02  0.51100000000E-03 0. -1.
    9900012    2    1    2    0    0 -0.18714409564E+02  0.21773971361E+02  0.13870387875E+02  0.59301911906E+02  0.49999941417E+02 0.  0.
         12    1    1    2    0    0  0.18714409564E+02 -0.21773971361E+02 -0.13870387875E+02  0.31886088094E+02  0.00000000000E+00 0. -1.
         11    1    3    3    0    0 -0.71618365851E+01  0.20794674590E+02 -0.14198553180E+02  0.26178413001E+02  0.51100000000E-03 0. -1.
        -11    1    3    3    0    0 -0.10318601692E+02 -0.24856466737E+01  0.96628014535E+01  0.14353456464E+02  0.51100000000E-03 0.  1.
         12    1    3    3    0    0 -0.12339712873E+01  0.34649434443E+01  0.18406139601E+02  0.18770042441E+02  0.00000000000E+00 0. -1.
</event>
<event>
 7    1  0.7755875E-012  0.5930187E+02  0.7816164E-02  0.1266605E+00
        -11   -1    0    0    0    0  0.00000000000E+00  0.00000000000E+00  0.45593999997E+02  0.45594000000E+02  0.51100000000E-03 0.  1.
         11   -1    0    0    0    0 -0.00000000000E+00 -0.00000000000E+00 -0.45593999997E+02  0.45594000000E+02  0.51100000000E-03 0. -1.
    9900012    2    1    2    0    0  0.53037545458E+01  0.20425443946E+02  0.23903907903E+02  0.59301868443E+02  0.49999862151E+02 0.  0.
         12    1    1    2    0    0 -0.53037545458E+01 -0.20425443946E+02 -0.23903907903E+02  0.31886131557E+02  0.00000000000E+00 0. -1.
         11    1    3    3    0    0  0.87924672497E+01  0.24303497790E+02  0.11185533089E+02  0.28161740640E+02  0.51100000000E-03 0. -1.
        -11    1    3    3    0    0 -0.13189577703E+02 -0.88955697296E+00  0.15734560084E+02  0.20550733634E+02  0.51100000000E-03 0.  1.
        -12    1    3    3    0    0  0.97008649990E+01 -0.29884968706E+01 -0.30161852702E+01  0.10589394169E+02  0.00000000000E+00 0.  1.
</event>
<event>
 7    1  0.7755875E-012  0.5930197E+02  0.7816164E-02  0.1266605E+00
        -11   -1    0    0    0    0  0.00000000000E+00  0.00000000000E+00  0.45593999997E+02  0.45594000000E+02  0.51100000000E-03 0. -1.
         11   -1    0    0    0    0 -0.00000000000E+00 -0.00000000000E+00 -0.45593999997E+02  0.45594000000E+02  0.51100000000E-03 0.  1.
    9900012    2    1    2    0    0  0.13484122319E+02  0.28574292618E+02 -0.42903457505E+01  0.59301971399E+02  0.50000049918E+02 0.  0.
         12    1    1    2    0    0 -0.13484122319E+02 -0.28574292618E+02  0.42903457505E+01  0.31886028601E+02  0.00000000000E+00 0. -1.
         11    1    3    3    0    0  0.11968823135E+02  0.10516301955E+02 -0.23453660940E+02  0.28353475021E+02  0.51100000000E-03 0. -1.
        -11    1    3    3    0    0 -0.55631761626E+01  0.97666255726E+01  0.33261101008E+01  0.11721728232E+02  0.51100000000E-03 0.  1.
         12    1    3    3    0    0  0.70784753461E+01  0.82913650902E+01  0.15837205088E+02  0.19226768145E+02  0.00000000000E+00 0. -1.
</event>
<event>
 7    1  0.7755875E-012  0.5930195E+02  0.7816164E-02  0.1266605E+00
        -11   -1    0    0    0    0  0.00000000000E+00  0.00000000000E+00  0.45593999997E+02  0.45594000000E+02  0.51100000000E-03 0. -1.
         11   -1    0    0    0    0 -0.00000000000E+00 -0.00000000000E+00 -0.45593999997E+02  0.45594000000E+02  0.51100000000E-03 0.  1.
    9900012    2    1    2    0    0 -0.56608081342E+01  0.16977591738E+02 -0.26390085693E+02  0.59301953007E+02  0.50000016375E+02 0.  0.
         12    1    1    2    0    0  0.56608081342E+01 -0.16977591738E+02  0.26390085693E+02  0.31886046993E+02  0.00000000000E+00 0. -1.
         11    1    3    3    0    0 -0.17557970613E+02 -0.26797027712E+01 -0.54045518196E+01  0.18565352666E+02  0.51100000000E-03 0. -1.
        -11    1    3    3    0    0  0.77681439184E+01  0.25557589378E+02 -0.20204892937E+02  0.33492866906E+02  0.51100000000E-03 0.  1.
        -12    1    3    3    0    0  0.41290185600E+01 -0.59002948684E+01 -0.78064093717E+00  0.72437334348E+01  0.00000000000E+00 0.  1.
</event>
<event>
 7    1  0.7755875E-012  0.5930190E+02  0.7816164E-02  0.1266605E+00
        -11   -1    0    0    0    0  0.00000000000E+00  0.00000000000E+00  0.45593999997E+02  0.45594000000E+02  0.51100000000E-03 0.  1.
         11   -1    0    0    0    0 -0.00000000000E+00 -0.00000000000E+00 -0.45593999997E+02  0.45594000000E+02  0.51100000000E-03 0. -1.
    9900012    2    1    2    0    0  0.28713081402E+02 -0.10014222563E+02  0.95915523512E+01  0.59301896857E+02  0.49999913972E+02 0.  0.
         12    1    1    2    0    0 -0.28713081402E+02  0.10014222563E+02 -0.95915523512E+01  0.31886103143E+02  0.00000000000E+00 0. -1.
         11    1    3    3    0    0  0.31473082976E+02  0.45318680278E+00 -0.11797653603E+02  0.33614653963E+02  0.51100000000E-03 0. -1.
        -11    1    3    3    0    0 -0.28193445832E+00 -0.38847046691E+01  0.16900031824E+02  0.17343053172E+02  0.51100000000E-03 0.  1.
         12    1    3    3    0    0 -0.24780671159E+01 -0.65827046965E+01  0.44891741300E+01  0.83441897223E+01  0.00000000000E+00 0. -1.
</event>
<event>
 7    1  0.7755875E-012  0.5930194E+02  0.7816164E-02  0.1266605E+00
        -11   -1    0    0    0    0  0.00000000000E+00  0.00000000000E+00  0.45593999997E+02  0.45594000000E+02  0.51100000000E-03 0.  1.
         11   -1    0    0    0    0 -0.00000000000E+00 -0.00000000000E+00 -0.45593999997E+02  0.45594000000E+02  0.51100000000E-03 0. -1.
    9900012    2    1    2    0    0  0.38338098170E+01  0.16187687908E+02  0.27202597950E+02  0.59301942345E+02  0.49999996932E+02 0.  0.
         12    1    1    2    0    0 -0.38338098170E+01 -0.16187687908E+02 -0.27202597950E+02  0.31886057655E+02  0.00000000000E+00 0. -1.
         11    1    3    3    0    0 -0.61525960508E+01  0.14183896977E+02  0.15872630633E+02  0.22158018302E+02  0.51100000000E-03 0.  1.
        -11    1    3    3    0    0  0.15546453194E+02 -0.96785624803E+01  0.15025791307E+02  0.23688418759E+02  0.51100000000E-03 0. -1.
         12    1    3    3    0    0 -0.55600473267E+01  0.11682353411E+02 -0.36958239899E+01  0.13455505284E+02  0.00000000000E+00 0. -1.
</event>
<event>
 7    1  0.7755875E-012  0.5930198E+02  0.7816164E-02  0.1266605E+00
        -11   -1    0    0    0    0  0.00000000000E+00  0.00000000000E+00  0.45593999997E+02  0.45594000000E+02  0.51100000000E-03 0.  1.
         11   -1    0    0    0    0 -0.00000000000E+00 -0.00000000000E+00 -0.45593999997E+02  0.45594000000E+02  0.51100000000E-03 0. -1.
    9900012    2    1    2    0    0 -0.27247442655E+02 -0.10206008264E+02  0.13043494338E+02  0.59301976722E+02  0.50000059627E+02 0.  0.
         12    1    1    2    0    0  0.27247442655E+02  0.10206008264E+02 -0.13043494338E+02  0.31886023278E+02  0.00000000000E+00 0. -1.
         11    1    3    3    0    0 -0.25326042007E+02 -0.10868816040E+02  0.88025120476E+01  0.28931363336E+02  0.51100000000E-03 0.  1.
        -11    1    3    3    0    0 -0.57715594192E+01  0.12480025012E+02 -0.52649130270E+01  0.14723492516E+02  0.51100000000E-03 0. -1.
         12    1    3    3    0    0  0.38501587715E+01 -0.11817217235E+02  0.95058953176E+01  0.15647120871E+02  0.00000000000E+00 0. -1.
</event>
<event>
 7    1  0.7755875E-012  0.5930190E+02  0.7816164E-02  0.1266605E+00
        -11   -1    0    0    0    0  0.00000000000E+00  0.00000000000E+00  0.45593999997E+02  0.45594000000E+02  0.51100000000E-03 0.  1.
         11   -1    0    0    0    0 -0.00000000000E+00 -0.00000000000E+00 -0.45593999997E+02  0.45594000000E+02  0.51100000000E-03 0. -1.
    9900012    2    1    2    0    0  0.17307811824E+02 -0.24133290414E+02  0.11608082850E+02  0.59301895757E+02  0.49999911966E+02 0.  0.
         12    1    1    2    0    0 -0.17307811824E+02  0.24133290414E+02 -0.11608082850E+02  0.31886104243E+02  0.00000000000E+00 0. -1.
         11    1    3    3    0    0  0.74429062864E+01 -0.37976932269E+01 -0.27389141796E+01  0.87932348415E+01  0.51100000000E-03 0. -1.
        -11    1    3    3    0    0  0.35693587117E+01 -0.33349985981E+02  0.13063510014E+02  0.35994682673E+02  0.51100000000E-03 0.  1.
        -12    1    3    3    0    0  0.62955468256E+01  0.13014388794E+02  0.12834870154E+01  0.14513978243E+02  0.00000000000E+00 0.  1.
</event>
<event>
 7    1  0.7755875E-012  0.5930193E+02  0.7816164E-02  0.1266605E+00
        -11   -1    0    0    0    0  0.00000000000E+00  0.00000000000E+00  0.45593999997E+02  0.45594000000E+02  0.51100000000E-03 0. -1.
         11   -1    0    0    0    0 -0.00000000000E+00 -0.00000000000E+00 -0.45593999997E+02  0.45594000000E+02  0.51100000000E-03 0.  1.
    9900012    2    1    2    0    0  0.26704554628E+02  0.15105266332E+02 -0.86844091014E+01  0.59301932976E+02  0.49999979844E+02 0.  0.
         12    1    1    2    0    0 -0.26704554628E+02 -0.15105266332E+02  0.86844091014E+01  0.31886067024E+02  0.00000000000E+00 0. -1.
         11    1    3    3    0    0 -0.24976477204E+01 -0.53697407381E+01 -0.63204210489E+01  0.86614134081E+01  0.51100000000E-03 0. -1.
        -11    1    3    3    0    0  0.37033461532E+02  0.21279029404E+02 -0.18613139538E+01  0.42752062585E+02  0.51100000000E-03 0.  1.
        -12    1    3    3    0    0 -0.78312591832E+01 -0.80402233421E+00 -0.50267409879E+00  0.78884569821E+01  0.00000000000E+00 0.  1.
</event>
<event>
 7    1  0.7755875E-012  0.5930195E+02  0.7816164E-02  0.1266605E+00
        -11   -1    0    0    0    0  0.00000000000E+00  0.00000000000E+00  0.45593999997E+02  0.45594000000E+02  0.51100000000E-03 0. -1.
         11   -1    0    0    0    0 -0.00000000000E+00 -0.00000000000E+00 -0.45593999997E+02  0.45594000000E+02  0.51100000000E-03 0.  1.
    9900012    2    1    2    0    0  0.17320523057E+02  0.13520276236E+02 -0.23106747176E+02  0.59301950487E+02  0.50000011780E+02 0.  0.
         12    1    1    2    0    0 -0.17320523057E+02 -0.13520276236E+02  0.23106747176E+02  0.31886049513E+02  0.00000000000E+00 0. -1.
         11    1    3    3    0    0  0.22515726830E+02 -0.15483891833E+01  0.21100920371E+01  0.22667332274E+02  0.51100000000E-03 0. -1.
        -11    1    3    3    0    0  0.45159539056E+00  0.48012337804E+01 -0.24417986970E+02  0.24889633829E+02  0.51100000000E-03 0.  1.
         12    1    3    3    0    0 -0.56467991638E+01  0.10267431639E+02 -0.79885224293E+00  0.11744984384E+02  0.00000000000E+00 0. -1.
</event>
<event>
 7    1  0.7755875E-012  0.5930193E+02  0.7816164E-02  0.1266605E+00
        -11   -1    0    0    0    0  0.00000000000E+00  0.00000000000E+00  0.45593999997E+02  0.45594000000E+02  0.51100000000E-03 0.  1.
         11   -1    0    0    0    0 -0.00000000000E+00 -0.00000000000E+00 -0.45593999997E+02  0.45594000000E+02  0.51100000000E-03 0. -1.
    9900012    2    1    2    0    0 -0.17859119029E+02  0.22689348055E+02  0.13526522979E+02  0.59301929819E+02  0.49999974087E+02 0.  0.
         12    1    1    2    0    0  0.17859119029E+02 -0.22689348055E+02 -0.13526522979E+02  0.31886070181E+02  0.00000000000E+00 0. -1.
         11    1    3    3    0    0 -0.32621609814E+02  0.55362948277E+01  0.79411958869E+01  0.34027673732E+02  0.51100000000E-03 0. -1.
        -11    1    3    3    0    0  0.62364855073E+01  0.97927018069E+01 -0.18802494007E+01  0.11761211597E+02  0.51100000000E-03 0.  1.
        -12    1    3    3    0    0  0.85260052768E+01  0.73603514205E+01  0.74655764929E+01  0.13513044490E+02  0.00000000000E+00 0.  1.
</event>
<event>
 7    1  0.7755875E-012  0.5930193E+02  0.7816164E-02  0.1266605E+00
        -11   -1    0    0    0    0  0.00000000000E+00  0.00000000000E+00  0.45593999997E+02  0.45594000000E+02  0.51100000000E-03 0. -1.
         11   -1    0    0    0    0 -0.00000000000E+00 -0.00000000000E+00 -0.45593999997E+02  0.45594000000E+02  0.51100000000E-03 0.  1.
    9900012    2    1    2    0    0  0.24484644980E+02 -0.10888019600E+01 -0.20397009963E+02  0.59301931805E+02  0.49999977708E+02 0.  0.
         12    1    1    2    0    0 -0.24484644980E+02  0.10888019600E+01  0.20397009963E+02  0.31886068195E+02  0.00000000000E+00 0. -1.
         11    1    3    3    0    0  0.14041665422E+02 -0.12162703988E+02  0.47168511418E+01  0.19166335619E+02  0.51100000000E-03 0. -1.
        -11    1    3    3    0    0 -0.10404042493E+01  0.17310874603E+02 -0.18948254103E+02  0.25686283389E+02  0.51100000000E-03 0.  1.
        -12    1    3    3    0    0  0.11483383808E+02 -0.62369725746E+01 -0.61656070018E+01  0.14449312796E+02  0.00000000000E+00 0.  1.
</event>
<event>
 7    1  0.7755875E-012  0.5930206E+02  0.7816164E-02  0.1266604E+00
        -11   -1    0    0    0    0  0.00000000000E+00  0.00000000000E+00  0.45593999997E+02  0.45594000000E+02  0.51100000000E-03 0.  1.
         11   -1    0    0    0    0 -0.00000000000E+00 -0.00000000000E+00 -0.45593999997E+02  0.45594000000E+02  0.51100000000E-03 0. -1.
    9900012    2    1    2    0    0 -0.11179008238E+02 -0.15835123114E+02  0.25317810735E+02  0.59302064392E+02  0.50000219515E+02 0.  0.
         12    1    1    2    0    0  0.11179008238E+02  0.15835123114E+02 -0.25317810735E+02  0.31885935608E+02  0.00000000000E+00 0. -1.
         11    1    3    3    0    0 -0.19501298428E+02 -0.31159509114E+01 -0.88691908182E+01  0.21648841459E+02  0.51100000000E-03 0. -1.
        -11    1    3    3    0    0  0.50485626368E+01 -0.41422006868E+01  0.15972809920E+02  0.17256200863E+02  0.51100000000E-03 0.  1.
         12    1    3    3    0    0  0.32737275540E+01 -0.85769715157E+01  0.18214191633E+02  0.20397022070E+02  0.00000000000E+00 0. -1.
</event>
<event>
 7    1  0.7755875E-012  0.5930194E+02  0.7816164E-02  0.1266605E+00
        -11   -1    0    0    0    0  0.00000000000E+00  0.00000000000E+00  0.45593999997E+02  0.45594000000E+02  0.51100000000E-03 0. -1.
         11   -1    0    0    0    0 -0.00000000000E+00 -0.00000000000E+00 -0.45593999997E+02  0.45594000000E+02  0.51100000000E-03 0.  1.
    9900012    2    1    2    0    0 -0.61453857088E+01  0.23237127858E+01 -0.31201852249E+02  0.59301937364E+02  0.49999987848E+02 0.  0.
         12    1    1    2    0    0  0.61453857088E+01 -0.23237127858E+01  0.31201852249E+02  0.31886062636E+02  0.00000000000E+00 0. -1.
         11    1    3    3    0    0  0.18282665594E+02 -0.73230263904E+00 -0.67849554285E+01  0.19514808449E+02  0.51100000000E-03 0. -1.
        -11    1    3    3    0    0 -0.24980540681E+02 -0.68634566579E+00 -0.25647462862E+02  0.35809088715E+02  0.51100000000E-03 0.  1.
         12    1    3    3    0    0  0.55248937799E+00  0.37423610906E+01  0.12305660416E+01  0.39780401994E+01  0.00000000000E+00 0. -1.
</event>
<event>
 7    1  0.7755875E-012  0.5930195E+02  0.7816164E-02  0.1266605E+00
        -11   -1    0    0    0    0  0.00000000000E+00  0.00000000000E+00  0.45593999997E+02  0.45594000000E+02  0.51100000000E-03 0. -1.
         11   -1    0    0    0    0 -0.00000000000E+00 -0.00000000000E+00 -0.45593999997E+02  0.45594000000E+02  0.51100000000E-03 0.  1.
    9900012    2    1    2    0    0 -0.24158397431E+02  0.76024480298E+01 -0.19372522596E+02  0.59301952672E+02  0.50000015764E+02 0.  0.
         12    1    1    2    0    0  0.24158397431E+02 -0.76024480298E+01  0.19372522596E+02  0.31886047328E+02  0.00000000000E+00 0. -1.
         11    1    3    3    0    0 -0.10517239468E+02 -0.90532333282E+01  0.35650554107E+01  0.14327699748E+02  0.51100000000E-03 0. -1.
        -11    1    3    3    0    0  0.81595891472E+01  0.14657278196E+02 -0.92781396098E+01  0.19170252321E+02  0.51100000000E-03 0.  1.
        -12    1    3    3    0    0 -0.21800747111E+02  0.19984031616E+01 -0.13659438397E+02  0.25804000603E+02  0.00000000000E+00 0.  1.
</event>
<event>
 7    1  0.7755875E-012  0.5930194E+02  0.7816164E-02  0.1266605E+00
        -11   -1    0    0    0    0  0.00000000000E+00  0.00000000000E+00  0.45593999997E+02  0.45594000000E+02  0.51100000000E-03 0. -1.
         11   -1    0    0    0    0 -0.00000000000E+00 -0.00000000000E+00 -0.45593999997E+02  0.45594000000E+02  0.51100000000E-03 0.  1.
    9900012    2    1    2    0    0  0.28625037808E+02 -0.83018682689E+01 -0.11331671138E+02  0.59301943846E+02  0.49999999669E+02 0.  0.
         12    1    1    2    0    0 -0.28625037808E+02  0.83018682689E+01  0.11331671138E+02  0.31886056154E+02  0.00000000000E+00 0. -1.
         11    1    3    3    0    0  0.23383321611E+02  0.12797233424E+02  0.50699680468E+00  0.26660944448E+02  0.51100000000E-03 0. -1.
        -11    1    3    3    0    0  0.23361154191E+01 -0.56744902252E+01 -0.15372622207E+02  0.16552183794E+02  0.51100000000E-03 0.  1.
         12    1    3    3    0    0  0.29056007781E+01 -0.15424611467E+02  0.35339542644E+01  0.16088815604E+02  0.00000000000E+00 0. -1.
</event>
<event>
 7    1  0.7755875E-012  0.5930191E+02  0.7816164E-02  0.1266605E+00
        -11   -1    0    0    0    0  0.00000000000E+00  0.00000000000E+00  0.45593999997E+02  0.45594000000E+02  0.51100000000E-03 0. -1.
         11   -1    0    0    0    0 -0.00000000000E+00 -0.00000000000E+00 -0.45593999997E+02  0.45594000000E+02  0.51100000000E-03 0.  1.
    9900012    2    1    2    0    0 -0.27663472288E+02  0.12986873999E+02 -0.90992295548E+01  0.59301912536E+02  0.49999942566E+02 0.  0.
         12    1    1    2    0    0  0.27663472288E+02 -0.12986873999E+02  0.90992295548E+01  0.31886087464E+02  0.00000000000E+00 0. -1.
         11    1    3    3    0    0  0.59518202326E+01  0.74238774386E-01 -0.34041585884E+01  0.68569651766E+01  0.51100000000E-03 0. -1.
        -11    1    3    3    0    0 -0.16787326152E+02 -0.59485122339E+01  0.12100684384E+02  0.21531968789E+02  0.51100000000E-03 0.  1.
        -12    1    3    3    0    0 -0.16827966369E+02  0.18861147458E+02 -0.17795755350E+02  0.30912978570E+02  0.00000000000E+00 0.  1.
</event>
<event>
 7    1  0.7755875E-012  0.5930196E+02  0.7816164E-02  0.1266605E+00
        -11   -1    0    0    0    0  0.00000000000E+00  0.00000000000E+00  0.45593999997E+02  0.45594000000E+02  0.51100000000E-03 0.  1.
         11   -1    0    0    0    0 -0.00000000000E+00 -0.00000000000E+00 -0.45593999997E+02  0.45594000000E+02  0.51100000000E-03 0. -1.
    9900012    2    1    2    0    0  0.11715060744E+02  0.17157981359E+02  0.24188443682E+02  0.59301956339E+02  0.50000022453E+02 0.  0.
         12    1    1    2    0    0 -0.11715060744E+02 -0.17157981359E+02 -0.24188443682E+02  0.31886043661E+02  0.00000000000E+00 0. -1.
         11    1    3    3    0    0 -0.25845139001E+01  0.71028278379E+01  0.35364618303E+02  0.36163325392E+02  0.51100000000E-03 0. -1.
        -11    1    3    3    0    0  0.62084795107E+01  0.12016180945E+00 -0.11336555979E+00  0.62106769926E+01  0.51100000000E-03 0.  1.
         12    1    3    3    0    0  0.80910951339E+01  0.99349917116E+01 -0.11062809061E+02  0.16927953955E+02  0.00000000000E+00 0. -1.
</event>
<event>
 7    1  0.7755875E-012  0.5930199E+02  0.7816164E-02  0.1266605E+00
        -11   -1    0    0    0    0  0.00000000000E+00  0.00000000000E+00  0.45593999997E+02  0.45594000000E+02  0.51100000000E-03 0.  1.
         11   -1    0    0    0    0 -0.00000000000E+00 -0.00000000000E+00 -0.45593999997E+02  0.45594000000E+02  0.51100000000E-03 0. -1.
    9900012    2    1    2    0    0 -0.20681268418E+02  0.14197041355E+02  0.19683672492E+02  0.59301987245E+02  0.50000078818E+02 0.  0.
         12    1    1    2    0    0  0.20681268418E+02 -0.14197041355E+02 -0.19683672492E+02  0.31886012755E+02  0.00000000000E+00 0. -1.
         11    1    3    3    0    0  0.62818482605E+01  0.12288287748E+02  0.38387502911E+01  0.14324791007E+02  0.51100000000E-03 0. -1.
        -11    1    3    3    0    0 -0.32120565934E+02 -0.54196435290E+00  0.47167773597E+01  0.32469562211E+02  0.51100000000E-03 0.  1.
        -12    1    3    3    0    0  0.51574492553E+01  0.24507179605E+01  0.11128144841E+02  0.12507634027E+02  0.00000000000E+00 0.  1.
</event>
<event>
 7    1  0.7755875E-012  0.5930189E+02  0.7816164E-02  0.1266605E+00
        -11   -1    0    0    0    0  0.00000000000E+00  0.00000000000E+00  0.45593999997E+02  0.45594000000E+02  0.51100000000E-03 0.  1.
         11   -1    0    0    0    0 -0.00000000000E+00 -0.00000000000E+00 -0.45593999997E+02  0.45594000000E+02  0.51100000000E-03 0. -1.
    9900012    2    1    2    0    0  0.22030857098E+02  0.84031654413E+01  0.21465138926E+02  0.59301889497E+02  0.49999900550E+02 0.  0.
         12    1    1    2    0    0 -0.22030857098E+02 -0.84031654413E+01 -0.21465138926E+02  0.31886110503E+02  0.00000000000E+00 0. -1.
         11    1    3    3    0    0  0.12704721100E+02  0.14468895485E+02 -0.25287618478E+01  0.19420440560E+02  0.51100000000E-03 0. -1.
        -11    1    3    3    0    0  0.68241801723E+01 -0.15218731732E+02  0.25300235453E+02  0.30303154040E+02  0.51100000000E-03 0.  1.
        -12    1    3    3    0    0  0.25019558253E+01  0.91530016877E+01 -0.13063346793E+01  0.95782948974E+01  0.00000000000E+00 0.  1.
</event>
<event>
 7    1  0.7755875E-012  0.5930196E+02  0.7816164E-02  0.1266605E+00
        -11   -1    0    0    0    0  0.00000000000E+00  0.00000000000E+00  0.45593999997E+02  0.45594000000E+02  0.51100000000E-03 0. -1.
         11   -1    0    0    0    0 -0.00000000000E+00 -0.00000000000E+00 -0.45593999997E+02  0.45594000000E+02  0.51100000000E-03 0.  1.
    9900012    2    1    2    0    0 -0.68970216556E+01 -0.17980024001E+02 -0.25413962451E+02  0.59301958253E+02  0.50000025944E+02 0.  0.
         12    1    1    2    0    0  0.68970216556E+01  0.17980024001E+02  0.25413962451E+02  0.31886041747E+02  0.00000000000E+00 0. -1.
         11    1    3    3    0    0 -0.38713332670E+01 -0.27116272516E+01  0.18293996547E+01  0.50682193100E+01  0.51100000000E-03 0. -1.
        -11    1    3    3    0    0  0.26749873337E+01 -0.43868773623E+01 -0.37732360294E+02  0.38080589069E+02  0.51100000000E-03 0.  1.
        -12    1    3    3    0    0 -0.57006757224E+01 -0.10881519387E+02  0.10488998188E+02  0.16153149874E+02  0.00000000000E+00 0.  1.
</event>
<event>
 7    1  0.7755875E-012  0.5930191E+02  0.7816164E-02  0.1266605E+00
        -11   -1    0    0    0    0  0.00000000000E+00  0.00000000000E+00  0.45593999997E+02  0.45594000000E+02  0.51100000000E-03 0.  1.
         11   -1    0    0    0    0 -0.00000000000E+00 -0.00000000000E+00 -0.45593999997E+02  0.45594000000E+02  0.51100000000E-03 0. -1.
    9900012    2    1    2    0    0  0.13877441208E+02 -0.18750563913E+02  0.21738353050E+02  0.59301905619E+02  0.49999929951E+02 0.  0.
         12    1    1    2    0    0 -0.13877441208E+02  0.18750563913E+02 -0.21738353050E+02  0.31886094381E+02  0.00000000000E+00 0. -1.
         11    1    3    3    0    0  0.18189241431E+01  0.73051439282E+01 -0.74996467225E+01  0.10626302935E+02  0.51100000000E-03 0. -1.
        -11    1    3    3    0    0  0.19052013707E+02 -0.11507932924E+02  0.12982566670E+02  0.25767397697E+02  0.51100000000E-03 0.  1.
         12    1    3    3    0    0 -0.69934966426E+01 -0.14547774918E+02  0.16255433102E+02  0.22908204986E+02  0.00000000000E+00 0. -1.
</event>
<event>
 7    1  0.7755875E-012  0.5930195E+02  0.7816164E-02  0.1266605E+00
        -11   -1    0    0    0    0  0.00000000000E+00  0.00000000000E+00  0.45593999997E+02  0.45594000000E+02  0.51100000000E-03 0.  1.
         11   -1    0    0    0    0 -0.00000000000E+00 -0.00000000000E+00 -0.45593999997E+02  0.45594000000E+02  0.51100000000E-03 0. -1.
    9900012    2    1    2    0    0  0.72668626771E+01 -0.27071411204E+02  0.15200372541E+02  0.59301954100E+02  0.50000018370E+02 0.  0.
         12    1    1    2    0    0 -0.72668626771E+01  0.27071411204E+02 -0.15200372541E+02  0.31886045900E+02  0.00000000000E+00 0. -1.
         11    1    3    3    0    0  0.71494675979E+01  0.44704722022E+01  0.13318510529E+02  0.15763335041E+02  0.51100000000E-03 0. -1.
        -11    1    3    3    0    0  0.32063341785E+01 -0.36799663090E+02  0.38296796289E+01  0.37137073508E+02  0.51100000000E-03 0.  1.
         12    1    3    3    0    0 -0.30889390993E+01  0.52577796842E+01 -0.19478176171E+01  0.64015455506E+01  0.00000000000E+00 0. -1.
</event>
<event>
 7    1  0.7755875E-012  0.5930185E+02  0.7816164E-02  0.1266605E+00
        -11   -1    0    0    0    0  0.00000000000E+00  0.00000000000E+00  0.45593999997E+02  0.45594000000E+02  0.51100000000E-03 0.  1.
         11   -1    0    0    0    0 -0.00000000000E+00 -0.00000000000E+00 -0.45593999997E+02  0.45594000000E+02  0.51100000000E-03 0. -1.
    9900012    2    1    2    0    0 -0.56054256517E+00 -0.29032599381E+02  0.13172707281E+02  0.59301854860E+02  0.49999837380E+02 0.  0.
         12    1    1    2    0    0  0.56054256517E+00  0.29032599381E+02 -0.13172707281E+02  0.31886145140E+02  0.00000000000E+00 0. -1.
         11    1    3    3    0    0 -0.12744059307E+02 -0.37302457128E+01  0.20868131877E+02  0.24734686353E+02  0.51100000000E-03 0. -1.
        -11    1    3    3    0    0 -0.28354307583E+01 -0.14129064892E+02 -0.22560111014E+00  0.14412530605E+02  0.51100000000E-03 0.  1.
         12    1    3    3    0    0  0.15018947500E+02 -0.11173288776E+02 -0.74698234856E+01  0.20154637903E+02  0.00000000000E+00 0. -1.
</event>
<event>
 7    1  0.7755875E-012  0.5930192E+02  0.7816164E-02  0.1266605E+00
        -11   -1    0    0    0    0  0.00000000000E+00  0.00000000000E+00  0.45593999997E+02  0.45594000000E+02  0.51100000000E-03 0. -1.
         11   -1    0    0    0    0 -0.00000000000E+00 -0.00000000000E+00 -0.45593999997E+02  0.45594000000E+02  0.51100000000E-03 0.  1.
    9900012    2    1    2    0    0 -0.21409825804E+02  0.17086203848E+02  0.16321868070E+02  0.59301915571E+02  0.49999948102E+02 0.  0.
         12    1    1    2    0    0  0.21409825804E+02 -0.17086203848E+02 -0.16321868070E+02  0.31886084429E+02  0.00000000000E+00 0. -1.
         11    1    3    3    0    0 -0.12491543955E+02  0.87284636802E+01  0.30076676073E+02  0.33716927387E+02  0.51100000000E-03 0. -1.
        -11    1    3    3    0    0  0.20069826503E+01  0.87117402343E+01 -0.13335289156E+01  0.90388437811E+01  0.51100000000E-03 0.  1.
         12    1    3    3    0    0 -0.10925264500E+02 -0.35400006650E+00 -0.12421279087E+02  0.16546144403E+02  0.00000000000E+00 0. -1.
</event>
<event>
 7    1  0.7755875E-012  0.5930197E+02  0.7816164E-02  0.1266605E+00
        -11   -1    0    0    0    0  0.00000000000E+00  0.00000000000E+00  0.45593999997E+02  0.45594000000E+02  0.51100000000E-03 0.  1.
         11   -1    0    0    0    0 -0.00000000000E+00 -0.00000000000E+00 -0.45593999997E+02  0.45594000000E+02  0.51100000000E-03 0. -1.
    9900012    2    1    2    0    0  0.71571671793E+01  0.19984580548E+02  0.23793077514E+02  0.59301967960E+02  0.50000043646E+02 0.  0.
         12    1    1    2    0    0 -0.71571671793E+01 -0.19984580548E+02 -0.23793077514E+02  0.31886032040E+02  0.00000000000E+00 0. -1.
         11    1    3    3    0    0  0.49270729951E+01 -0.17590577744E+00  0.24228644136E+02  0.24725173166E+02  0.51100000000E-03 0.  1.
        -11    1    3    3    0    0  0.94865595087E+01  0.57295772967E+01 -0.10727400815E+02  0.15424007126E+02  0.51100000000E-03 0. -1.
        -12    1    3    3    0    0 -0.72564653245E+01  0.14430909028E+02  0.10291834193E+02  0.19152787668E+02  0.00000000000E+00 0.  1.
</event>
<event>
 7    1  0.7755875E-012  0.5930193E+02  0.7816164E-02  0.1266605E+00
        -11   -1    0    0    0    0  0.00000000000E+00  0.00000000000E+00  0.45593999997E+02  0.45594000000E+02  0.51100000000E-03 0.  1.
         11   -1    0    0    0    0 -0.00000000000E+00 -0.00000000000E+00 -0.45593999997E+02  0.45594000000E+02  0.51100000000E-03 0. -1.
    9900012    2    1    2    0    0  0.34906673537E+01 -0.74525796514E+01  0.30805770559E+02  0.59301934050E+02  0.49999981804E+02 0.  0.
         12    1    1    2    0    0 -0.34906673537E+01  0.74525796514E+01 -0.30805770559E+02  0.31886065950E+02  0.00000000000E+00 0. -1.
         11    1    3    3    0    0  0.97421459324E+01 -0.17322121218E+02 -0.50399590301E+01  0.20502840733E+02  0.51100000000E-03 0. -1.
        -11    1    3    3    0    0 -0.61808879655E+00  0.76019523366E+01  0.12215521437E+02  0.14401065146E+02  0.51100000000E-03 0.  1.
         12    1    3    3    0    0 -0.56333897822E+01  0.22675892297E+01  0.23630208152E+02  0.24398028171E+02  0.00000000000E+00 0. -1.
</event>
<event>
 7    1  0.7755875E-012  0.5930193E+02  0.7816164E-02  0.1266605E+00
        -11   -1    0    0    0    0  0.00000000000E+00  0.00000000000E+00  0.45593999997E+02  0.45594000000E+02  0.51100000000E-03 0.  1.
         11   -1    0    0    0    0 -0.00000000000E+00 -0.00000000000E+00 -0.45593999997E+02  0.45594000000E+02  0.51100000000E-03 0. -1.
    9900012    2    1    2    0    0 -0.24061412241E+02  0.42026505186E+01  0.20496519708E+02  0.59301934853E+02  0.49999983268E+02 0.  0.
         12    1    1    2    0    0  0.24061412241E+02 -0.42026505186E+01 -0.20496519708E+02  0.31886065147E+02  0.00000000000E+00 0. -1.
         11    1    3    3    0    0 -0.24713932480E+02  0.79884538852E+01  0.70773167323E+01  0.26919923226E+02  0.51100000000E-03 0. -1.
        -11    1    3    3    0    0  0.11103200840E+02 -0.53879175060E+01  0.17186067904E+02  0.21158252626E+02  0.51100000000E-03 0.  1.
        -12    1    3    3    0    0 -0.10450680600E+02  0.16021141394E+01 -0.37668649282E+01  0.11223759001E+02  0.00000000000E+00 0.  1.
</event>
<event>
 7    1  0.7755875E-012  0.5930188E+02  0.7816164E-02  0.1266605E+00
        -11   -1    0    0    0    0  0.00000000000E+00  0.00000000000E+00  0.45593999997E+02  0.45594000000E+02  0.51100000000E-03 0.  1.
         11   -1    0    0    0    0 -0.00000000000E+00 -0.00000000000E+00 -0.45593999997E+02  0.45594000000E+02  0.51100000000E-03 0. -1.
    9900012    2    1    2    0    0 -0.24379976953E+02  0.20370060400E+02 -0.27206830873E+01  0.59301878357E+02  0.49999880233E+02 0.  0.
         12    1    1    2    0    0  0.24379976953E+02 -0.20370060400E+02  0.27206830873E+01  0.31886121643E+02  0.00000000000E+00 0. -1.
         11    1    3    3    0    0  0.12687637785E+02  0.71514987227E+01 -0.10526187229E+02  0.17969994558E+02  0.51100000000E-03 0. -1.
        -11    1    3    3    0    0 -0.13911159246E+02  0.74514287778E+01 -0.11970056407E+01  0.15826464076E+02  0.51100000000E-03 0.  1.
         12    1    3    3    0    0 -0.23156455493E+02  0.57671328998E+01  0.90025097827E+01  0.25505419724E+02  0.00000000000E+00 0. -1.
</event>
<event>
 7    1  0.8947829E-012  0.5930194E+02  0.7816164E-02  0.1266605E+00
        -11   -1    0    0    0    0  0.00000000000E+00  0.00000000000E+00  0.45593999997E+02  0.45594000000E+02  0.51100000000E-03 0. -1.
         11   -1    0    0    0    0 -0.00000000000E+00 -0.00000000000E+00 -0.45593999997E+02  0.45594000000E+02  0.51100000000E-03 0.  1.
    9900012    2    1    2    0    0 -0.14388779623E+02  0.19233433541E+02 -0.20970423233E+02  0.59301943558E+02  0.49999999144E+02 0.  0.
         12    1    1    2    0    0  0.14388779623E+02 -0.19233433541E+02  0.20970423233E+02  0.31886056442E+02  0.00000000000E+00 0. -1.
         11    1    3    3    0    0 -0.38354218756E+00 -0.72434389834E+01  0.71922929228E+01  0.10214871055E+02  0.51100000000E-03 0. -1.
        -11    1    3    3    0    0 -0.16530841723E+02  0.25178438387E+02 -0.11590408649E+02  0.32273209642E+02  0.51100000000E-03 0.  1.
        -12    1    3    3    0    0  0.25256042873E+01  0.12984341369E+01 -0.16572307507E+02  0.16813862862E+02  0.00000000000E+00 0.  1.
</event>
<event>
 7    1  0.7755875E-012  0.5930193E+02  0.7816164E-02  0.1266605E+00
        -11   -1    0    0    0    0  0.00000000000E+00  0.00000000000E+00  0.45593999997E+02  0.45594000000E+02  0.51100000000E-03 0. -1.
         11   -1    0    0    0    0 -0.00000000000E+00 -0.00000000000E+00 -0.45593999997E+02  0.45594000000E+02  0.51100000000E-03 0.  1.
    9900012    2    1    2    0    0  0.12132340551E+02  0.28826422808E+02 -0.62100652010E+01  0.59301933310E+02  0.49999980453E+02 0.  0.
         12    1    1    2    0    0 -0.12132340551E+02 -0.28826422808E+02  0.62100652010E+01  0.31886066690E+02  0.00000000000E+00 0. -1.
         11    1    3    3    0    0 -0.87025773947E+01  0.73058477852E+01  0.52890307744E+01  0.12533320070E+02  0.51100000000E-03 0. -1.
        -11    1    3    3    0    0  0.22337464029E+02  0.26289602684E+02 -0.29471749430E+00  0.34499164732E+02  0.51100000000E-03 0.  1.
         12    1    3    3    0    0 -0.15025460831E+01 -0.47690276608E+01 -0.11204378481E+02  0.12269448509E+02  0.00000000000E+00 0. -1.
</event>
<event>
 7    1  0.7755875E-012  0.5930194E+02  0.7816164E-02  0.1266605E+00
        -11   -1    0    0    0    0  0.00000000000E+00  0.00000000000E+00  0.45593999997E+02  0.45594000000E+02  0.51100000000E-03 0. -1.
         11   -1    0    0    0    0 -0.00000000000E+00 -0.00000000000E+00 -0.45593999997E+02  0.45594000000E+02  0.51100000000E-03 0.  1.
    9900012    2    1    2    0    0  0.23278744327E+02  0.20288172644E+02 -0.79505483630E+01  0.59301935553E+02  0.49999984543E+02 0.  0.
         12    1    1    2    0    0 -0.23278744327E+02 -0.20288172644E+02  0.79505483630E+01  0.31886064447E+02  0.00000000000E+00 0. -1.
         11    1    3    3    0    0 -0.53166258108E+01  0.54182477799E+01  0.11338996164E+02  0.13645393116E+02  0.51100000000E-03 0. -1.
        -11    1    3    3    0    0  0.11966676547E+02  0.14949195235E+02 -0.21602284477E+02  0.28867602613E+02  0.51100000000E-03 0.  1.
        -12    1    3    3    0    0  0.16628693591E+02 -0.79270371037E-01  0.23127399500E+01  0.16788939824E+02  0.00000000000E+00 0.  1.
</event>
<event>
 7    1  0.7755875E-012  0.5930194E+02  0.7816164E-02  0.1266605E+00
        -11   -1    0    0    0    0  0.00000000000E+00  0.00000000000E+00  0.45593999997E+02  0.45594000000E+02  0.51100000000E-03 0.  1.
         11   -1    0    0    0    0 -0.00000000000E+00 -0.00000000000E+00 -0.45593999997E+02  0.45594000000E+02  0.51100000000E-03 0. -1.
    9900012    2    1    2    0    0 -0.26685629697E+02  0.15792686895E+02  0.74289311787E+01  0.59301940191E+02  0.49999993002E+02 0.  0.
         12    1    1    2    0    0  0.26685629697E+02 -0.15792686895E+02 -0.74289311787E+01  0.31886059809E+02  0.00000000000E+00 0. -1.
         11    1    3    3    0    0  0.22855361568E+01 -0.31029859530E+00 -0.42033075312E+00  0.23444911912E+01  0.51100000000E-03 0. -1.
        -11    1    3    3    0    0 -0.30228704511E+02 -0.85449234078E+01  0.74015820031E+01  0.32273421090E+02  0.51100000000E-03 0.  1.
        -12    1    3    3    0    0  0.12575386564E+01  0.24647908898E+02  0.44767992874E+00  0.24684027909E+02  0.00000000000E+00 0.  1.
</event>
<event>
 7    1  0.8607679E-012  0.5930195E+02  0.7816164E-02  0.1266605E+00
        -11   -1    0    0    0    0  0.00000000000E+00  0.00000000000E+00  0.45593999997E+02  0.45594000000E+02  0.51100000000E-03 0. -1.
         11   -1    0    0    0    0 -0.00000000000E+00 -0.00000000000E+00 -0.45593999997E+02  0.45594000000E+02  0.51100000000E-03 0.  1.
    9900012    2    1    2    0    0 -0.17424795850E+02  0.14968937243E+02 -0.22113973285E+02  0.59301946512E+02  0.50000004531E+02 0.  0.
         12    1    1    2    0    0  0.17424795850E+02 -0.14968937243E+02  0.22113973285E+02  0.31886053488E+02  0.00000000000E+00 0. -1.
         11    1    3    3    0    0 -0.11579709835E+02 -0.80622953882E+00  0.64103965145E+01  0.13260198703E+02  0.51100000000E-03 0. -1.
        -11    1    3    3    0    0 -0.84017762648E+01  0.25093018619E+02 -0.21512967405E+02  0.34103624362E+02  0.51100000000E-03 0.  1.
        -12    1    3    3    0    0  0.25566902498E+01 -0.93178518372E+01 -0.70114023941E+01  0.11938123447E+02  0.00000000000E+00 0.  1.
</event>
<event>
 7    1  0.7755875E-012  0.5930197E+02  0.7816164E-02  0.1266605E+00
        -11   -1    0    0    0    0  0.00000000000E+00  0.00000000000E+00  0.45593999997E+02  0.45594000000E+02  0.51100000000E-03 0. -1.
         11   -1    0    0    0    0 -0.00000000000E+00 -0.00000000000E+00 -0.45593999997E+02  0.45594000000E+02  0.51100000000E-03 0.  1.
    9900012    2    1    2    0    0 -0.25196085961E+02  0.19353688641E+02  0.27039027413E+01  0.59301966979E+02  0.50000041858E+02 0.  0.
         12    1    1    2    0    0  0.25196085961E+02 -0.19353688641E+02 -0.27039027413E+01  0.31886033021E+02  0.00000000000E+00 0. -1.
         11    1    3    3    0    0 -0.32338492532E+00  0.15552097341E+02  0.20120388150E+02  0.25432308764E+02  0.51100000000E-03 0. -1.
        -11    1    3    3    0    0 -0.11818731786E+02  0.40156074686E+01 -0.16625797436E+02  0.20790013588E+02  0.51100000000E-03 0.  1.
         12    1    3    3    0    0 -0.13053969249E+02 -0.21401616902E+00 -0.79068797282E+00  0.13079644626E+02  0.00000000000E+00 0. -1.
</event>
<event>
 7    1  0.7755875E-012  0.5930204E+02  0.7816164E-02  0.1266604E+00
        -11   -1    0    0    0    0  0.00000000000E+00  0.00000000000E+00  0.45593999997E+02  0.45594000000E+02  0.51100000000E-03 0.  1.
         11   -1    0    0    0    0 -0.00000000000E+00 -0.00000000000E+00 -0.45593999997E+02  0.45594000000E+02  0.51100000000E-03 0. -1.
    9900012    2    1    2    0    0 -0.60347477590E+01 -0.27941359908E+02  0.14127157946E+02  0.59302041246E+02  0.50000177303E+02 0.  0.
         12    1    1    2    0    0  0.60347477590E+01  0.27941359908E+02 -0.14127157946E+02  0.31885958754E+02  0.00000000000E+00 0. -1.
         11    1    3    3    0    0 -0.49910874545E+00 -0.19611690660E+02  0.24778565035E+01  0.19773904349E+02  0.51100000000E-03 0. -1.
        -11    1    3    3    0    0  0.67697505376E+01  0.73461911683E+01  0.16250137040E+02  0.19075193344E+02  0.51100000000E-03 0.  1.
        -12    1    3    3    0    0 -0.12305389551E+02 -0.15675860416E+02 -0.46008355978E+01  0.20452943553E+02  0.00000000000E+00 0.  1.
</event>
<event>
 7    1  0.7755875E-012  0.5930193E+02  0.7816164E-02  0.1266605E+00
        -11   -1    0    0    0    0  0.00000000000E+00  0.00000000000E+00  0.45593999997E+02  0.45594000000E+02  0.51100000000E-03 0.  1.
         11   -1    0    0    0    0 -0.00000000000E+00 -0.00000000000E+00 -0.45593999997E+02  0.45594000000E+02  0.51100000000E-03 0. -1.
    9900012    2    1    2    0    0 -0.18747415684E+02 -0.21786444530E+02 -0.13806028764E+02  0.59301934229E+02  0.49999982130E+02 0.  0.
         12    1    1    2    0    0  0.18747415684E+02  0.21786444530E+02  0.13806028764E+02  0.31886065771E+02  0.00000000000E+00 0. -1.
         11    1    3    3    0    0  0.40916211514E+01 -0.31928631650E+01 -0.21861944869E+02  0.22469543221E+02  0.51100000000E-03 0. -1.
        -11    1    3    3    0    0 -0.17349243118E+02 -0.19017255653E+02  0.13518916834E+02  0.29075992880E+02  0.51100000000E-03 0.  1.
         12    1    3    3    0    0 -0.54897937177E+01  0.42367428794E+00 -0.54630007281E+01  0.77563981280E+01  0.00000000000E+00 0. -1.
</event>
<event>
 7    1  0.7755875E-012  0.5930199E+02  0.7816164E-02  0.1266605E+00
        -11   -1    0    0    0    0  0.00000000000E+00  0.00000000000E+00  0.45593999997E+02  0.45594000000E+02  0.51100000000E-03 0.  1.
         11   -1    0    0    0    0 -0.00000000000E+00 -0.00000000000E+00 -0.45593999997E+02  0.45594000000E+02  0.51100000000E-03 0. -1.
    9900012    2    1    2    0    0 -0.96227935753E+01  0.22354236318E+02  0.20601161889E+02  0.59301985688E+02  0.50000075977E+02 0.  0.
         12    1    1    2    0    0  0.96227935753E+01 -0.22354236318E+02 -0.20601161889E+02  0.31886014312E+02  0.00000000000E+00 0. -1.
         11    1    3    3    0    0  0.19318347930E+02  0.17432598178E+02  0.84162296251E+01  0.27348253461E+02  0.51100000000E-03 0. -1.
        -11    1    3    3    0    0 -0.83180942694E+01  0.99783436161E+00  0.19644151696E+01  0.86049574611E+01  0.51100000000E-03 0.  1.
         12    1    3    3    0    0 -0.20623047236E+02  0.39238037784E+01  0.10220517095E+02  0.23348774766E+02  0.00000000000E+00 0. -1.
</event>
<event>
 7    1  0.7755875E-012  0.5930193E+02  0.7816164E-02  0.1266605E+00
        -11   -1    0    0    0    0  0.00000000000E+00  0.00000000000E+00  0.45593999997E+02  0.45594000000E+02  0.51100000000E-03 0. -1.
         11   -1    0    0    0    0 -0.00000000000E+00 -0.00000000000E+00 -0.45593999997E+02  0.45594000000E+02  0.51100000000E-03 0.  1.
    9900012    2    1    2    0    0 -0.11215485945E+02  0.90206619425E+01 -0.28452802629E+02  0.59301930247E+02  0.49999974867E+02 0.  0.
         12    1    1    2    0    0  0.11215485945E+02 -0.90206619425E+01  0.28452802629E+02  0.31886069753E+02  0.00000000000E+00 0. -1.
         11    1    3    3    0    0  0.22281461961E+01  0.17378078149E+02 -0.33593255552E+02  0.37887584437E+02  0.51100000000E-03 0. -1.
        -11    1    3    3    0    0 -0.28488560499E+01 -0.90532695590E+01 -0.27607192818E+00  0.94949400457E+01  0.51100000000E-03 0.  1.
         12    1    3    3    0    0 -0.10594776091E+02  0.69585335270E+00  0.54165248511E+01  0.11919405764E+02  0.00000000000E+00 0. -1.
</event>
<event>
 7    1  0.7755875E-012  0.5930192E+02  0.7816164E-02  0.1266605E+00
        -11   -1    0    0    0    0  0.00000000000E+00  0.00000000000E+00  0.45593999997E+02  0.45594000000E+02  0.51100000000E-03 0. -1.
         11   -1    0    0    0    0 -0.00000000000E+00 -0.00000000000E+00 -0.45593999997E+02  0.45594000000E+02  0.51100000000E-03 0.  1.
    9900012    2    1    2    0    0  0.22426309361E+02 -0.20809948176E+02  0.89849292535E+01  0.59301917639E+02  0.49999951873E+02 0.  0.
         12    1    1    2    0    0 -0.22426309361E+02  0.20809948176E+02 -0.89849292535E+01  0.31886082361E+02  0.00000000000E+00 0. -1.
         11    1    3    3    0    0  0.14129439389E+02  0.14716011371E+01 -0.15048478973E+01  0.14285350357E+02  0.51100000000E-03 0.  1.
        -11    1    3    3    0    0  0.16575841855E+02 -0.26248283899E+02  0.15347236478E+02  0.34630457817E+02  0.51100000000E-03 0. -1.
         12    1    3    3    0    0 -0.82789718825E+01  0.39667345857E+01 -0.48574593271E+01  0.10386109465E+02  0.00000000000E+00 0. -1.
</event>
<event>
 7    1  0.7755875E-012  0.5930201E+02  0.7816164E-02  0.1266605E+00
        -11   -1    0    0    0    0  0.00000000000E+00  0.00000000000E+00  0.45593999997E+02  0.45594000000E+02  0.51100000000E-03 0. -1.
         11   -1    0    0    0    0 -0.00000000000E+00 -0.00000000000E+00 -0.45593999997E+02  0.45594000000E+02  0.51100000000E-03 0.  1.
    9900012    2    1    2    0    0 -0.41914271125E+01  0.14373353972E+02 -0.28152355592E+02  0.59302007918E+02  0.50000116521E+02 0.  0.
         12    1    1    2    0    0  0.41914271125E+01 -0.14373353972E+02  0.28152355592E+02  0.31885992082E+02  0.00000000000E+00 0. -1.
         11    1    3    3    0    0 -0.15172438078E+02  0.49989914092E-01  0.74268732430E+01  0.16892715077E+02  0.51100000000E-03 0. -1.
        -11    1    3    3    0    0  0.13398830189E+02  0.13621878443E+02 -0.24619563381E+02  0.31164196188E+02  0.51100000000E-03 0.  1.
         12    1    3    3    0    0 -0.24178192232E+01  0.70148561538E+00 -0.10959665454E+02  0.11245096653E+02  0.00000000000E+00 0. -1.
</event>
<event>
 7    1  0.7755875E-012  0.5930198E+02  0.7816164E-02  0.1266605E+00
        -11   -1    0    0    0    0  0.00000000000E+00  0.00000000000E+00  0.45593999997E+02  0.45594000000E+02  0.51100000000E-03 0. -1.
         11   -1    0    0    0    0 -0.00000000000E+00 -0.00000000000E+00 -0.45593999997E+02  0.45594000000E+02  0.51100000000E-03 0.  1.
    9900012    2    1    2    0    0 -0.22900917784E+02 -0.86773841470E+01 -0.20419820695E+02  0.59301982560E+02  0.50000070273E+02 0.  0.
         12    1    1    2    0    0  0.22900917784E+02  0.86773841470E+01  0.20419820695E+02  0.31886017440E+02  0.00000000000E+00 0. -1.
         11    1    3    3    0    0  0.82072694376E+01  0.21269114999E+01  0.46499277397E+01  0.96697907110E+01  0.51100000000E-03 0. -1.
        -11    1    3    3    0    0 -0.51992277364E+01 -0.11501079569E+02 -0.19330144017E+02  0.23085953917E+02  0.51100000000E-03 0.  1.
         12    1    3    3    0    0 -0.25908959485E+02  0.69678392178E+00 -0.57396044175E+01  0.26546237932E+02  0.00000000000E+00 0. -1.
</event>
<event>
 7    1  0.7755875E-012  0.5930195E+02  0.7816164E-02  0.1266605E+00
        -11   -1    0    0    0    0  0.00000000000E+00  0.00000000000E+00  0.45593999997E+02  0.45594000000E+02  0.51100000000E-03 0. -1.
         11   -1    0    0    0    0 -0.00000000000E+00 -0.00000000000E+00 -0.45593999997E+02  0.45594000000E+02  0.51100000000E-03 0.  1.
    9900012    2    1    2    0    0 -0.12001830195E+02  0.21781076677E+02 -0.19956474696E+02  0.59301951146E+02  0.50000012981E+02 0.  0.
         12    1    1    2    0    0  0.12001830195E+02 -0.21781076677E+02  0.19956474696E+02  0.31886048854E+02  0.00000000000E+00 0. -1.
         11    1    3    3    0    0  0.92868380073E+01  0.10459103477E+02  0.45510597695E+01  0.14708852811E+02  0.51100000000E-03 0. -1.
        -11    1    3    3    0    0 -0.13593307285E+02  0.46269626355E+01 -0.29816602985E+02  0.33094056868E+02  0.51100000000E-03 0.  1.
        -12    1    3    3    0    0 -0.76953609180E+01  0.66950105647E+01  0.53090685195E+01  0.11499041467E+02  0.00000000000E+00 0.  1.
</event>
<event>
 7    1  0.7755875E-012  0.5930194E+02  0.7816164E-02  0.1266605E+00
        -11   -1    0    0    0    0  0.00000000000E+00  0.00000000000E+00  0.45593999997E+02  0.45594000000E+02  0.51100000000E-03 0. -1.
         11   -1    0    0    0    0 -0.00000000000E+00 -0.00000000000E+00 -0.45593999997E+02  0.45594000000E+02  0.51100000000E-03 0.  1.
    9900012    2    1    2    0    0  0.28741870740E+02 -0.50249787366E+01  0.12859826303E+02  0.59301942271E+02  0.49999996797E+02 0.  0.
         12    1    1    2    0    0 -0.28741870740E+02  0.50249787366E+01 -0.12859826303E+02  0.31886057729E+02  0.00000000000E+00 0. -1.
         11    1    3    3    0    0 -0.16448965903E+01 -0.50320418220E+01 -0.88015860619E+01  0.10271078189E+02  0.51100000000E-03 0. -1.
        -11    1    3    3    0    0  0.27067316861E+02  0.84570440093E+01  0.33018703551E+01  0.28549318442E+02  0.51100000000E-03 0.  1.
        -12    1    3    3    0    0  0.33194504698E+01 -0.84499809239E+01  0.18359542009E+02  0.20481545641E+02  0.00000000000E+00 0.  1.
</event>
<event>
 7    1  0.7755875E-012  0.5930197E+02  0.7816164E-02  0.1266605E+00
        -11   -1    0    0    0    0  0.00000000000E+00  0.00000000000E+00  0.45593999997E+02  0.45594000000E+02  0.51100000000E-03 0. -1.
         11   -1    0    0    0    0 -0.00000000000E+00 -0.00000000000E+00 -0.45593999997E+02  0.45594000000E+02  0.51100000000E-03 0.  1.
    9900012    2    1    2    0    0 -0.21232607236E+02 -0.10041621836E+02 -0.21565273935E+02  0.59301971414E+02  0.50000049945E+02 0.  0.
         12    1    1    2    0    0  0.21232607236E+02  0.10041621836E+02  0.21565273935E+02  0.31886028586E+02  0.00000000000E+00 0. -1.
         11    1    3    3    0    0 -0.84226196231E+01 -0.18695215145E+02 -0.13142633497E+02  0.24355295238E+02  0.51100000000E-03 0. -1.
        -11    1    3    3    0    0  0.76828972633E+01  0.10663181304E+02 -0.50581035119E+01  0.14082427251E+02  0.51100000000E-03 0.  1.
        -12    1    3    3    0    0 -0.20492884876E+02 -0.20095879946E+01 -0.33645369261E+01  0.20864248924E+02  0.00000000000E+00 0.  1.
</event>
<event>
 7    1  0.7755875E-012  0.5930196E+02  0.7816164E-02  0.1266605E+00
        -11   -1    0    0    0    0  0.00000000000E+00  0.00000000000E+00  0.45593999997E+02  0.45594000000E+02  0.51100000000E-03 0.  1.
         11   -1    0    0    0    0 -0.00000000000E+00 -0.00000000000E+00 -0.45593999997E+02  0.45594000000E+02  0.51100000000E-03 0. -1.
    9900012    2    1    2    0    0 -0.31481239898E+02  0.45268547214E+01 -0.22712399392E+01  0.59301962146E+02  0.50000033043E+02 0.  0.
         12    1    1    2    0    0  0.31481239898E+02 -0.45268547214E+01  0.22712399392E+01  0.31886037854E+02  0.00000000000E+00 0. -1.
         11    1    3    3    0    0 -0.48849652535E+01  0.70452410221E+01 -0.22893233858E+02  0.24445827115E+02  0.51100000000E-03 0. -1.
        -11    1    3    3    0    0 -0.32946574368E+01 -0.32562428649E+01  0.48633400388E+01  0.67163950015E+01  0.51100000000E-03 0.  1.
         12    1    3    3    0    0 -0.23301617208E+02  0.73785656423E+00  0.15758653880E+02  0.28139740029E+02  0.00000000000E+00 0. -1.
</event>
<event>
 7    1  0.7755875E-012  0.5930194E+02  0.7816164E-02  0.1266605E+00
        -11   -1    0    0    0    0  0.00000000000E+00  0.00000000000E+00  0.45593999997E+02  0.45594000000E+02  0.51100000000E-03 0.  1.
         11   -1    0    0    0    0 -0.00000000000E+00 -0.00000000000E+00 -0.45593999997E+02  0.45594000000E+02  0.51100000000E-03 0. -1.
    9900012    2    1    2    0    0  0.27507050176E+02  0.13246277615E+02  0.91988567622E+01  0.59301942768E+02  0.49999997703E+02 0.  0.
         12    1    1    2    0    0 -0.27507050176E+02 -0.13246277615E+02 -0.91988567622E+01  0.31886057232E+02  0.00000000000E+00 0. -1.
         11    1    3    3    0    0  0.17897520945E+02  0.13364100400E+02  0.21371527601E+02  0.30913793487E+02  0.51100000000E-03 0.  1.
        -11    1    3    3    0    0  0.15040615910E+02 -0.18714320500E+00 -0.15832566099E+02  0.21838619440E+02  0.51100000000E-03 0. -1.
         12    1    3    3    0    0 -0.54310866784E+01  0.69320419975E-01  0.36598952599E+01  0.65495298413E+01  0.00000000000E+00 0. -1.
</event>
<event>
 7    1  0.7755875E-012  0.5930194E+02  0.7816164E-02  0.1266605E+00
        -11   -1    0    0    0    0  0.00000000000E+00  0.00000000000E+00  0.45593999997E+02  0.45594000000E+02  0.51100000000E-03 0.  1.
         11   -1    0    0    0    0 -0.00000000000E+00 -0.00000000000E+00 -0.45593999997E+02  0.45594000000E+02  0.51100000000E-03 0. -1.
    9900012    2    1    2    0    0 -0.16166384938E+02  0.24224407200E+02  0.12982561153E+02  0.59301940346E+02  0.49999993286E+02 0.  0.
         12    1    1    2    0    0  0.16166384938E+02 -0.24224407200E+02 -0.12982561153E+02  0.31886059654E+02  0.00000000000E+00 0. -1.
         11    1    3    3    0    0 -0.81086202676E+01 -0.10559879853E+01  0.24910390822E+01  0.85481055936E+01  0.51100000000E-03 0. -1.
        -11    1    3    3    0    0  0.84549954993E+01  0.29356262540E+02  0.13640316713E+02  0.33456469323E+02  0.51100000000E-03 0.  1.
        -12    1    3    3    0    0 -0.16512760170E+02 -0.40758673553E+01 -0.31487946423E+01  0.17297365430E+02  0.00000000000E+00 0.  1.
</event>
<event>
 7    1  0.8265847E-012  0.5930195E+02  0.7816164E-02  0.1266605E+00
        -11   -1    0    0    0    0  0.00000000000E+00  0.00000000000E+00  0.45593999997E+02  0.45594000000E+02  0.51100000000E-03 0. -1.
         11   -1    0    0    0    0 -0.00000000000E+00 -0.00000000000E+00 -0.45593999997E+02  0.45594000000E+02  0.51100000000E-03 0.  1.
    9900012    2    1    2    0    0 -0.16906354287E+02 -0.24396707474E+01 -0.26924772999E+02  0.59301949607E+02  0.50000010174E+02 0.  0.
         12    1    1    2    0    0  0.16906354287E+02  0.24396707474E+01  0.26924772999E+02  0.31886050393E+02  0.00000000000E+00 0. -1.
         11    1    3    3    0    0 -0.58047676918E+01 -0.12176044573E+02  0.50789960041E+01  0.14413451706E+02  0.51100000000E-03 0. -1.
        -11    1    3    3    0    0 -0.20295135007E+02  0.47169035989E+01 -0.19072482777E+02  0.28247146477E+02  0.51100000000E-03 0.  1.
         12    1    3    3    0    0  0.91935484119E+01  0.50194702270E+01 -0.12931286226E+02  0.16641351424E+02  0.00000000000E+00 0. -1.
</event>
<event>
 7    1  0.7755875E-012  0.5930194E+02  0.7816164E-02  0.1266605E+00
        -11   -1    0    0    0    0  0.00000000000E+00  0.00000000000E+00  0.45593999997E+02  0.45594000000E+02  0.51100000000E-03 0.  1.
         11   -1    0    0    0    0 -0.00000000000E+00 -0.00000000000E+00 -0.45593999997E+02  0.45594000000E+02  0.51100000000E-03 0. -1.
    9900012    2    1    2    0    0  0.15909273284E+02 -0.22532529927E+02  0.15996904962E+02  0.59301939571E+02  0.49999991872E+02 0.  0.
         12    1    1    2    0    0 -0.15909273284E+02  0.22532529927E+02 -0.15996904962E+02  0.31886060429E+02  0.00000000000E+00 0. -1.
         11    1    3    3    0    0 -0.83601123088E+01  0.88086475957E+01  0.65176457976E+01  0.13782723145E+02  0.51100000000E-03 0. -1.
        -11    1    3    3    0    0  0.83697580111E+01 -0.15221762176E+02  0.14145440543E+02  0.22401972711E+02  0.51100000000E-03 0.  1.
         12    1    3    3    0    0  0.15899627582E+02 -0.16119415346E+02 -0.46661813786E+01  0.23117243715E+02  0.00000000000E+00 0. -1.
</event>
<event>
 7    1  0.7755875E-012  0.5930196E+02  0.7816164E-02  0.1266605E+00
        -11   -1    0    0    0    0  0.00000000000E+00  0.00000000000E+00  0.45593999997E+02  0.45594000000E+02  0.51100000000E-03 0. -1.
         11   -1    0    0    0    0 -0.00000000000E+00 -0.00000000000E+00 -0.45593999997E+02  0.45594000000E+02  0.51100000000E-03 0.  1.
    9900012    2    1    2    0    0 -0.29978223854E+02  0.94304076008E+01 -0.53937795024E+01  0.59301963083E+02  0.50000034752E+02 0.  0.
         12    1    1    2    0    0  0.29978223854E+02 -0.94304076008E+01  0.53937795024E+01  0.31886036917E+02  0.00000000000E+00 0. -1.
         11    1    3    3    0    0 -0.86761835766E+01 -0.13791413145E+02 -0.10491481769E+02  0.19379123508E+02  0.51100000000E-03 0. -1.
        -11    1    3    3    0    0 -0.17825779865E+01  0.15269987795E+02 -0.55045584517E+01  0.16329429737E+02  0.51100000000E-03 0.  1.
         12    1    3    3    0    0 -0.19519462291E+02  0.79518329505E+01  0.10602260718E+02  0.23593409837E+02  0.00000000000E+00 0. -1.
</event>
<event>
 7    1  0.7755875E-012  0.5930194E+02  0.7816164E-02  0.1266605E+00
        -11   -1    0    0    0    0  0.00000000000E+00  0.00000000000E+00  0.45593999997E+02  0.45594000000E+02  0.51100000000E-03 0.  1.
         11   -1    0    0    0    0 -0.00000000000E+00 -0.00000000000E+00 -0.45593999997E+02  0.45594000000E+02  0.51100000000E-03 0. -1.
    9900012    2    1    2    0    0 -0.16260689851E+02 -0.27219603727E+02  0.33769536159E+01  0.59301942275E+02  0.49999996804E+02 0.  0.
         12    1    1    2    0    0  0.16260689851E+02  0.27219603727E+02 -0.33769536159E+01  0.31886057725E+02  0.00000000000E+00 0. -1.
         11    1    3    3    0    0 -0.34362864852E+01 -0.27218017576E+02  0.66198061247E+01  0.28221452461E+02  0.51100000000E-03 0. -1.
        -11    1    3    3    0    0 -0.14982324621E+02  0.86867333122E+01 -0.98778896303E+01  0.19937454463E+02  0.51100000000E-03 0.  1.
        -12    1    3    3    0    0  0.21579212545E+01 -0.86883194632E+01  0.66350371215E+01  0.11143035351E+02  0.00000000000E+00 0.  1.
</event>
<event>
 7    1  0.7755875E-012  0.5930192E+02  0.7816164E-02  0.1266605E+00
        -11   -1    0    0    0    0  0.00000000000E+00  0.00000000000E+00  0.45593999997E+02  0.45594000000E+02  0.51100000000E-03 0.  1.
         11   -1    0    0    0    0 -0.00000000000E+00 -0.00000000000E+00 -0.45593999997E+02  0.45594000000E+02  0.51100000000E-03 0. -1.
    9900012    2    1    2    0    0  0.73895642317E+01  0.22831446403E+01  0.30933855463E+02  0.59301924312E+02  0.49999964043E+02 0.  0.
         12    1    1    2    0    0 -0.73895642317E+01 -0.22831446403E+01 -0.30933855463E+02  0.31886075688E+02  0.00000000000E+00 0. -1.
         11    1    3    3    0    0 -0.11223505510E+02  0.67249220694E+01 -0.80423420655E+01  0.15358089690E+02  0.51100000000E-03 0. -1.
        -11    1    3    3    0    0  0.39080202108E+01 -0.39879989695E+01  0.10673357146E+02  0.12045634511E+02  0.51100000000E-03 0.  1.
         12    1    3    3    0    0  0.14705049531E+02 -0.45377845959E+00  0.28302840383E+02  0.31898200111E+02  0.00000000000E+00 0. -1.
</event>
<event>
 7    1  0.7755875E-012  0.5930193E+02  0.7816164E-02  0.1266605E+00
        -11   -1    0    0    0    0  0.00000000000E+00  0.00000000000E+00  0.45593999997E+02  0.45594000000E+02  0.51100000000E-03 0. -1.
         11   -1    0    0    0    0 -0.00000000000E+00 -0.00000000000E+00 -0.45593999997E+02  0.45594000000E+02  0.51100000000E-03 0.  1.
    9900012    2    1    2    0    0 -0.14515228899E+02  0.17327296001E+02 -0.22489878813E+02  0.59301926148E+02  0.49999967391E+02 0.  0.
         12    1    1    2    0    0  0.14515228899E+02 -0.17327296001E+02  0.22489878813E+02  0.31886073852E+02  0.00000000000E+00 0. -1.
         11    1    3    3    0    0  0.63633645749E+01  0.67245853451E+01 -0.21082341034E+01  0.94951096925E+01  0.51100000000E-03 0. -1.
        -11    1    3    3    0    0 -0.16158308540E+02  0.19405118628E+02 -0.27656327143E+02  0.37450260281E+02  0.51100000000E-03 0.  1.
        -12    1    3    3    0    0 -0.47202849346E+01 -0.88024079719E+01  0.72746824340E+01  0.12356556174E+02  0.00000000000E+00 0.  1.
</event>
<event>
 7    1  0.7755875E-012  0.5930188E+02  0.7816164E-02  0.1266605E+00
        -11   -1    0    0    0    0  0.00000000000E+00  0.00000000000E+00  0.45593999997E+02  0.45594000000E+02  0.51100000000E-03 0.  1.
         11   -1    0    0    0    0 -0.00000000000E+00 -0.00000000000E+00 -0.45593999997E+02  0.45594000000E+02  0.51100000000E-03 0. -1.
    9900012    2    1    2    0    0  0.53094291511E+01 -0.16975221563E+02  0.26464621011E+02  0.59301884679E+02  0.49999891761E+02 0.  0.
         12    1    1    2    0    0 -0.53094291511E+01  0.16975221563E+02 -0.26464621011E+02  0.31886115321E+02  0.00000000000E+00 0. -1.
         11    1    3    3    0    0 -0.30720830120E+01  0.10245120361E+00 -0.38597506670E+01  0.49341529926E+01  0.51100000000E-03 0. -1.
        -11    1    3    3    0    0  0.44900825940E+01 -0.30372739157E+02  0.24746070293E+02  0.39433895583E+02  0.51100000000E-03 0.  1.
        -12    1    3    3    0    0  0.38914295691E+01  0.13295066391E+02  0.55783013852E+01  0.14933836103E+02  0.00000000000E+00 0.  1.
</event>
<event>
 7    1  0.7755875E-012  0.5930197E+02  0.7816164E-02  0.1266605E+00
        -11   -1    0    0    0    0  0.00000000000E+00  0.00000000000E+00  0.45593999997E+02  0.45594000000E+02  0.51100000000E-03 0.  1.
         11   -1    0    0    0    0 -0.00000000000E+00 -0.00000000000E+00 -0.45593999997E+02  0.45594000000E+02  0.51100000000E-03 0. -1.
    9900012    2    1    2    0    0 -0.20102882056E+02 -0.24325836075E+02  0.45658410594E+01  0.59301967442E+02  0.50000042702E+02 0.  0.
         12    1    1    2    0    0  0.20102882056E+02  0.24325836075E+02 -0.45658410594E+01  0.31886032558E+02  0.00000000000E+00 0. -1.
         11    1    3    3    0    0 -0.29314802519E+00 -0.14858791891E+02 -0.36224591604E+01  0.15296791914E+02  0.51100000000E-03 0. -1.
        -11    1    3    3    0    0 -0.92973303052E+01  0.60994576870E+01  0.19232244725E+02  0.22215376933E+02  0.51100000000E-03 0.  1.
        -12    1    3    3    0    0 -0.10512403725E+02 -0.15566501871E+02 -0.11043944505E+02  0.21789798595E+02  0.00000000000E+00 0.  1.
</event>
<event>
 7    1  0.7755875E-012  0.5930189E+02  0.7816164E-02  0.1266605E+00
        -11   -1    0    0    0    0  0.00000000000E+00  0.00000000000E+00  0.45593999997E+02  0.45594000000E+02  0.51100000000E-03 0.  1.
         11   -1    0    0    0    0 -0.00000000000E+00 -0.00000000000E+00 -0.45593999997E+02  0.45594000000E+02  0.51100000000E-03 0. -1.
    9900012    2    1    2    0    0 -0.25325536769E+02 -0.11775102460E+02  0.15384665680E+02  0.59301893485E+02  0.49999907822E+02 0.  0.
         12    1    1    2    0    0  0.25325536769E+02  0.11775102460E+02 -0.15384665680E+02  0.31886106515E+02  0.00000000000E+00 0. -1.
         11    1    3    3    0    0 -0.14587013440E+02 -0.19675941991E+02  0.16139475938E+02  0.29332683787E+02  0.51100000000E-03 0.  1.
        -11    1    3    3    0    0 -0.14728206494E+01  0.11110198402E+02  0.10279339038E+02  0.15207581022E+02  0.51100000000E-03 0. -1.
        -12    1    3    3    0    0 -0.92657026795E+01 -0.32093588719E+01 -0.11034149296E+02  0.14761628677E+02  0.00000000000E+00 0.  1.
</event>
<event>
 7    1  0.7755875E-012  0.5930193E+02  0.7816164E-02  0.1266605E+00
        -11   -1    0    0    0    0  0.00000000000E+00  0.00000000000E+00  0.45593999997E+02  0.45594000000E+02  0.51100000000E-03 0. -1.
         11   -1    0    0    0    0 -0.00000000000E+00 -0.00000000000E+00 -0.45593999997E+02  0.45594000000E+02  0.51100000000E-03 0.  1.
    9900012    2    1    2    0    0 -0.15091681316E+02  0.27768472205E+02  0.42277975114E+01  0.59301934621E+02  0.49999982845E+02 0.  0.
         12    1    1    2    0    0  0.15091681316E+02 -0.27768472205E+02 -0.42277975114E+01  0.31886065379E+02  0.00000000000E+00 0. -1.
         11    1    3    3    0    0 -0.10179742504E+02  0.55550787471E+00 -0.41426952373E+00  0.10203301718E+02  0.51100000000E-03 0. -1.
        -11    1    3    3    0    0  0.68279499807E+01  0.34266017620E+02  0.55284041808E+01  0.35374342645E+02  0.51100000000E-03 0.  1.
        -12    1    3    3    0    0 -0.11739888792E+02 -0.70530532901E+01 -0.88633714573E+00  0.13724290259E+02  0.00000000000E+00 0.  1.
</event>
<event>
 7    1  0.7755875E-012  0.5930195E+02  0.7816164E-02  0.1266605E+00
        -11   -1    0    0    0    0  0.00000000000E+00  0.00000000000E+00  0.45593999997E+02  0.45594000000E+02  0.51100000000E-03 0.  1.
         11   -1    0    0    0    0 -0.00000000000E+00 -0.00000000000E+00 -0.45593999997E+02  0.45594000000E+02  0.51100000000E-03 0. -1.
    9900012    2    1    2    0    0 -0.42544144451E+01 -0.30242071220E+02 -0.91671882070E+01  0.59301948918E+02  0.50000008919E+02 0.  0.
         12    1    1    2    0    0  0.42544144451E+01  0.30242071220E+02  0.91671882070E+01  0.31886051082E+02  0.00000000000E+00 0. -1.
         11    1    3    3    0    0 -0.16155908184E+01  0.85780326458E+01 -0.15501801060E+02  0.17790407924E+02  0.51100000000E-03 0. -1.
        -11    1    3    3    0    0 -0.51981719567E+01 -0.37928167772E+02  0.63218519654E+01  0.38801194759E+02  0.51100000000E-03 0.  1.
         12    1    3    3    0    0  0.25593483300E+01 -0.89193609408E+00  0.12760887217E-01  0.27103462344E+01  0.00000000000E+00 0. -1.
</event>
<event>
 7    1  0.7755875E-012  0.5930190E+02  0.7816164E-02  0.1266605E+00
        -11   -1    0    0    0    0  0.00000000000E+00  0.00000000000E+00  0.45593999997E+02  0.45594000000E+02  0.51100000000E-03 0. -1.
         11   -1    0    0    0    0 -0.00000000000E+00 -0.00000000000E+00 -0.45593999997E+02  0.45594000000E+02  0.51100000000E-03 0.  1.
    9900012    2    1    2    0    0  0.23621996281E+02 -0.17458032690E+02 -0.12407316183E+02  0.59301904150E+02  0.49999927272E+02 0.  0.
         12    1    1    2    0    0 -0.23621996281E+02  0.17458032690E+02  0.12407316183E+02  0.31886095850E+02  0.00000000000E+00 0. -1.
         11    1    3    3    0    0  0.25424422218E+02  0.93630647726E+01 -0.10151760118E+02  0.28933137763E+02  0.51100000000E-03 0. -1.
        -11    1    3    3    0    0 -0.53866881350E+01 -0.36913028001E+01 -0.24150276375E+01  0.69623619683E+01  0.51100000000E-03 0.  1.
         12    1    3    3    0    0  0.35842621981E+01 -0.23129794662E+02  0.15947157254E+00  0.23406404419E+02  0.00000000000E+00 0. -1.
</event>
<event>
 7    1  0.7755875E-012  0.5930194E+02  0.7816164E-02  0.1266605E+00
        -11   -1    0    0    0    0  0.00000000000E+00  0.00000000000E+00  0.45593999997E+02  0.45594000000E+02  0.51100000000E-03 0. -1.
         11   -1    0    0    0    0 -0.00000000000E+00 -0.00000000000E+00 -0.45593999997E+02  0.45594000000E+02  0.51100000000E-03 0.  1.
    9900012    2    1    2    0    0 -0.25550217708E+02  0.88771130717E+01 -0.16885017258E+02  0.59301943969E+02  0.49999999893E+02 0.  0.
         12    1    1    2    0    0  0.25550217708E+02 -0.88771130717E+01  0.16885017258E+02  0.31886056031E+02  0.00000000000E+00 0. -1.
         11    1    3    3    0    0 -0.17005375490E+02 -0.33976615598E+01  0.51919343462E+01  0.18102018731E+02  0.51100000000E-03 0. -1.
        -11    1    3    3    0    0 -0.15421189829E+02  0.16310220557E+02 -0.24141089208E+02  0.32964049794E+02  0.51100000000E-03 0.  1.
        -12    1    3    3    0    0  0.68763476111E+01 -0.40354459256E+01  0.20641376040E+01  0.82358754444E+01  0.00000000000E+00 0.  1.
</event>
<event>
 7    1  0.7755875E-012  0.5930181E+02  0.7816164E-02  0.1266605E+00
        -11   -1    0    0    0    0  0.00000000000E+00  0.00000000000E+00  0.45593999997E+02  0.45594000000E+02  0.51100000000E-03 0.  1.
         11   -1    0    0    0    0 -0.00000000000E+00 -0.00000000000E+00 -0.45593999997E+02  0.45594000000E+02  0.51100000000E-03 0. -1.
    9900012    2    1    2    0    0 -0.17892311485E+01 -0.25517274110E+02 -0.19036708323E+02  0.59301813494E+02  0.49999761937E+02 0.  0.
         12    1    1    2    0    0  0.17892311485E+01  0.25517274110E+02  0.19036708323E+02  0.31886186506E+02  0.00000000000E+00 0. -1.
         11    1    3    3    0    0 -0.24693411728E+02 -0.16282814393E+02 -0.11477866138E+02  0.31727528090E+02  0.51100000000E-03 0. -1.
        -11    1    3    3    0    0  0.66048179149E+01 -0.20695562124E+01  0.22100695466E+01  0.72657477432E+01  0.51100000000E-03 0.  1.
         12    1    3    3    0    0  0.16299362665E+02 -0.71649035042E+01 -0.97689117321E+01  0.20308537661E+02  0.00000000000E+00 0. -1.
</event>
<event>
 7    1  0.7755875E-012  0.5930193E+02  0.7816164E-02  0.1266605E+00
        -11   -1    0    0    0    0  0.00000000000E+00  0.00000000000E+00  0.45593999997E+02  0.45594000000E+02  0.51100000000E-03 0.  1.
         11   -1    0    0    0    0 -0.00000000000E+00 -0.00000000000E+00 -0.45593999997E+02  0.45594000000E+02  0.51100000000E-03 0. -1.
    9900012    2    1    2    0    0  0.16885424191E+02  0.80142630693E+01  0.25833614792E+02  0.59301927556E+02  0.49999969960E+02 0.  0.
         12    1    1    2    0    0 -0.16885424191E+02 -0.80142630693E+01 -0.25833614792E+02  0.31886072444E+02  0.00000000000E+00 0. -1.
         11    1    3    3    0    0  0.11661554994E+02  0.20796389903E+01 -0.56545465311E+01  0.13125953678E+02  0.51100000000E-03 0. -1.
        -11    1    3    3    0    0 -0.18134699242E+01  0.15154090600E+02  0.31016295415E+02  0.34567986875E+02  0.51100000000E-03 0.  1.
        -12    1    3    3    0    0  0.70373391210E+01 -0.92194665213E+01  0.47186590862E+00  0.11607987004E+02  0.00000000000E+00 0.  1.
</event>
<event>
 7    1  0.7755875E-012  0.5930192E+02  0.7816164E-02  0.1266605E+00
        -11   -1    0    0    0    0  0.00000000000E+00  0.00000000000E+00  0.45593999997E+02  0.45594000000E+02  0.51100000000E-03 0.  1.
         11   -1    0    0    0    0 -0.00000000000E+00 -0.00000000000E+00 -0.45593999997E+02  0.45594000000E+02  0.51100000000E-03 0. -1.
    9900012    2    1    2    0    0 -0.25183446471E+02 -0.15185511659E+02  0.12325443397E+02  0.59301916900E+02  0.49999950526E+02 0.  0.
         12    1    1    2    0    0  0.25183446471E+02  0.15185511659E+02 -0.12325443397E+02  0.31886083100E+02  0.00000000000E+00 0. -1.
         11    1    3    3    0    0 -0.32400625455E+02 -0.36475094849E+01  0.14924268551E+02  0.35858592379E+02  0.51100000000E-03 0. -1.
        -11    1    3    3    0    0  0.22988430513E+01 -0.59895262274E+01  0.81581484309E+01  0.10378559143E+02  0.51100000000E-03 0.  1.
         12    1    3    3    0    0  0.49183359329E+01 -0.55484759468E+01 -0.10756973585E+02  0.13064765378E+02  0.00000000000E+00 0. -1.
</event>
<event>
 7    1  0.7755875E-012  0.5930179E+02  0.7816164E-02  0.1266605E+00
        -11   -1    0    0    0    0  0.00000000000E+00  0.00000000000E+00  0.45593999997E+02  0.45594000000E+02  0.51100000000E-03 0.  1.
         11   -1    0    0    0    0 -0.00000000000E+00 -0.00000000000E+00 -0.45593999997E+02  0.45594000000E+02  0.51100000000E-03 0. -1.
    9900012    2    1    2    0    0  0.17002439427E+02  0.58724914107E+01  0.26327958889E+02  0.59301787915E+02  0.49999715287E+02 0.  0.
         12    1    1    2    0    0 -0.17002439427E+02 -0.58724914107E+01 -0.26327958889E+02  0.31886212085E+02  0.00000000000E+00 0. -1.
         11    1    3    3    0    0  0.88972576349E+01  0.23877887643E+02  0.27936863748E+02  0.37812472388E+02  0.51100000000E-03 0. -1.
        -11    1    3    3    0    0 -0.33854267864E+00 -0.42224996512E+01  0.23550260970E+01  0.48466754201E+01  0.51100000000E-03 0.  1.
         12    1    3    3    0    0  0.84437244709E+01 -0.13782896581E+02 -0.39639309558E+01  0.16642640107E+02  0.00000000000E+00 0. -1.
</event>
<event>
 7    1  0.7755875E-012  0.5930194E+02  0.7816164E-02  0.1266605E+00
        -11   -1    0    0    0    0  0.00000000000E+00  0.00000000000E+00  0.45593999997E+02  0.45594000000E+02  0.51100000000E-03 0. -1.
         11   -1    0    0    0    0 -0.00000000000E+00 -0.00000000000E+00 -0.45593999997E+02  0.45594000000E+02  0.51100000000E-03 0.  1.
    9900012    2    1    2    0    0 -0.59876520608E+00 -0.21571262063E+02 -0.23474310213E+02  0.59301935541E+02  0.49999984521E+02 0.  0.
         12    1    1    2    0    0  0.59876520608E+00  0.21571262063E+02  0.23474310213E+02  0.31886064459E+02  0.00000000000E+00 0. -1.
         11    1    3    3    0    0  0.14401929270E+02  0.11041036041E+02 -0.64293723292E+01  0.19252451074E+02  0.51100000000E-03 0. -1.
        -11    1    3    3    0    0 -0.12423334731E+02 -0.22141096964E+02 -0.10818069243E+02  0.27597065841E+02  0.51100000000E-03 0.  1.
         12    1    3    3    0    0 -0.25773597460E+01 -0.10471201139E+02 -0.62268686408E+01  0.12452418625E+02  0.00000000000E+00 0. -1.
</event>
<event>
 7    1  0.7755875E-012  0.5930193E+02  0.7816164E-02  0.1266605E+00
        -11   -1    0    0    0    0  0.00000000000E+00  0.00000000000E+00  0.45593999997E+02  0.45594000000E+02  0.51100000000E-03 0. -1.
         11   -1    0    0    0    0 -0.00000000000E+00 -0.00000000000E+00 -0.45593999997E+02  0.45594000000E+02  0.51100000000E-03 0.  1.
    9900012    2    1    2    0    0 -0.17369037200E+02 -0.20122684632E+02 -0.17610104696E+02  0.59301926591E+02  0.49999968199E+02 0.  0.
         12    1    1    2    0    0  0.17369037200E+02  0.20122684632E+02  0.17610104696E+02  0.31886073409E+02  0.00000000000E+00 0. -1.
         11    1    3    3    0    0  0.43947084858E+01 -0.66640519710E+01  0.73194374298E+01  0.10830383922E+02  0.51100000000E-03 0. -1.
        -11    1    3    3    0    0 -0.26137809826E+02 -0.89241688572E+00 -0.23372560790E+02  0.35075035403E+02  0.51100000000E-03 0.  1.
        -12    1    3    3    0    0  0.43740641406E+01 -0.12566215776E+02 -0.15569813358E+01  0.13396507265E+02  0.00000000000E+00 0.  1.
</event>
<event>
 7    1  0.7755875E-012  0.5930194E+02  0.7816164E-02  0.1266605E+00
        -11   -1    0    0    0    0  0.00000000000E+00  0.00000000000E+00  0.45593999997E+02  0.45594000000E+02  0.51100000000E-03 0.  1.
         11   -1    0    0    0    0 -0.00000000000E+00 -0.00000000000E+00 -0.45593999997E+02  0.45594000000E+02  0.51100000000E-03 0. -1.
    9900012    2    1    2    0    0 -0.18209808714E+02 -0.18940688953E+02  0.18065821243E+02  0.59301941469E+02  0.49999995334E+02 0.  0.
         12    1    1    2    0    0  0.18209808714E+02  0.18940688953E+02 -0.18065821243E+02  0.31886058531E+02  0.00000000000E+00 0. -1.
         11    1    3    3    0    0  0.93373064634E+01 -0.15446129211E+02  0.10165166023E+02  0.20714700097E+02  0.51100000000E-03 0.  1.
        -11    1    3    3    0    0 -0.28238505960E+02 -0.89662896692E+01  0.11738093348E+02  0.31868329184E+02  0.51100000000E-03 0. -1.
         12    1    3    3    0    0  0.69139078188E+00  0.54717299265E+01 -0.38374381279E+01  0.67189121878E+01  0.00000000000E+00 0. -1.
</event>
<event>
 7    1  0.7755875E-012  0.5930196E+02  0.7816164E-02  0.1266605E+00
        -11   -1    0    0    0    0  0.00000000000E+00  0.00000000000E+00  0.45593999997E+02  0.45594000000E+02  0.51100000000E-03 0. -1.
         11   -1    0    0    0    0 -0.00000000000E+00 -0.00000000000E+00 -0.45593999997E+02  0.45594000000E+02  0.51100000000E-03 0.  1.
    9900012    2    1    2    0    0 -0.19148877667E+02 -0.78689045700E+01 -0.24251187214E+02  0.59301964556E+02  0.50000037438E+02 0.  0.
         12    1    1    2    0    0  0.19148877667E+02  0.78689045700E+01  0.24251187214E+02  0.31886035444E+02  0.00000000000E+00 0. -1.
         11    1    3    3    0    0 -0.10215530937E+02 -0.26614122317E+01  0.14219147816E+02  0.17709442461E+02  0.51100000000E-03 0. -1.
        -11    1    3    3    0    0 -0.62757146122E+01  0.41637306803E+00 -0.32019093275E+02  0.32630971405E+02  0.51100000000E-03 0.  1.
         12    1    3    3    0    0 -0.26576321175E+01 -0.56238654064E+01 -0.64512417549E+01  0.89615506896E+01  0.00000000000E+00 0. -1.
</event>
