<event>
 7    1  0.2328615E-009  0.4778727E+02  0.7816164E-02  0.1312668E+00
        -11   -1    0    0    0    0  0.00000000000E+00  0.00000000000E+00  0.45593999997E+02  0.45594000000E+02  0.51100000000E-03 0. -1.
         11   -1    0    0    0    0 -0.00000000000E+00 -0.00000000000E+00 -0.45593999997E+02  0.45594000000E+02  0.51100000000E-03 0.  1.
    9900012    2    1    2    0    0  0.23456659096E+02  0.36153615290E+02  0.51307618010E+01  0.47787268772E+02  0.19999989640E+02 0.  0.
         12    1    1    2    0    0 -0.23456659096E+02 -0.36153615290E+02 -0.51307618010E+01  0.43400731228E+02  0.00000000000E+00 0. -1.
         11    1    3    3    0    0  0.25399105368E+01  0.35566187596E+01  0.26075709052E+01  0.50892149515E+01  0.51100000000E-03 0. -1.
        -11    1    3    3    0    0  0.77297817216E+01  0.26861224646E+02  0.40244400057E+01  0.28239529610E+02  0.51100000000E-03 0.  1.
         12    1    3    3    0    0  0.13186966837E+02  0.57357718841E+01 -0.15012491099E+01  0.14458524211E+02  0.00000000000E+00 0. -1.
</event>
<event>
 7    1  0.2328615E-009  0.4778727E+02  0.7816164E-02  0.1312668E+00
        -11   -1    0    0    0    0  0.00000000000E+00  0.00000000000E+00  0.45593999997E+02  0.45594000000E+02  0.51100000000E-03 0.  1.
         11   -1    0    0    0    0 -0.00000000000E+00 -0.00000000000E+00 -0.45593999997E+02  0.45594000000E+02  0.51100000000E-03 0. -1.
    9900012    2    1    2    0    0 -0.43611242516E+01 -0.98028261049E+01  0.42053639659E+02  0.47787269442E+02  0.19999992693E+02 0.  0.
         12    1    1    2    0    0  0.43611242516E+01  0.98028261049E+01 -0.42053639659E+02  0.43400730558E+02  0.00000000000E+00 0. -1.
         11    1    3    3    0    0 -0.33469842288E+01  0.13119094520E+01  0.53463752696E+01  0.64426034041E+01  0.51100000000E-03 0. -1.
        -11    1    3    3    0    0 -0.33542387820E+01 -0.26065989953E+01  0.29899366512E+02  0.30199625730E+02  0.51100000000E-03 0.  1.
         12    1    3    3    0    0  0.23400987592E+01 -0.85081365616E+01  0.68078978773E+01  0.11145040308E+02  0.00000000000E+00 0. -1.
</event>
<event>
 7    1  0.2328615E-009  0.4778727E+02  0.7816164E-02  0.1312668E+00
        -11   -1    0    0    0    0  0.00000000000E+00  0.00000000000E+00  0.45593999997E+02  0.45594000000E+02  0.51100000000E-03 0.  1.
         11   -1    0    0    0    0 -0.00000000000E+00 -0.00000000000E+00 -0.45593999997E+02  0.45594000000E+02  0.51100000000E-03 0. -1.
    9900012    2    1    2    0    0  0.28476371526E+02 -0.31609424863E+02 -0.85769452316E+01  0.47787268843E+02  0.19999989964E+02 0.  0.
         12    1    1    2    0    0 -0.28476371526E+02  0.31609424863E+02  0.85769452316E+01  0.43400731157E+02  0.00000000000E+00 0. -1.
         11    1    3    3    0    0  0.56075214373E+00 -0.19284862834E+00  0.19079985353E+01  0.19980220799E+01  0.51100000000E-03 0. -1.
        -11    1    3    3    0    0  0.10212905621E+02 -0.18741655369E+02  0.61092327344E+00  0.21352431119E+02  0.51100000000E-03 0.  1.
         12    1    3    3    0    0  0.17702713761E+02 -0.12674920866E+02 -0.11095867040E+02  0.24436815644E+02  0.00000000000E+00 0. -1.
</event>
<event>
 7    1  0.2328615E-009  0.4778726E+02  0.7816164E-02  0.1312668E+00
        -11   -1    0    0    0    0  0.00000000000E+00  0.00000000000E+00  0.45593999997E+02  0.45594000000E+02  0.51100000000E-03 0.  1.
         11   -1    0    0    0    0 -0.00000000000E+00 -0.00000000000E+00 -0.45593999997E+02  0.45594000000E+02  0.51100000000E-03 0. -1.
    9900012    2    1    2    0    0 -0.36495779490E+02  0.10736298049E+02 -0.20890521992E+02  0.47787263538E+02  0.19999965775E+02 0.  0.
         12    1    1    2    0    0  0.36495779490E+02 -0.10736298049E+02  0.20890521992E+02  0.43400736462E+02  0.00000000000E+00 0. -1.
         11    1    3    3    0    0 -0.17745624965E+02  0.19808596045E+01 -0.12898043900E+02  0.22027041265E+02  0.51100000000E-03 0. -1.
        -11    1    3    3    0    0 -0.18905345005E+02  0.84865565545E+01 -0.10501703996E+02  0.23231863873E+02  0.51100000000E-03 0.  1.
         12    1    3    3    0    0  0.15519048078E+00  0.26888188978E+00  0.25092259050E+01  0.25283583999E+01  0.00000000000E+00 0. -1.
</event>
<event>
 7    1  0.2328615E-009  0.4778727E+02  0.7816164E-02  0.1312668E+00
        -11   -1    0    0    0    0  0.00000000000E+00  0.00000000000E+00  0.45593999997E+02  0.45594000000E+02  0.51100000000E-03 0. -1.
         11   -1    0    0    0    0 -0.00000000000E+00 -0.00000000000E+00 -0.45593999997E+02  0.45594000000E+02  0.51100000000E-03 0.  1.
    9900012    2    1    2    0    0 -0.25909719671E+02 -0.26575357484E+02 -0.22495785833E+02  0.47787267528E+02  0.19999983967E+02 0.  0.
         12    1    1    2    0    0  0.25909719671E+02  0.26575357484E+02  0.22495785833E+02  0.43400732472E+02  0.00000000000E+00 0. -1.
         11    1    3    3    0    0 -0.13439941731E+02 -0.18940249352E+02 -0.11530417816E+02  0.25929049626E+02  0.51100000000E-03 0. -1.
        -11    1    3    3    0    0 -0.12798621654E+02 -0.10160599018E+02 -0.91297789816E+01  0.18718850210E+02  0.51100000000E-03 0.  1.
         12    1    3    3    0    0  0.32884371372E+00  0.25254908857E+01 -0.18355890357E+01  0.31393676927E+01  0.00000000000E+00 0. -1.
</event>
<event>
 7    1  0.2328615E-009  0.4778727E+02  0.7816164E-02  0.1312668E+00
        -11   -1    0    0    0    0  0.00000000000E+00  0.00000000000E+00  0.45593999997E+02  0.45594000000E+02  0.51100000000E-03 0.  1.
         11   -1    0    0    0    0 -0.00000000000E+00 -0.00000000000E+00 -0.45593999997E+02  0.45594000000E+02  0.51100000000E-03 0. -1.
    9900012    2    1    2    0    0  0.29476324599E+02 -0.70177485473E+01  0.31072830993E+02  0.47787270370E+02  0.19999996925E+02 0.  0.
         12    1    1    2    0    0 -0.29476324599E+02  0.70177485473E+01 -0.31072830993E+02  0.43400729630E+02  0.00000000000E+00 0. -1.
         11    1    3    3    0    0 -0.14351884759E+01 -0.29231627212E+01  0.66315140037E+00  0.33233140533E+01  0.51100000000E-03 0. -1.
        -11    1    3    3    0    0  0.55912230429E+01 -0.33429861591E+01  0.30986701550E+01  0.72138123462E+01  0.51100000000E-03 0.  1.
        -12    1    3    3    0    0  0.25320290032E+02 -0.75159966699E+00  0.27311009437E+02  0.37250143971E+02  0.00000000000E+00 0.  1.
</event>
<event>
 7    1  0.2328615E-009  0.4778727E+02  0.7816164E-02  0.1312668E+00
        -11   -1    0    0    0    0  0.00000000000E+00  0.00000000000E+00  0.45593999997E+02  0.45594000000E+02  0.51100000000E-03 0. -1.
         11   -1    0    0    0    0 -0.00000000000E+00 -0.00000000000E+00 -0.45593999997E+02  0.45594000000E+02  0.51100000000E-03 0.  1.
    9900012    2    1    2    0    0  0.18912137978E+02 -0.18068470007E+02 -0.34633575706E+02  0.47787272616E+02  0.20000007166E+02 0.  0.
         12    1    1    2    0    0 -0.18912137978E+02  0.18068470007E+02  0.34633575706E+02  0.43400727384E+02  0.00000000000E+00 0. -1.
         11    1    3    3    0    0  0.15044569952E+02 -0.80585679971E+01 -0.31948067750E+02  0.36220969568E+02  0.51100000000E-03 0. -1.
        -11    1    3    3    0    0  0.35470513783E+01 -0.46162428039E+01 -0.10042834853E+01  0.59076100654E+01  0.51100000000E-03 0.  1.
         12    1    3    3    0    0  0.32051664751E+00 -0.53936592060E+01 -0.16812244700E+01  0.56586929825E+01  0.00000000000E+00 0. -1.
</event>
<event>
 7    1  0.2328615E-009  0.4778726E+02  0.7816164E-02  0.1312668E+00
        -11   -1    0    0    0    0  0.00000000000E+00  0.00000000000E+00  0.45593999997E+02  0.45594000000E+02  0.51100000000E-03 0.  1.
         11   -1    0    0    0    0 -0.00000000000E+00 -0.00000000000E+00 -0.45593999997E+02  0.45594000000E+02  0.51100000000E-03 0. -1.
    9900012    2    1    2    0    0  0.77997734846E+01  0.42673897381E+02  0.13138468043E+01  0.47787260634E+02  0.19999952536E+02 0.  0.
         12    1    1    2    0    0 -0.77997734846E+01 -0.42673897381E+02 -0.13138468043E+01  0.43400739366E+02  0.00000000000E+00 0. -1.
         11    1    3    3    0    0 -0.22787414316E+01  0.95411797712E+00  0.49028659086E+00  0.25186077163E+01  0.51100000000E-03 0. -1.
        -11    1    3    3    0    0  0.24261933427E+00  0.19712934674E+02  0.60138762930E+01  0.20611292194E+02  0.51100000000E-03 0.  1.
         12    1    3    3    0    0  0.98358955819E+01  0.22006844730E+02 -0.51903160796E+01  0.24657360724E+02  0.00000000000E+00 0. -1.
</event>
<event>
 7    1  0.2328615E-009  0.4778727E+02  0.7816164E-02  0.1312668E+00
        -11   -1    0    0    0    0  0.00000000000E+00  0.00000000000E+00  0.45593999997E+02  0.45594000000E+02  0.51100000000E-03 0. -1.
         11   -1    0    0    0    0 -0.00000000000E+00 -0.00000000000E+00 -0.45593999997E+02  0.45594000000E+02  0.51100000000E-03 0.  1.
    9900012    2    1    2    0    0  0.40824919823E+02 -0.89123264080E+01 -0.11726879676E+02  0.47787270196E+02  0.19999996132E+02 0.  0.
         12    1    1    2    0    0 -0.40824919823E+02  0.89123264080E+01  0.11726879676E+02  0.43400729804E+02  0.00000000000E+00 0. -1.
         11    1    3    3    0    0  0.74586051958E+01 -0.58709198391E+01 -0.87736322166E+01  0.12925753895E+02  0.51100000000E-03 0. -1.
        -11    1    3    3    0    0  0.34894534767E+01 -0.20355843386E+01  0.20850375491E+01  0.45461270338E+01  0.51100000000E-03 0.  1.
        -12    1    3    3    0    0  0.29876861151E+02 -0.10058222303E+01 -0.50382850088E+01  0.30315389267E+02  0.00000000000E+00 0.  1.
</event>
<event>
 7    1  0.2328615E-009  0.4778726E+02  0.7816164E-02  0.1312668E+00
        -11   -1    0    0    0    0  0.00000000000E+00  0.00000000000E+00  0.45593999997E+02  0.45594000000E+02  0.51100000000E-03 0.  1.
         11   -1    0    0    0    0 -0.00000000000E+00 -0.00000000000E+00 -0.45593999997E+02  0.45594000000E+02  0.51100000000E-03 0. -1.
    9900012    2    1    2    0    0  0.41924385353E+02 -0.31261033709E+01  0.10779487885E+02  0.47787263041E+02  0.19999963510E+02 0.  0.
         12    1    1    2    0    0 -0.41924385353E+02  0.31261033709E+01 -0.10779487885E+02  0.43400736959E+02  0.00000000000E+00 0. -1.
         11    1    3    3    0    0  0.84970570105E+01 -0.56792589322E+00 -0.14615947251E+01  0.86405310636E+01  0.51100000000E-03 0. -1.
        -11    1    3    3    0    0  0.16328165704E+02  0.48952935108E+00 -0.22975809883E+01  0.16496287852E+02  0.51100000000E-03 0.  1.
        -12    1    3    3    0    0  0.17099162639E+02 -0.30477068287E+01  0.14538663598E+02  0.22650444126E+02  0.00000000000E+00 0.  1.
</event>
<event>
 7    1  0.2328615E-009  0.4778726E+02  0.7816164E-02  0.1312668E+00
        -11   -1    0    0    0    0  0.00000000000E+00  0.00000000000E+00  0.45593999997E+02  0.45594000000E+02  0.51100000000E-03 0.  1.
         11   -1    0    0    0    0 -0.00000000000E+00 -0.00000000000E+00 -0.45593999997E+02  0.45594000000E+02  0.51100000000E-03 0. -1.
    9900012    2    1    2    0    0 -0.13280578663E+02  0.36075922191E+02  0.20143943240E+02  0.47787258292E+02  0.19999941856E+02 0.  0.
         12    1    1    2    0    0  0.13280578663E+02 -0.36075922191E+02 -0.20143943240E+02  0.43400741708E+02  0.00000000000E+00 0. -1.
         11    1    3    3    0    0  0.52137122482E-01  0.10512550081E+01  0.22674589036E+01  0.24998450976E+01  0.51100000000E-03 0. -1.
        -11    1    3    3    0    0 -0.28443076179E+01  0.29303865482E+02  0.14791617906E+02  0.32948423006E+02  0.51100000000E-03 0.  1.
         12    1    3    3    0    0 -0.10488408167E+02  0.57208017012E+01  0.30848664297E+01  0.12338990189E+02  0.00000000000E+00 0. -1.
</event>
<event>
 7    1  0.2328615E-009  0.4778727E+02  0.7816164E-02  0.1312668E+00
        -11   -1    0    0    0    0  0.00000000000E+00  0.00000000000E+00  0.45593999997E+02  0.45594000000E+02  0.51100000000E-03 0. -1.
         11   -1    0    0    0    0 -0.00000000000E+00 -0.00000000000E+00 -0.45593999997E+02  0.45594000000E+02  0.51100000000E-03 0.  1.
    9900012    2    1    2    0    0 -0.41181139801E+02  0.13655835281E+02  0.11203625100E+01  0.47787270460E+02  0.19999997333E+02 0.  0.
         12    1    1    2    0    0  0.41181139801E+02 -0.13655835281E+02 -0.11203625100E+01  0.43400729540E+02  0.00000000000E+00 0. -1.
         11    1    3    3    0    0 -0.99058806205E+01  0.82141877098E+00  0.30391016606E+01  0.10394101155E+02  0.51100000000E-03 0. -1.
        -11    1    3    3    0    0 -0.10750095929E+02 -0.17907543318E+01 -0.50228055018E+01  0.11999997455E+02  0.51100000000E-03 0.  1.
         12    1    3    3    0    0 -0.20525163251E+02  0.14625170842E+02  0.31040663512E+01  0.25393171849E+02  0.00000000000E+00 0. -1.
</event>
<event>
 7    1  0.2328615E-009  0.4778728E+02  0.7816164E-02  0.1312668E+00
        -11   -1    0    0    0    0  0.00000000000E+00  0.00000000000E+00  0.45593999997E+02  0.45594000000E+02  0.51100000000E-03 0. -1.
         11   -1    0    0    0    0 -0.00000000000E+00 -0.00000000000E+00 -0.45593999997E+02  0.45594000000E+02  0.51100000000E-03 0.  1.
    9900012    2    1    2    0    0 -0.30583492356E+02  0.14543513263E+02 -0.27143293779E+02  0.47787283648E+02  0.20000057464E+02 0.  0.
         12    1    1    2    0    0  0.30583492356E+02 -0.14543513263E+02  0.27143293779E+02  0.43400716352E+02  0.00000000000E+00 0. -1.
         11    1    3    3    0    0 -0.17818708887E+02  0.94506036887E+01 -0.60631049427E+01  0.21061375508E+02  0.51100000000E-03 0. -1.
        -11    1    3    3    0    0 -0.63125152143E+01 -0.15364224360E+01 -0.50930208766E+01  0.82551380451E+01  0.51100000000E-03 0.  1.
         12    1    3    3    0    0 -0.64522682546E+01  0.66293320098E+01 -0.15987167959E+02  0.18470770095E+02  0.00000000000E+00 0. -1.
</event>
<event>
 7    1  0.2328615E-009  0.4778727E+02  0.7816164E-02  0.1312668E+00
        -11   -1    0    0    0    0  0.00000000000E+00  0.00000000000E+00  0.45593999997E+02  0.45594000000E+02  0.51100000000E-03 0.  1.
         11   -1    0    0    0    0 -0.00000000000E+00 -0.00000000000E+00 -0.45593999997E+02  0.45594000000E+02  0.51100000000E-03 0. -1.
    9900012    2    1    2    0    0 -0.30730385975E+01  0.39462790133E+02  0.17800783945E+02  0.47787270970E+02  0.19999999661E+02 0.  0.
         12    1    1    2    0    0  0.30730385975E+01 -0.39462790133E+02 -0.17800783945E+02  0.43400729030E+02  0.00000000000E+00 0. -1.
         11    1    3    3    0    0  0.17084324322E+00  0.14204859620E+02  0.77198852705E+00  0.14226847535E+02  0.51100000000E-03 0. -1.
        -11    1    3    3    0    0 -0.16479365113E+01  0.18294083969E+02  0.41475961655E+01  0.18830606927E+02  0.51100000000E-03 0.  1.
         12    1    3    3    0    0 -0.15959453294E+01  0.69638465430E+01  0.12881199253E+02  0.14729816508E+02  0.00000000000E+00 0. -1.
</event>
<event>
 7    1  0.2328615E-009  0.4778727E+02  0.7816164E-02  0.1312668E+00
        -11   -1    0    0    0    0  0.00000000000E+00  0.00000000000E+00  0.45593999997E+02  0.45594000000E+02  0.51100000000E-03 0.  1.
         11   -1    0    0    0    0 -0.00000000000E+00 -0.00000000000E+00 -0.45593999997E+02  0.45594000000E+02  0.51100000000E-03 0. -1.
    9900012    2    1    2    0    0 -0.24003358151E+02  0.91209243000E+00  0.36147338163E+02  0.47787272226E+02  0.20000005385E+02 0.  0.
         12    1    1    2    0    0  0.24003358151E+02 -0.91209243000E+00 -0.36147338163E+02  0.43400727774E+02  0.00000000000E+00 0. -1.
         11    1    3    3    0    0 -0.13214294903E+02 -0.94467178329E+00  0.52984274183E+01  0.14268262961E+02  0.51100000000E-03 0. -1.
        -11    1    3    3    0    0 -0.76790883700E+01 -0.10052962865E+01  0.12622717659E+02  0.14809187019E+02  0.51100000000E-03 0.  1.
         12    1    3    3    0    0 -0.31099748776E+01  0.28620604998E+01  0.18226193086E+02  0.18709822245E+02  0.00000000000E+00 0. -1.
</event>
<event>
 7    1  0.2328615E-009  0.4778727E+02  0.7816164E-02  0.1312668E+00
        -11   -1    0    0    0    0  0.00000000000E+00  0.00000000000E+00  0.45593999997E+02  0.45594000000E+02  0.51100000000E-03 0.  1.
         11   -1    0    0    0    0 -0.00000000000E+00 -0.00000000000E+00 -0.45593999997E+02  0.45594000000E+02  0.51100000000E-03 0. -1.
    9900012    2    1    2    0    0  0.42778435590E+02  0.30683736069E+01 -0.66493425883E+01  0.47787271608E+02  0.20000002568E+02 0.  0.
         12    1    1    2    0    0 -0.42778435590E+02 -0.30683736069E+01  0.66493425883E+01  0.43400728392E+02  0.00000000000E+00 0. -1.
         11    1    3    3    0    0  0.15613739703E+02  0.12811275954E+01 -0.93722553634E+01  0.18255665594E+02  0.51100000000E-03 0. -1.
        -11    1    3    3    0    0  0.13354989514E+01 -0.18097761637E+00  0.33594595070E+01  0.36197070029E+01  0.51100000000E-03 0.  1.
         12    1    3    3    0    0  0.25829196936E+02  0.19682236279E+01 -0.63654673183E+00  0.25911899011E+02  0.00000000000E+00 0. -1.
</event>
<event>
 7    1  0.2328615E-009  0.4778727E+02  0.7816164E-02  0.1312668E+00
        -11   -1    0    0    0    0  0.00000000000E+00  0.00000000000E+00  0.45593999997E+02  0.45594000000E+02  0.51100000000E-03 0.  1.
         11   -1    0    0    0    0 -0.00000000000E+00 -0.00000000000E+00 -0.45593999997E+02  0.45594000000E+02  0.51100000000E-03 0. -1.
    9900012    2    1    2    0    0 -0.11286369542E+01 -0.16821427248E+02  0.39992366830E+02  0.47787266819E+02  0.19999980733E+02 0.  0.
         12    1    1    2    0    0  0.11286369542E+01  0.16821427248E+02 -0.39992366830E+02  0.43400733181E+02  0.00000000000E+00 0. -1.
         11    1    3    3    0    0 -0.28817327459E+01 -0.36125741321E+01  0.21187955495E+02  0.21686044678E+02  0.51100000000E-03 0. -1.
        -11    1    3    3    0    0  0.42676316063E+01 -0.15758277240E+01  0.10906913915E+02  0.11817642910E+02  0.51100000000E-03 0.  1.
         12    1    3    3    0    0 -0.25145358146E+01 -0.11633025392E+02  0.78974974206E+01  0.14283579230E+02  0.00000000000E+00 0. -1.
</event>
<event>
 7    1  0.2328615E-009  0.4778728E+02  0.7816164E-02  0.1312668E+00
        -11   -1    0    0    0    0  0.00000000000E+00  0.00000000000E+00  0.45593999997E+02  0.45594000000E+02  0.51100000000E-03 0.  1.
         11   -1    0    0    0    0 -0.00000000000E+00 -0.00000000000E+00 -0.45593999997E+02  0.45594000000E+02  0.51100000000E-03 0. -1.
    9900012    2    1    2    0    0  0.40820826270E+02 -0.13175560585E+02  0.66096281061E+01  0.47787280677E+02  0.20000043918E+02 0.  0.
         12    1    1    2    0    0 -0.40820826270E+02  0.13175560585E+02 -0.66096281061E+01  0.43400719323E+02  0.00000000000E+00 0. -1.
         11    1    3    3    0    0  0.26346903367E+00 -0.43264834639E+01  0.49281411671E+00  0.43624237655E+01  0.51100000000E-03 0. -1.
        -11    1    3    3    0    0  0.11343118051E+02 -0.34679904665E+01  0.68744015660E+01  0.13709510646E+02  0.51100000000E-03 0.  1.
         12    1    3    3    0    0  0.29214239185E+02 -0.53810866541E+01 -0.75758757665E+00  0.29715346265E+02  0.00000000000E+00 0. -1.
</event>
<event>
 7    1  0.2328615E-009  0.4778727E+02  0.7816164E-02  0.1312668E+00
        -11   -1    0    0    0    0  0.00000000000E+00  0.00000000000E+00  0.45593999997E+02  0.45594000000E+02  0.51100000000E-03 0.  1.
         11   -1    0    0    0    0 -0.00000000000E+00 -0.00000000000E+00 -0.45593999997E+02  0.45594000000E+02  0.51100000000E-03 0. -1.
    9900012    2    1    2    0    0 -0.26261445158E+02 -0.21646851050E+02  0.26932765133E+02  0.47787268441E+02  0.19999988129E+02 0.  0.
         12    1    1    2    0    0  0.26261445158E+02  0.21646851050E+02 -0.26932765133E+02  0.43400731559E+02  0.00000000000E+00 0. -1.
         11    1    3    3    0    0 -0.17024748588E+02 -0.12595700946E+02  0.19023664841E+02  0.28467412441E+02  0.51100000000E-03 0. -1.
        -11    1    3    3    0    0 -0.55399027144E+01 -0.10377620834E+02  0.15775252814E+01  0.11869040506E+02  0.51100000000E-03 0.  1.
         12    1    3    3    0    0 -0.36967938550E+01  0.13264707308E+01  0.63315750111E+01  0.74508154941E+01  0.00000000000E+00 0. -1.
</event>
<event>
 7    1  0.2328615E-009  0.4778727E+02  0.7816164E-02  0.1312668E+00
        -11   -1    0    0    0    0  0.00000000000E+00  0.00000000000E+00  0.45593999997E+02  0.45594000000E+02  0.51100000000E-03 0. -1.
         11   -1    0    0    0    0 -0.00000000000E+00 -0.00000000000E+00 -0.45593999997E+02  0.45594000000E+02  0.51100000000E-03 0.  1.
    9900012    2    1    2    0    0 -0.24576029291E+02 -0.23359899104E+02 -0.27091643689E+02  0.47787271208E+02  0.20000000747E+02 0.  0.
         12    1    1    2    0    0  0.24576029291E+02  0.23359899104E+02  0.27091643689E+02  0.43400728792E+02  0.00000000000E+00 0. -1.
         11    1    3    3    0    0 -0.68374411262E+01 -0.13551908987E+01 -0.10355188311E+01  0.70469456531E+01  0.51100000000E-03 0. -1.
        -11    1    3    3    0    0 -0.57905411166E+01 -0.35551626170E+01 -0.19162127088E+00  0.67975191525E+01  0.51100000000E-03 0.  1.
        -12    1    3    3    0    0 -0.11948047048E+02 -0.18449545589E+02 -0.25864503587E+02  0.33942806403E+02  0.00000000000E+00 0.  1.
</event>
<event>
 7    1  0.2328615E-009  0.4778727E+02  0.7816164E-02  0.1312668E+00
        -11   -1    0    0    0    0  0.00000000000E+00  0.00000000000E+00  0.45593999997E+02  0.45594000000E+02  0.51100000000E-03 0. -1.
         11   -1    0    0    0    0 -0.00000000000E+00 -0.00000000000E+00 -0.45593999997E+02  0.45594000000E+02  0.51100000000E-03 0.  1.
    9900012    2    1    2    0    0 -0.36815667522E+02  0.14247342406E+02 -0.18034504506E+02  0.47787268515E+02  0.19999988466E+02 0.  0.
         12    1    1    2    0    0  0.36815667522E+02 -0.14247342406E+02  0.18034504506E+02  0.43400731485E+02  0.00000000000E+00 0. -1.
         11    1    3    3    0    0 -0.76752097527E+00  0.50769773742E+01 -0.31215032457E+01  0.60090407287E+01  0.51100000000E-03 0. -1.
        -11    1    3    3    0    0 -0.96802505590E+01  0.71875972322E+01 -0.79244869033E+01  0.14427969289E+02  0.51100000000E-03 0.  1.
        -12    1    3    3    0    0 -0.26367895987E+02  0.19827678000E+01 -0.69885143566E+01  0.27350258497E+02  0.00000000000E+00 0.  1.
</event>
<event>
 7    1  0.2328615E-009  0.4778727E+02  0.7816164E-02  0.1312668E+00
        -11   -1    0    0    0    0  0.00000000000E+00  0.00000000000E+00  0.45593999997E+02  0.45594000000E+02  0.51100000000E-03 0. -1.
         11   -1    0    0    0    0 -0.00000000000E+00 -0.00000000000E+00 -0.45593999997E+02  0.45594000000E+02  0.51100000000E-03 0.  1.
    9900012    2    1    2    0    0 -0.15633132422E+02  0.36361290769E+02 -0.17806887670E+02  0.47787267930E+02  0.19999985800E+02 0.  0.
         12    1    1    2    0    0  0.15633132422E+02 -0.36361290769E+02  0.17806887670E+02  0.43400732070E+02  0.00000000000E+00 0. -1.
         11    1    3    3    0    0 -0.28823781371E+01  0.81149676363E+01 -0.47162212064E+01  0.98185307553E+01  0.51100000000E-03 0.  1.
        -11    1    3    3    0    0  0.71480267254E+00  0.81582849641E+01 -0.10973493573E+02  0.13692557025E+02  0.51100000000E-03 0. -1.
         12    1    3    3    0    0 -0.13465556957E+02  0.20088038169E+02 -0.21171728908E+01  0.24276180150E+02  0.00000000000E+00 0. -1.
</event>
<event>
 7    1  0.2328615E-009  0.4778727E+02  0.7816164E-02  0.1312668E+00
        -11   -1    0    0    0    0  0.00000000000E+00  0.00000000000E+00  0.45593999997E+02  0.45594000000E+02  0.51100000000E-03 0. -1.
         11   -1    0    0    0    0 -0.00000000000E+00 -0.00000000000E+00 -0.45593999997E+02  0.45594000000E+02  0.51100000000E-03 0.  1.
    9900012    2    1    2    0    0  0.15698923542E+02 -0.21811876015E+02 -0.34079455466E+02  0.47787269355E+02  0.19999992298E+02 0.  0.
         12    1    1    2    0    0 -0.15698923542E+02  0.21811876015E+02  0.34079455466E+02  0.43400730645E+02  0.00000000000E+00 0. -1.
         11    1    3    3    0    0  0.29375059113E+01 -0.74612185774E+01 -0.48088760176E+01  0.93500808794E+01  0.51100000000E-03 0. -1.
        -11    1    3    3    0    0  0.65255940291E+01 -0.16865955379E+02 -0.19716032355E+02  0.26753798989E+02  0.51100000000E-03 0.  1.
         12    1    3    3    0    0  0.62358236019E+01  0.25152979419E+01 -0.95545470934E+01  0.11683389486E+02  0.00000000000E+00 0. -1.
</event>
<event>
 7    1  0.2328615E-009  0.4778727E+02  0.7816164E-02  0.1312668E+00
        -11   -1    0    0    0    0  0.00000000000E+00  0.00000000000E+00  0.45593999997E+02  0.45594000000E+02  0.51100000000E-03 0.  1.
         11   -1    0    0    0    0 -0.00000000000E+00 -0.00000000000E+00 -0.45593999997E+02  0.45594000000E+02  0.51100000000E-03 0. -1.
    9900012    2    1    2    0    0 -0.36925381894E+02  0.60576954379E+01  0.21987354116E+02  0.47787271399E+02  0.20000001616E+02 0.  0.
         12    1    1    2    0    0  0.36925381894E+02 -0.60576954379E+01 -0.21987354116E+02  0.43400728601E+02  0.00000000000E+00 0. -1.
         11    1    3    3    0    0 -0.24858274424E+02  0.12156898181E+02  0.11344061955E+02  0.29906717015E+02  0.51100000000E-03 0.  1.
        -11    1    3    3    0    0 -0.17634766413E+01 -0.28241650430E+00 -0.24283796743E+00  0.18023816150E+01  0.51100000000E-03 0. -1.
         12    1    3    3    0    0 -0.10303630829E+02 -0.58167862384E+01  0.10886130129E+02  0.16078172769E+02  0.00000000000E+00 0. -1.
</event>
<event>
 7    1  0.2328615E-009  0.4778727E+02  0.7816164E-02  0.1312668E+00
        -11   -1    0    0    0    0  0.00000000000E+00  0.00000000000E+00  0.45593999997E+02  0.45594000000E+02  0.51100000000E-03 0.  1.
         11   -1    0    0    0    0 -0.00000000000E+00 -0.00000000000E+00 -0.45593999997E+02  0.45594000000E+02  0.51100000000E-03 0. -1.
    9900012    2    1    2    0    0  0.75589521916E+01  0.20292350588E+02  0.37612578012E+02  0.47787271028E+02  0.19999999924E+02 0.  0.
         12    1    1    2    0    0 -0.75589521916E+01 -0.20292350588E+02 -0.37612578012E+02  0.43400728972E+02  0.00000000000E+00 0. -1.
         11    1    3    3    0    0  0.18503258828E+00  0.14361970641E+02  0.13405578709E+02  0.19647136650E+02  0.51100000000E-03 0. -1.
        -11    1    3    3    0    0  0.32090277093E+01  0.86302146413E+01  0.17748877733E+02  0.19995027498E+02  0.51100000000E-03 0.  1.
        -12    1    3    3    0    0  0.41648918940E+01 -0.26998346952E+01  0.64581215695E+01  0.81451068793E+01  0.00000000000E+00 0.  1.
</event>
<event>
 7    1  0.2328615E-009  0.4778727E+02  0.7816164E-02  0.1312668E+00
        -11   -1    0    0    0    0  0.00000000000E+00  0.00000000000E+00  0.45593999997E+02  0.45594000000E+02  0.51100000000E-03 0. -1.
         11   -1    0    0    0    0 -0.00000000000E+00 -0.00000000000E+00 -0.45593999997E+02  0.45594000000E+02  0.51100000000E-03 0.  1.
    9900012    2    1    2    0    0 -0.41679761594E+02 -0.11938529907E+02  0.19729198957E+01  0.47787269179E+02  0.19999991493E+02 0.  0.
         12    1    1    2    0    0  0.41679761594E+02  0.11938529907E+02 -0.19729198957E+01  0.43400730821E+02  0.00000000000E+00 0. -1.
         11    1    3    3    0    0 -0.59447707801E+01 -0.47879592212E+01 -0.26689647790E+01  0.80862986826E+01  0.51100000000E-03 0. -1.
        -11    1    3    3    0    0 -0.11523920714E+02 -0.70657004640E+01 -0.38310433972E+01  0.14049973859E+02  0.51100000000E-03 0.  1.
        -12    1    3    3    0    0 -0.24211070100E+02 -0.84870222078E-01  0.84729280719E+01  0.25650996637E+02  0.00000000000E+00 0.  1.
</event>
<event>
 7    1  0.2328615E-009  0.4778728E+02  0.7816164E-02  0.1312668E+00
        -11   -1    0    0    0    0  0.00000000000E+00  0.00000000000E+00  0.45593999997E+02  0.45594000000E+02  0.51100000000E-03 0.  1.
         11   -1    0    0    0    0 -0.00000000000E+00 -0.00000000000E+00 -0.45593999997E+02  0.45594000000E+02  0.51100000000E-03 0. -1.
    9900012    2    1    2    0    0 -0.38212729237E+01 -0.41245324592E+02  0.12955453631E+02  0.47787277584E+02  0.20000029815E+02 0.  0.
         12    1    1    2    0    0  0.38212729237E+01  0.41245324592E+02 -0.12955453631E+02  0.43400722416E+02  0.00000000000E+00 0. -1.
         11    1    3    3    0    0 -0.31164396013E+01 -0.28238558095E+02  0.10280033871E+02  0.30212703548E+02  0.51100000000E-03 0. -1.
        -11    1    3    3    0    0 -0.47314645675E+01 -0.11148117234E+02  0.43001902143E+01  0.12851416691E+02  0.51100000000E-03 0.  1.
         12    1    3    3    0    0  0.40266312451E+01 -0.18586492636E+01 -0.16247704546E+01  0.47231573443E+01  0.00000000000E+00 0. -1.
</event>
<event>
 7    1  0.2328615E-009  0.4778727E+02  0.7816164E-02  0.1312668E+00
        -11   -1    0    0    0    0  0.00000000000E+00  0.00000000000E+00  0.45593999997E+02  0.45594000000E+02  0.51100000000E-03 0.  1.
         11   -1    0    0    0    0 -0.00000000000E+00 -0.00000000000E+00 -0.45593999997E+02  0.45594000000E+02  0.51100000000E-03 0. -1.
    9900012    2    1    2    0    0  0.36602347721E+02 -0.22411979245E+02  0.64494004150E+01  0.47787269152E+02  0.19999991374E+02 0.  0.
         12    1    1    2    0    0 -0.36602347721E+02  0.22411979245E+02 -0.64494004150E+01  0.43400730848E+02  0.00000000000E+00 0. -1.
         11    1    3    3    0    0  0.30451938291E+02 -0.10765455323E+02  0.87201073861E+01  0.33455281303E+02  0.51100000000E-03 0. -1.
        -11    1    3    3    0    0  0.17559327186E+01 -0.13831394110E+01  0.13301128224E+01  0.26010718413E+01  0.51100000000E-03 0.  1.
        -12    1    3    3    0    0  0.43944767114E+01 -0.10263384511E+02 -0.36008197934E+01  0.11730916008E+02  0.00000000000E+00 0.  1.
</event>
<event>
 7    1  0.2328615E-009  0.4778727E+02  0.7816164E-02  0.1312668E+00
        -11   -1    0    0    0    0  0.00000000000E+00  0.00000000000E+00  0.45593999997E+02  0.45594000000E+02  0.51100000000E-03 0.  1.
         11   -1    0    0    0    0 -0.00000000000E+00 -0.00000000000E+00 -0.45593999997E+02  0.45594000000E+02  0.51100000000E-03 0. -1.
    9900012    2    1    2    0    0  0.41417708820E+02 -0.40907792608E+01  0.12306984167E+02  0.47787274912E+02  0.20000017635E+02 0.  0.
         12    1    1    2    0    0 -0.41417708820E+02  0.40907792608E+01 -0.12306984167E+02  0.43400725088E+02  0.00000000000E+00 0. -1.
         11    1    3    3    0    0  0.19224776564E+01  0.89480123883E+00  0.46795375189E+01  0.51375734786E+01  0.51100000000E-03 0. -1.
        -11    1    3    3    0    0  0.71699571959E+01  0.33457367024E+01 -0.14768291548E+01  0.80488051838E+01  0.51100000000E-03 0.  1.
        -12    1    3    3    0    0  0.32325273967E+02 -0.83313172021E+01  0.91042758034E+01  0.34600896250E+02  0.00000000000E+00 0.  1.
</event>
<event>
 7    1  0.2328615E-009  0.4778727E+02  0.7816164E-02  0.1312668E+00
        -11   -1    0    0    0    0  0.00000000000E+00  0.00000000000E+00  0.45593999997E+02  0.45594000000E+02  0.51100000000E-03 0. -1.
         11   -1    0    0    0    0 -0.00000000000E+00 -0.00000000000E+00 -0.45593999997E+02  0.45594000000E+02  0.51100000000E-03 0.  1.
    9900012    2    1    2    0    0  0.19279473511E+02 -0.36775710292E+02  0.12628232693E+02  0.47787271582E+02  0.20000002449E+02 0.  0.
         12    1    1    2    0    0 -0.19279473511E+02  0.36775710292E+02 -0.12628232693E+02  0.43400728418E+02  0.00000000000E+00 0. -1.
         11    1    3    3    0    0  0.17594698196E+01 -0.82898498858E+01  0.42318335972E+01  0.94723682905E+01  0.51100000000E-03 0. -1.
        -11    1    3    3    0    0  0.13063739055E+02 -0.25017969910E+02  0.32573675468E-01  0.28223415063E+02  0.51100000000E-03 0.  1.
         12    1    3    3    0    0  0.44562646367E+01 -0.34678904961E+01  0.83638254202E+01  0.10091488228E+02  0.00000000000E+00 0. -1.
</event>
<event>
 7    1  0.2328615E-009  0.4778728E+02  0.7816164E-02  0.1312668E+00
        -11   -1    0    0    0    0  0.00000000000E+00  0.00000000000E+00  0.45593999997E+02  0.45594000000E+02  0.51100000000E-03 0.  1.
         11   -1    0    0    0    0 -0.00000000000E+00 -0.00000000000E+00 -0.45593999997E+02  0.45594000000E+02  0.51100000000E-03 0. -1.
    9900012    2    1    2    0    0  0.32803979548E+02 -0.25127850068E+02  0.13270739780E+02  0.47787280449E+02  0.20000042879E+02 0.  0.
         12    1    1    2    0    0 -0.32803979548E+02  0.25127850068E+02 -0.13270739780E+02  0.43400719551E+02  0.00000000000E+00 0. -1.
         11    1    3    3    0    0  0.14564296254E+02 -0.81153733732E+01 -0.22724088306E+01  0.16826819441E+02  0.51100000000E-03 0. -1.
        -11    1    3    3    0    0  0.70630566795E+01 -0.11019297754E+02  0.36833967869E+01  0.13597025586E+02  0.51100000000E-03 0.  1.
        -12    1    3    3    0    0  0.11176626616E+02 -0.59931789409E+01  0.11859751824E+02  0.17363435422E+02  0.00000000000E+00 0.  1.
</event>
<event>
 7    1  0.2328615E-009  0.4778729E+02  0.7816164E-02  0.1312668E+00
        -11   -1    0    0    0    0  0.00000000000E+00  0.00000000000E+00  0.45593999997E+02  0.45594000000E+02  0.51100000000E-03 0. -1.
         11   -1    0    0    0    0 -0.00000000000E+00 -0.00000000000E+00 -0.45593999997E+02  0.45594000000E+02  0.51100000000E-03 0.  1.
    9900012    2    1    2    0    0 -0.17843831755E+02 -0.38326256332E+02  0.98141337773E+01  0.47787291734E+02  0.20000094333E+02 0.  0.
         12    1    1    2    0    0  0.17843831755E+02  0.38326256332E+02 -0.98141337773E+01  0.43400708266E+02  0.00000000000E+00 0. -1.
         11    1    3    3    0    0 -0.11054939742E+02 -0.10421887591E+02  0.64040999528E+01  0.16487568958E+02  0.51100000000E-03 0. -1.
        -11    1    3    3    0    0 -0.87162418971E+01 -0.20429927125E+02  0.62512197041E+01  0.23074499847E+02  0.51100000000E-03 0.  1.
        -12    1    3    3    0    0  0.19273498835E+01 -0.74744416155E+01 -0.28411858796E+01  0.82252229294E+01  0.00000000000E+00 0.  1.
</event>
<event>
 7    1  0.2328615E-009  0.4778727E+02  0.7816164E-02  0.1312668E+00
        -11   -1    0    0    0    0  0.00000000000E+00  0.00000000000E+00  0.45593999997E+02  0.45594000000E+02  0.51100000000E-03 0.  1.
         11   -1    0    0    0    0 -0.00000000000E+00 -0.00000000000E+00 -0.45593999997E+02  0.45594000000E+02  0.51100000000E-03 0. -1.
    9900012    2    1    2    0    0 -0.86232625347E+01 -0.10944818025E+02  0.41103205241E+02  0.47787272133E+02  0.20000004962E+02 0.  0.
         12    1    1    2    0    0  0.86232625347E+01  0.10944818025E+02 -0.41103205241E+02  0.43400727867E+02  0.00000000000E+00 0. -1.
         11    1    3    3    0    0  0.10432667005E+01 -0.37916971407E+01  0.10646092929E+02  0.11349214401E+02  0.51100000000E-03 0.  1.
        -11    1    3    3    0    0 -0.45918885220E+01 -0.18540480038E+01  0.28385417339E+02  0.28814143263E+02  0.51100000000E-03 0. -1.
         12    1    3    3    0    0 -0.50746407132E+01 -0.52990728807E+01  0.20716949729E+01  0.76239144685E+01  0.00000000000E+00 0. -1.
</event>
<event>
 7    1  0.2328615E-009  0.4778727E+02  0.7816164E-02  0.1312668E+00
        -11   -1    0    0    0    0  0.00000000000E+00  0.00000000000E+00  0.45593999997E+02  0.45594000000E+02  0.51100000000E-03 0. -1.
         11   -1    0    0    0    0 -0.00000000000E+00 -0.00000000000E+00 -0.45593999997E+02  0.45594000000E+02  0.51100000000E-03 0.  1.
    9900012    2    1    2    0    0  0.35685623325E+02 -0.14127218482E+02 -0.20262803400E+02  0.47787271714E+02  0.20000003054E+02 0.  0.
         12    1    1    2    0    0 -0.35685623325E+02  0.14127218482E+02  0.20262803400E+02  0.43400728286E+02  0.00000000000E+00 0. -1.
         11    1    3    3    0    0  0.10283167843E+02 -0.69594180686E+01 -0.91608634815E+01  0.15430439421E+02  0.51100000000E-03 0. -1.
        -11    1    3    3    0    0  0.22366006039E+02 -0.99164298483E+01 -0.49425759711E+01  0.24960025332E+02  0.51100000000E-03 0.  1.
         12    1    3    3    0    0  0.30364494428E+01  0.27486294351E+01 -0.61593639471E+01  0.73968069613E+01  0.00000000000E+00 0. -1.
</event>
<event>
 7    1  0.2328615E-009  0.4778730E+02  0.7816164E-02  0.1312668E+00
        -11   -1    0    0    0    0  0.00000000000E+00  0.00000000000E+00  0.45593999997E+02  0.45594000000E+02  0.51100000000E-03 0.  1.
         11   -1    0    0    0    0 -0.00000000000E+00 -0.00000000000E+00 -0.45593999997E+02  0.45594000000E+02  0.51100000000E-03 0. -1.
    9900012    2    1    2    0    0  0.50975080737E+01  0.34217598400E+02  0.26206719569E+02  0.47787299782E+02  0.20000131027E+02 0.  0.
         12    1    1    2    0    0 -0.50975080737E+01 -0.34217598400E+02 -0.26206719569E+02  0.43400700218E+02  0.00000000000E+00 0. -1.
         11    1    3    3    0    0  0.36844093153E+01  0.41895066873E+01  0.16897916166E+01  0.58294282957E+01  0.51100000000E-03 0. -1.
        -11    1    3    3    0    0 -0.88353940672E+00  0.14869857412E+02  0.24626481694E+01  0.15098275981E+02  0.51100000000E-03 0.  1.
         12    1    3    3    0    0  0.22966381651E+01  0.15158234300E+02  0.22054279783E+02  0.26859595506E+02  0.00000000000E+00 0. -1.
</event>
<event>
 7    1  0.2328615E-009  0.4778727E+02  0.7816164E-02  0.1312668E+00
        -11   -1    0    0    0    0  0.00000000000E+00  0.00000000000E+00  0.45593999997E+02  0.45594000000E+02  0.51100000000E-03 0.  1.
         11   -1    0    0    0    0 -0.00000000000E+00 -0.00000000000E+00 -0.45593999997E+02  0.45594000000E+02  0.51100000000E-03 0. -1.
    9900012    2    1    2    0    0 -0.24074014450E+02 -0.63932470888E+01  0.35541404722E+02  0.47787271553E+02  0.20000002321E+02 0.  0.
         12    1    1    2    0    0  0.24074014450E+02  0.63932470888E+01 -0.35541404722E+02  0.43400728447E+02  0.00000000000E+00 0. -1.
         11    1    3    3    0    0  0.17074650920E+01 -0.29586476557E+01  0.34059602354E+01  0.48238572094E+01  0.51100000000E-03 0. -1.
        -11    1    3    3    0    0 -0.17629576374E+01  0.21069951388E+01  0.80273784935E+01  0.84844713380E+01  0.51100000000E-03 0.  1.
        -12    1    3    3    0    0 -0.24018521904E+02 -0.55415945720E+01  0.24108065993E+02  0.34478943006E+02  0.00000000000E+00 0.  1.
</event>
<event>
 7    1  0.2328615E-009  0.4778727E+02  0.7816164E-02  0.1312668E+00
        -11   -1    0    0    0    0  0.00000000000E+00  0.00000000000E+00  0.45593999997E+02  0.45594000000E+02  0.51100000000E-03 0.  1.
         11   -1    0    0    0    0 -0.00000000000E+00 -0.00000000000E+00 -0.45593999997E+02  0.45594000000E+02  0.51100000000E-03 0. -1.
    9900012    2    1    2    0    0 -0.38151437117E+02 -0.10356215136E+02  0.17912014002E+02  0.47787267384E+02  0.19999983310E+02 0.  0.
         12    1    1    2    0    0  0.38151437117E+02  0.10356215136E+02 -0.17912014002E+02  0.43400732616E+02  0.00000000000E+00 0. -1.
         11    1    3    3    0    0 -0.86468844776E+01 -0.10778907028E+02  0.23943873550E+01  0.14024497814E+02  0.51100000000E-03 0. -1.
        -11    1    3    3    0    0 -0.81974100788E+01 -0.62947924614E+00  0.18506194952E+01  0.84272515626E+01  0.51100000000E-03 0.  1.
         12    1    3    3    0    0 -0.21307142561E+02  0.10521711381E+01  0.13667007151E+02  0.25335518007E+02  0.00000000000E+00 0. -1.
</event>
<event>
 7    1  0.2328615E-009  0.4778728E+02  0.7816164E-02  0.1312668E+00
        -11   -1    0    0    0    0  0.00000000000E+00  0.00000000000E+00  0.45593999997E+02  0.45594000000E+02  0.51100000000E-03 0.  1.
         11   -1    0    0    0    0 -0.00000000000E+00 -0.00000000000E+00 -0.45593999997E+02  0.45594000000E+02  0.51100000000E-03 0. -1.
    9900012    2    1    2    0    0 -0.22691734454E+02 -0.14462122669E+02  0.34052235853E+02  0.47787279139E+02  0.20000036908E+02 0.  0.
         12    1    1    2    0    0  0.22691734454E+02  0.14462122669E+02 -0.34052235853E+02  0.43400720861E+02  0.00000000000E+00 0. -1.
         11    1    3    3    0    0 -0.59811793231E+01 -0.12267597535E+02  0.68584930233E+01  0.15274402842E+02  0.51100000000E-03 0. -1.
        -11    1    3    3    0    0 -0.72758928410E+01 -0.24981067039E+01  0.78617823133E+01  0.10999398854E+02  0.51100000000E-03 0.  1.
        -12    1    3    3    0    0 -0.94346622898E+01  0.30358157016E+00  0.19331960517E+02  0.21513477444E+02  0.00000000000E+00 0.  1.
</event>
<event>
 7    1  0.2328615E-009  0.4778727E+02  0.7816164E-02  0.1312668E+00
        -11   -1    0    0    0    0  0.00000000000E+00  0.00000000000E+00  0.45593999997E+02  0.45594000000E+02  0.51100000000E-03 0.  1.
         11   -1    0    0    0    0 -0.00000000000E+00 -0.00000000000E+00 -0.45593999997E+02  0.45594000000E+02  0.51100000000E-03 0. -1.
    9900012    2    1    2    0    0  0.96995313623E+01 -0.19255195720E+02  0.37666698585E+02  0.47787266675E+02  0.19999980077E+02 0.  0.
         12    1    1    2    0    0 -0.96995313623E+01  0.19255195720E+02 -0.37666698585E+02  0.43400733325E+02  0.00000000000E+00 0. -1.
         11    1    3    3    0    0 -0.24467558377E+01 -0.49069176762E+00  0.42728266442E+01  0.49481754549E+01  0.51100000000E-03 0. -1.
        -11    1    3    3    0    0 -0.27548805548E+00 -0.66066751155E+01  0.19488922578E+02  0.20580139778E+02  0.51100000000E-03 0.  1.
        -12    1    3    3    0    0  0.12421775255E+02 -0.12157828837E+02  0.13904949363E+02  0.22258951442E+02  0.00000000000E+00 0.  1.
</event>
<event>
 7    1  0.2328615E-009  0.4778727E+02  0.7816164E-02  0.1312668E+00
        -11   -1    0    0    0    0  0.00000000000E+00  0.00000000000E+00  0.45593999997E+02  0.45594000000E+02  0.51100000000E-03 0.  1.
         11   -1    0    0    0    0 -0.00000000000E+00 -0.00000000000E+00 -0.45593999997E+02  0.45594000000E+02  0.51100000000E-03 0. -1.
    9900012    2    1    2    0    0 -0.99898166625E+01  0.34485320861E+01  0.42094352774E+02  0.47787270214E+02  0.19999996214E+02 0.  0.
         12    1    1    2    0    0  0.99898166625E+01 -0.34485320861E+01 -0.42094352774E+02  0.43400729786E+02  0.00000000000E+00 0. -1.
         11    1    3    3    0    0  0.14746445137E+01 -0.57320740939E-01 -0.39659048056E+00  0.15281185751E+01  0.51100000000E-03 0. -1.
        -11    1    3    3    0    0  0.28047719009E+01  0.25128494797E+00  0.13415808209E+02  0.13708165439E+02  0.51100000000E-03 0.  1.
        -12    1    3    3    0    0 -0.14269233077E+02  0.32545678791E+01  0.29075135045E+02  0.32550986200E+02  0.00000000000E+00 0.  1.
</event>
<event>
 7    1  0.2328615E-009  0.4778727E+02  0.7816164E-02  0.1312668E+00
        -11   -1    0    0    0    0  0.00000000000E+00  0.00000000000E+00  0.45593999997E+02  0.45594000000E+02  0.51100000000E-03 0. -1.
         11   -1    0    0    0    0 -0.00000000000E+00 -0.00000000000E+00 -0.45593999997E+02  0.45594000000E+02  0.51100000000E-03 0.  1.
    9900012    2    1    2    0    0  0.23014426936E+02 -0.12277184331E+02 -0.34687609701E+02  0.47787269947E+02  0.19999994998E+02 0.  0.
         12    1    1    2    0    0 -0.23014426936E+02  0.12277184331E+02  0.34687609701E+02  0.43400730053E+02  0.00000000000E+00 0. -1.
         11    1    3    3    0    0  0.50590624271E+01  0.30608204164E+01 -0.13374266958E+01  0.60622969813E+01  0.51100000000E-03 0. -1.
        -11    1    3    3    0    0  0.30427064097E+01 -0.44342368031E+00 -0.12402599091E+01  0.33155590417E+01  0.51100000000E-03 0.  1.
        -12    1    3    3    0    0  0.14912658100E+02 -0.14894581067E+02 -0.32109923097E+02  0.38409413924E+02  0.00000000000E+00 0.  1.
</event>
<event>
 7    1  0.2328615E-009  0.4778729E+02  0.7816164E-02  0.1312668E+00
        -11   -1    0    0    0    0  0.00000000000E+00  0.00000000000E+00  0.45593999997E+02  0.45594000000E+02  0.51100000000E-03 0. -1.
         11   -1    0    0    0    0 -0.00000000000E+00 -0.00000000000E+00 -0.45593999997E+02  0.45594000000E+02  0.51100000000E-03 0.  1.
    9900012    2    1    2    0    0  0.25459190973E+02  0.10545283681E+02 -0.33529812088E+02  0.47787289043E+02  0.20000082062E+02 0.  0.
         12    1    1    2    0    0 -0.25459190973E+02 -0.10545283681E+02  0.33529812088E+02  0.43400710957E+02  0.00000000000E+00 0. -1.
         11    1    3    3    0    0  0.20121191758E+01  0.74423582996E+00  0.22586757506E+01  0.31151447729E+01  0.51100000000E-03 0. -1.
        -11    1    3    3    0    0  0.99132427197E+00  0.83818875190E-01  0.32820624249E+00  0.10476015534E+01  0.51100000000E-03 0.  1.
        -12    1    3    3    0    0  0.22455747525E+02  0.97172289763E+01 -0.36116694081E+02  0.43624542717E+02  0.00000000000E+00 0.  1.
</event>
<event>
 7    1  0.2328615E-009  0.4778726E+02  0.7816164E-02  0.1312668E+00
        -11   -1    0    0    0    0  0.00000000000E+00  0.00000000000E+00  0.45593999997E+02  0.45594000000E+02  0.51100000000E-03 0. -1.
         11   -1    0    0    0    0 -0.00000000000E+00 -0.00000000000E+00 -0.45593999997E+02  0.45594000000E+02  0.51100000000E-03 0.  1.
    9900012    2    1    2    0    0 -0.10322057063E+02  0.42061363041E+02 -0.28143733436E+01  0.47787264750E+02  0.19999971302E+02 0.  0.
         12    1    1    2    0    0  0.10322057063E+02 -0.42061363041E+02  0.28143733436E+01  0.43400735250E+02  0.00000000000E+00 0. -1.
         11    1    3    3    0    0 -0.22057027572E+01  0.22539449259E+02 -0.11344778993E+01  0.22675514061E+02  0.51100000000E-03 0. -1.
        -11    1    3    3    0    0 -0.89474885782E+01  0.15187618070E+02 -0.63030607416E+01  0.18720306340E+02  0.51100000000E-03 0.  1.
         12    1    3    3    0    0  0.83113427280E+00  0.43342957125E+01  0.46231652973E+01  0.63914443492E+01  0.00000000000E+00 0. -1.
</event>
<event>
 7    1  0.2328615E-009  0.4778727E+02  0.7816164E-02  0.1312668E+00
        -11   -1    0    0    0    0  0.00000000000E+00  0.00000000000E+00  0.45593999997E+02  0.45594000000E+02  0.51100000000E-03 0. -1.
         11   -1    0    0    0    0 -0.00000000000E+00 -0.00000000000E+00 -0.45593999997E+02  0.45594000000E+02  0.51100000000E-03 0.  1.
    9900012    2    1    2    0    0  0.18439097534E+01 -0.40933768507E+02  0.14305586406E+02  0.47787271783E+02  0.20000003369E+02 0.  0.
         12    1    1    2    0    0 -0.18439097534E+01  0.40933768507E+02 -0.14305586406E+02  0.43400728217E+02  0.00000000000E+00 0. -1.
         11    1    3    3    0    0 -0.13282132984E+01 -0.38527441882E-01 -0.71980142717E+00  0.15112078896E+01  0.51100000000E-03 0. -1.
        -11    1    3    3    0    0  0.17262218085E+00 -0.22042299739E+02  0.98853747752E-01  0.22043197330E+02  0.51100000000E-03 0.  1.
         12    1    3    3    0    0  0.29995008709E+01 -0.18852941326E+02  0.14926534085E+02  0.24232866564E+02  0.00000000000E+00 0. -1.
</event>
<event>
 7    1  0.2328615E-009  0.4778727E+02  0.7816164E-02  0.1312668E+00
        -11   -1    0    0    0    0  0.00000000000E+00  0.00000000000E+00  0.45593999997E+02  0.45594000000E+02  0.51100000000E-03 0.  1.
         11   -1    0    0    0    0 -0.00000000000E+00 -0.00000000000E+00 -0.45593999997E+02  0.45594000000E+02  0.51100000000E-03 0. -1.
    9900012    2    1    2    0    0 -0.41007153139E+01 -0.18237975004E+02  0.39168653882E+02  0.47787273678E+02  0.20000012006E+02 0.  0.
         12    1    1    2    0    0  0.41007153139E+01  0.18237975004E+02 -0.39168653882E+02  0.43400726322E+02  0.00000000000E+00 0. -1.
         11    1    3    3    0    0 -0.31043249097E+01 -0.56715490508E+01  0.65719993322E+01  0.92192449400E+01  0.51100000000E-03 0. -1.
        -11    1    3    3    0    0 -0.54342853207E+01 -0.10655799318E+02  0.31384386348E+02  0.33586563128E+02  0.51100000000E-03 0.  1.
         12    1    3    3    0    0  0.44378949165E+01 -0.19106266354E+01  0.12122682028E+01  0.49814656102E+01  0.00000000000E+00 0. -1.
</event>
<event>
 7    1  0.2328615E-009  0.4778726E+02  0.7816164E-02  0.1312668E+00
        -11   -1    0    0    0    0  0.00000000000E+00  0.00000000000E+00  0.45593999997E+02  0.45594000000E+02  0.51100000000E-03 0.  1.
         11   -1    0    0    0    0 -0.00000000000E+00 -0.00000000000E+00 -0.45593999997E+02  0.45594000000E+02  0.51100000000E-03 0. -1.
    9900012    2    1    2    0    0 -0.80190330568E+01 -0.10485235675E+02  0.41344634864E+02  0.47787263942E+02  0.19999967616E+02 0.  0.
         12    1    1    2    0    0  0.80190330568E+01  0.10485235675E+02 -0.41344634864E+02  0.43400736058E+02  0.00000000000E+00 0. -1.
         11    1    3    3    0    0  0.39539414580E+00 -0.30321514138E+01  0.13049174538E+01  0.33246185570E+01  0.51100000000E-03 0. -1.
        -11    1    3    3    0    0 -0.42953600327E+01 -0.10914759470E+02  0.35613838932E+02  0.37495701298E+02  0.51100000000E-03 0.  1.
        -12    1    3    3    0    0 -0.41190671699E+01  0.34616752089E+01  0.44258784785E+01  0.69669440868E+01  0.00000000000E+00 0.  1.
</event>
<event>
 7    1  0.2328615E-009  0.4778727E+02  0.7816164E-02  0.1312668E+00
        -11   -1    0    0    0    0  0.00000000000E+00  0.00000000000E+00  0.45593999997E+02  0.45594000000E+02  0.51100000000E-03 0.  1.
         11   -1    0    0    0    0 -0.00000000000E+00 -0.00000000000E+00 -0.45593999997E+02  0.45594000000E+02  0.51100000000E-03 0. -1.
    9900012    2    1    2    0    0 -0.93405815782E+01 -0.37606402897E+02  0.19548285311E+02  0.47787268881E+02  0.19999990135E+02 0.  0.
         12    1    1    2    0    0  0.93405815782E+01  0.37606402897E+02 -0.19548285311E+02  0.43400731119E+02  0.00000000000E+00 0. -1.
         11    1    3    3    0    0 -0.37211899047E+00 -0.42165448126E+01 -0.24319519850E+01  0.48818145620E+01  0.51100000000E-03 0. -1.
        -11    1    3    3    0    0  0.15957466319E+01 -0.14485228164E+02  0.50714052797E+01  0.15430080818E+02  0.51100000000E-03 0.  1.
        -12    1    3    3    0    0 -0.10564209220E+02 -0.18904629921E+02  0.16908832016E+02  0.27475373501E+02  0.00000000000E+00 0.  1.
</event>
<event>
 7    1  0.2328615E-009  0.4778727E+02  0.7816164E-02  0.1312668E+00
        -11   -1    0    0    0    0  0.00000000000E+00  0.00000000000E+00  0.45593999997E+02  0.45594000000E+02  0.51100000000E-03 0.  1.
         11   -1    0    0    0    0 -0.00000000000E+00 -0.00000000000E+00 -0.45593999997E+02  0.45594000000E+02  0.51100000000E-03 0. -1.
    9900012    2    1    2    0    0 -0.15171225937E+02  0.40582990127E+02  0.25451993843E+01  0.47787271619E+02  0.20000002620E+02 0.  0.
         12    1    1    2    0    0  0.15171225937E+02 -0.40582990127E+02 -0.25451993843E+01  0.43400728381E+02  0.00000000000E+00 0. -1.
         11    1    3    3    0    0 -0.29461333607E+01  0.40982853984E+01  0.19507711854E+01  0.54112062855E+01  0.51100000000E-03 0. -1.
        -11    1    3    3    0    0 -0.27905646056E+01  0.19507915021E+02 -0.78305676561E+01  0.21205277394E+02  0.51100000000E-03 0.  1.
        -12    1    3    3    0    0 -0.94345279711E+01  0.16976789708E+02  0.84249958551E+01  0.21170787940E+02  0.00000000000E+00 0.  1.
</event>
<event>
 7    1  0.2328615E-009  0.4778727E+02  0.7816164E-02  0.1312668E+00
        -11   -1    0    0    0    0  0.00000000000E+00  0.00000000000E+00  0.45593999997E+02  0.45594000000E+02  0.51100000000E-03 0.  1.
         11   -1    0    0    0    0 -0.00000000000E+00 -0.00000000000E+00 -0.45593999997E+02  0.45594000000E+02  0.51100000000E-03 0. -1.
    9900012    2    1    2    0    0  0.11615425922E+02 -0.40873203897E+02  0.88366583120E+01  0.47787269058E+02  0.19999990943E+02 0.  0.
         12    1    1    2    0    0 -0.11615425922E+02  0.40873203897E+02 -0.88366583120E+01  0.43400730942E+02  0.00000000000E+00 0. -1.
         11    1    3    3    0    0  0.40264181514E+01 -0.24561904671E+01 -0.16065274436E+01  0.49825541070E+01  0.51100000000E-03 0. -1.
        -11    1    3    3    0    0 -0.38451446172E+01 -0.62464918029E+01  0.25141007667E+01  0.77539989616E+01  0.51100000000E-03 0.  1.
        -12    1    3    3    0    0  0.11434152388E+02 -0.32170521627E+02  0.79290849889E+01  0.35050715989E+02  0.00000000000E+00 0.  1.
</event>
<event>
 7    1  0.2328615E-009  0.4778727E+02  0.7816164E-02  0.1312668E+00
        -11   -1    0    0    0    0  0.00000000000E+00  0.00000000000E+00  0.45593999997E+02  0.45594000000E+02  0.51100000000E-03 0. -1.
         11   -1    0    0    0    0 -0.00000000000E+00 -0.00000000000E+00 -0.45593999997E+02  0.45594000000E+02  0.51100000000E-03 0.  1.
    9900012    2    1    2    0    0 -0.29433674853E+02 -0.24259087501E+02 -0.20706967045E+02  0.47787273901E+02  0.20000013025E+02 0.  0.
         12    1    1    2    0    0  0.29433674853E+02  0.24259087501E+02  0.20706967045E+02  0.43400726099E+02  0.00000000000E+00 0. -1.
         11    1    3    3    0    0 -0.40331196853E+01 -0.61433944030E+01  0.23742857343E+01  0.77229904956E+01  0.51100000000E-03 0. -1.
        -11    1    3    3    0    0 -0.12757452218E+01 -0.39762314163E-01  0.88477101730E+00  0.15530379669E+01  0.51100000000E-03 0.  1.
        -12    1    3    3    0    0 -0.24124809946E+02 -0.18075930784E+02 -0.23966023797E+02  0.38511245439E+02  0.00000000000E+00 0.  1.
</event>
<event>
 7    1  0.2328615E-009  0.4778727E+02  0.7816164E-02  0.1312668E+00
        -11   -1    0    0    0    0  0.00000000000E+00  0.00000000000E+00  0.45593999997E+02  0.45594000000E+02  0.51100000000E-03 0.  1.
         11   -1    0    0    0    0 -0.00000000000E+00 -0.00000000000E+00 -0.45593999997E+02  0.45594000000E+02  0.51100000000E-03 0. -1.
    9900012    2    1    2    0    0  0.12023236085E+02  0.35436501241E+01  0.41551262543E+02  0.47787273266E+02  0.20000010128E+02 0.  0.
         12    1    1    2    0    0 -0.12023236085E+02 -0.35436501241E+01 -0.41551262543E+02  0.43400726734E+02  0.00000000000E+00 0. -1.
         11    1    3    3    0    0 -0.42063999961E+01  0.51903775183E+01  0.12461580536E+02  0.14139476986E+02  0.51100000000E-03 0. -1.
        -11    1    3    3    0    0  0.52477965501E+01 -0.26558934768E+01  0.99641478237E+01  0.11570539352E+02  0.51100000000E-03 0.  1.
        -12    1    3    3    0    0  0.10981839531E+02  0.10091660826E+01  0.19125534183E+02  0.22077256927E+02  0.00000000000E+00 0.  1.
</event>
<event>
 7    1  0.2328615E-009  0.4778727E+02  0.7816164E-02  0.1312668E+00
        -11   -1    0    0    0    0  0.00000000000E+00  0.00000000000E+00  0.45593999997E+02  0.45594000000E+02  0.51100000000E-03 0.  1.
         11   -1    0    0    0    0 -0.00000000000E+00 -0.00000000000E+00 -0.45593999997E+02  0.45594000000E+02  0.51100000000E-03 0. -1.
    9900012    2    1    2    0    0 -0.59356601635E+00  0.20595247318E+02  0.38198262504E+02  0.47787265087E+02  0.19999972837E+02 0.  0.
         12    1    1    2    0    0  0.59356601635E+00 -0.20595247318E+02 -0.38198262504E+02  0.43400734913E+02  0.00000000000E+00 0. -1.
         11    1    3    3    0    0 -0.15654218524E+01  0.10115865058E+02  0.49645356326E+01  0.11376637718E+02  0.51100000000E-03 0.  1.
        -11    1    3    3    0    0 -0.23804638771E+01 -0.12366627260E+01  0.56116123209E+01  0.62198180093E+01  0.51100000000E-03 0. -1.
        -12    1    3    3    0    0  0.33523197131E+01  0.11716044985E+02  0.27622114550E+02  0.30190809360E+02  0.00000000000E+00 0.  1.
</event>
<event>
 7    1  0.2328615E-009  0.4778727E+02  0.7816164E-02  0.1312668E+00
        -11   -1    0    0    0    0  0.00000000000E+00  0.00000000000E+00  0.45593999997E+02  0.45594000000E+02  0.51100000000E-03 0. -1.
         11   -1    0    0    0    0 -0.00000000000E+00 -0.00000000000E+00 -0.45593999997E+02  0.45594000000E+02  0.51100000000E-03 0.  1.
    9900012    2    1    2    0    0 -0.24124833361E+02  0.31428708818E+02 -0.17715868799E+02  0.47787270399E+02  0.19999997056E+02 0.  0.
         12    1    1    2    0    0  0.24124833361E+02 -0.31428708818E+02  0.17715868799E+02  0.43400729601E+02  0.00000000000E+00 0. -1.
         11    1    3    3    0    0 -0.58351627470E+01  0.13471435843E+02 -0.31944976963E+01  0.15024430896E+02  0.51100000000E-03 0.  1.
        -11    1    3    3    0    0 -0.58000839972E+01  0.14995213792E+02 -0.10904656453E+02  0.19427015820E+02  0.51100000000E-03 0. -1.
         12    1    3    3    0    0 -0.12489586617E+02  0.29620591830E+01 -0.36167146496E+01  0.13335823683E+02  0.00000000000E+00 0. -1.
</event>
<event>
 7    1  0.2328615E-009  0.4778732E+02  0.7816164E-02  0.1312668E+00
        -11   -1    0    0    0    0  0.00000000000E+00  0.00000000000E+00  0.45593999997E+02  0.45594000000E+02  0.51100000000E-03 0.  1.
         11   -1    0    0    0    0 -0.00000000000E+00 -0.00000000000E+00 -0.45593999997E+02  0.45594000000E+02  0.51100000000E-03 0. -1.
    9900012    2    1    2    0    0  0.33104220560E+02 -0.24894192787E+02 -0.12961827385E+02  0.47787317718E+02  0.20000212802E+02 0.  0.
         12    1    1    2    0    0 -0.33104220560E+02  0.24894192787E+02  0.12961827385E+02  0.43400682282E+02  0.00000000000E+00 0. -1.
         11    1    3    3    0    0  0.68641462980E+01 -0.58289070894E+01 -0.90358471051E+01  0.12756927350E+02  0.51100000000E-03 0. -1.
        -11    1    3    3    0    0  0.19039435630E+02 -0.62328664881E+01 -0.12349284308E+01  0.20071715977E+02  0.51100000000E-03 0.  1.
         12    1    3    3    0    0  0.72006386320E+01 -0.12832419209E+02 -0.26910518489E+01  0.14958674390E+02  0.00000000000E+00 0. -1.
</event>
<event>
 7    1  0.2328615E-009  0.4778727E+02  0.7816164E-02  0.1312668E+00
        -11   -1    0    0    0    0  0.00000000000E+00  0.00000000000E+00  0.45593999997E+02  0.45594000000E+02  0.51100000000E-03 0. -1.
         11   -1    0    0    0    0 -0.00000000000E+00 -0.00000000000E+00 -0.45593999997E+02  0.45594000000E+02  0.51100000000E-03 0.  1.
    9900012    2    1    2    0    0  0.11799194420E+02  0.24722650823E+02 -0.33662932797E+02  0.47787268472E+02  0.19999988273E+02 0.  0.
         12    1    1    2    0    0 -0.11799194420E+02 -0.24722650823E+02  0.33662932797E+02  0.43400731528E+02  0.00000000000E+00 0. -1.
         11    1    3    3    0    0  0.11192896933E+02  0.16219510928E+02 -0.26488426807E+02  0.33015000098E+02  0.51100000000E-03 0. -1.
        -11    1    3    3    0    0  0.36368223535E+01 -0.24732303093E+00 -0.22537991928E+01  0.42857037433E+01  0.51100000000E-03 0.  1.
         12    1    3    3    0    0 -0.30305248671E+01  0.87504629257E+01 -0.49207067973E+01  0.10486564631E+02  0.00000000000E+00 0. -1.
</event>
<event>
 7    1  0.2328615E-009  0.4778727E+02  0.7816164E-02  0.1312668E+00
        -11   -1    0    0    0    0  0.00000000000E+00  0.00000000000E+00  0.45593999997E+02  0.45594000000E+02  0.51100000000E-03 0. -1.
         11   -1    0    0    0    0 -0.00000000000E+00 -0.00000000000E+00 -0.45593999997E+02  0.45594000000E+02  0.51100000000E-03 0.  1.
    9900012    2    1    2    0    0  0.33410000514E+02  0.21276248008E+01 -0.27620071412E+02  0.47787271130E+02  0.20000000389E+02 0.  0.
         12    1    1    2    0    0 -0.33410000514E+02 -0.21276248008E+01  0.27620071412E+02  0.43400728870E+02  0.00000000000E+00 0. -1.
         11    1    3    3    0    0  0.32412487055E+01  0.23802001928E+01 -0.10408906144E+01  0.41538535917E+01  0.51100000000E-03 0. -1.
        -11    1    3    3    0    0 -0.21165322019E+01 -0.66124061423E+00 -0.25878625696E+01  0.34079290855E+01  0.51100000000E-03 0.  1.
        -12    1    3    3    0    0  0.32285284011E+02  0.40866522224E+00 -0.23991318228E+02  0.40225488453E+02  0.00000000000E+00 0.  1.
</event>
<event>
 7    1  0.2328615E-009  0.4778727E+02  0.7816164E-02  0.1312668E+00
        -11   -1    0    0    0    0  0.00000000000E+00  0.00000000000E+00  0.45593999997E+02  0.45594000000E+02  0.51100000000E-03 0.  1.
         11   -1    0    0    0    0 -0.00000000000E+00 -0.00000000000E+00 -0.45593999997E+02  0.45594000000E+02  0.51100000000E-03 0. -1.
    9900012    2    1    2    0    0 -0.16940615212E+02 -0.26797920086E+02  0.29639676116E+02  0.47787269996E+02  0.19999995219E+02 0.  0.
         12    1    1    2    0    0  0.16940615212E+02  0.26797920086E+02 -0.29639676116E+02  0.43400730004E+02  0.00000000000E+00 0. -1.
         11    1    3    3    0    0 -0.31779934552E+01  0.58003598975E-01  0.38267411916E+01  0.49746311650E+01  0.51100000000E-03 0. -1.
        -11    1    3    3    0    0 -0.94182506605E+00 -0.13917488830E+02  0.18535270967E+02  0.23197840414E+02  0.51100000000E-03 0.  1.
        -12    1    3    3    0    0 -0.12820796690E+02 -0.12938434854E+02  0.72776639565E+01  0.19614798416E+02  0.00000000000E+00 0.  1.
</event>
<event>
 7    1  0.2328615E-009  0.4778727E+02  0.7816164E-02  0.1312668E+00
        -11   -1    0    0    0    0  0.00000000000E+00  0.00000000000E+00  0.45593999997E+02  0.45594000000E+02  0.51100000000E-03 0.  1.
         11   -1    0    0    0    0 -0.00000000000E+00 -0.00000000000E+00 -0.45593999997E+02  0.45594000000E+02  0.51100000000E-03 0. -1.
    9900012    2    1    2    0    0 -0.12289867349E+02  0.31230146935E+02  0.27518367586E+02  0.47787268766E+02  0.19999989610E+02 0.  0.
         12    1    1    2    0    0  0.12289867349E+02 -0.31230146935E+02 -0.27518367586E+02  0.43400731234E+02  0.00000000000E+00 0. -1.
         11    1    3    3    0    0  0.26735430053E+01  0.59866471555E+01  0.13146593843E+02  0.14690837495E+02  0.51100000000E-03 0.  1.
        -11    1    3    3    0    0  0.16505383450E+00  0.23997420027E+01  0.13816683550E+01  0.27739884917E+01  0.51100000000E-03 0. -1.
        -12    1    3    3    0    0 -0.15128464189E+02  0.22843757777E+02  0.12990105388E+02  0.30322442779E+02  0.00000000000E+00 0.  1.
</event>
<event>
 7    1  0.2328615E-009  0.4778727E+02  0.7816164E-02  0.1312668E+00
        -11   -1    0    0    0    0  0.00000000000E+00  0.00000000000E+00  0.45593999997E+02  0.45594000000E+02  0.51100000000E-03 0. -1.
         11   -1    0    0    0    0 -0.00000000000E+00 -0.00000000000E+00 -0.45593999997E+02  0.45594000000E+02  0.51100000000E-03 0.  1.
    9900012    2    1    2    0    0  0.37147897307E+02  0.22032197191E+02  0.42707452444E+01  0.47787271292E+02  0.20000001130E+02 0.  0.
         12    1    1    2    0    0 -0.37147897307E+02 -0.22032197191E+02 -0.42707452444E+01  0.43400728708E+02  0.00000000000E+00 0. -1.
         11    1    3    3    0    0  0.14229850292E+02  0.10901288061E+02 -0.32729679994E+01  0.18221938439E+02  0.51100000000E-03 0. -1.
        -11    1    3    3    0    0  0.18608283337E+02  0.68890325091E+01 -0.69594912426E-01  0.19842676769E+02  0.51100000000E-03 0.  1.
         12    1    3    3    0    0  0.43097636783E+01  0.42418766218E+01  0.76133081562E+01  0.97226560836E+01  0.00000000000E+00 0. -1.
</event>
<event>
 7    1  0.3271434E-009  0.4778727E+02  0.7816164E-02  0.1312668E+00
        -11   -1    0    0    0    0  0.00000000000E+00  0.00000000000E+00  0.45593999997E+02  0.45594000000E+02  0.51100000000E-03 0.  1.
         11   -1    0    0    0    0 -0.00000000000E+00 -0.00000000000E+00 -0.45593999997E+02  0.45594000000E+02  0.51100000000E-03 0. -1.
    9900012    2    1    2    0    0 -0.83608205312E+01 -0.40158800239E+02 -0.14177127698E+02  0.47787268366E+02  0.19999987787E+02 0.  0.
         12    1    1    2    0    0  0.83608205312E+01  0.40158800239E+02  0.14177127698E+02  0.43400731634E+02  0.00000000000E+00 0. -1.
         11    1    3    3    0    0  0.28636060708E+01 -0.11816986787E+01  0.18368680867E+00  0.31032873861E+01  0.51100000000E-03 0. -1.
        -11    1    3    3    0    0  0.11744892526E+00 -0.10423058531E+02 -0.83997481515E+01  0.13386923196E+02  0.51100000000E-03 0.  1.
        -12    1    3    3    0    0 -0.11341875527E+02 -0.28554043030E+02 -0.59610663552E+01  0.31297057784E+02  0.00000000000E+00 0.  1.
</event>
<event>
 7    1  0.2328615E-009  0.4778727E+02  0.7816164E-02  0.1312668E+00
        -11   -1    0    0    0    0  0.00000000000E+00  0.00000000000E+00  0.45593999997E+02  0.45594000000E+02  0.51100000000E-03 0.  1.
         11   -1    0    0    0    0 -0.00000000000E+00 -0.00000000000E+00 -0.45593999997E+02  0.45594000000E+02  0.51100000000E-03 0. -1.
    9900012    2    1    2    0    0 -0.24028073997E+02  0.20409740199E+01  0.36084751563E+02  0.47787271777E+02  0.20000003340E+02 0.  0.
         12    1    1    2    0    0  0.24028073997E+02 -0.20409740199E+01 -0.36084751563E+02  0.43400728223E+02  0.00000000000E+00 0. -1.
         11    1    3    3    0    0  0.41912327216E+00  0.47002538716E+01  0.42679272529E+01  0.63626452103E+01  0.51100000000E-03 0. -1.
        -11    1    3    3    0    0 -0.84983598593E+01  0.17082336737E+01  0.52571536389E+01  0.10137940976E+02  0.51100000000E-03 0.  1.
        -12    1    3    3    0    0 -0.15948837410E+02 -0.43675135254E+01  0.26559670671E+02  0.31286685591E+02  0.00000000000E+00 0.  1.
</event>
<event>
 7    1  0.2328615E-009  0.4778729E+02  0.7816164E-02  0.1312668E+00
        -11   -1    0    0    0    0  0.00000000000E+00  0.00000000000E+00  0.45593999997E+02  0.45594000000E+02  0.51100000000E-03 0.  1.
         11   -1    0    0    0    0 -0.00000000000E+00 -0.00000000000E+00 -0.45593999997E+02  0.45594000000E+02  0.51100000000E-03 0. -1.
    9900012    2    1    2    0    0  0.15772940648E+02 -0.16601195100E+02  0.36867824321E+02  0.47787287960E+02  0.20000077125E+02 0.  0.
         12    1    1    2    0    0 -0.15772940648E+02  0.16601195100E+02 -0.36867824321E+02  0.43400712040E+02  0.00000000000E+00 0. -1.
         11    1    3    3    0    0  0.63623807469E+00 -0.17257079587E+01  0.70005030400E-01  0.18405889850E+01  0.51100000000E-03 0. -1.
        -11    1    3    3    0    0  0.22706258901E+01 -0.10114954984E+02  0.54134413812E+01  0.11695016208E+02  0.51100000000E-03 0.  1.
        -12    1    3    3    0    0  0.12866076683E+02 -0.47605321580E+01  0.31384377909E+02  0.34251682767E+02  0.00000000000E+00 0.  1.
</event>
<event>
 7    1  0.2328615E-009  0.4778727E+02  0.7816164E-02  0.1312668E+00
        -11   -1    0    0    0    0  0.00000000000E+00  0.00000000000E+00  0.45593999997E+02  0.45594000000E+02  0.51100000000E-03 0.  1.
         11   -1    0    0    0    0 -0.00000000000E+00 -0.00000000000E+00 -0.45593999997E+02  0.45594000000E+02  0.51100000000E-03 0. -1.
    9900012    2    1    2    0    0 -0.34857625581E+02  0.10682640548E+02  0.23546771663E+02  0.47787270444E+02  0.19999997263E+02 0.  0.
         12    1    1    2    0    0  0.34857625581E+02 -0.10682640548E+02 -0.23546771663E+02  0.43400729556E+02  0.00000000000E+00 0. -1.
         11    1    3    3    0    0 -0.10863592608E+02  0.14637204899E+01  0.10633513657E+02  0.15271926367E+02  0.51100000000E-03 0. -1.
        -11    1    3    3    0    0 -0.24829986721E+02  0.10709454172E+02  0.14039675212E+02  0.30468559689E+02  0.51100000000E-03 0.  1.
         12    1    3    3    0    0  0.83595374756E+00 -0.14905341134E+01 -0.11264172051E+01  0.20467843880E+01  0.00000000000E+00 0. -1.
</event>
<event>
 7    1  0.2505694E-009  0.4778730E+02  0.7816164E-02  0.1312668E+00
        -11   -1    0    0    0    0  0.00000000000E+00  0.00000000000E+00  0.45593999997E+02  0.45594000000E+02  0.51100000000E-03 0. -1.
         11   -1    0    0    0    0 -0.00000000000E+00 -0.00000000000E+00 -0.45593999997E+02  0.45594000000E+02  0.51100000000E-03 0.  1.
    9900012    2    1    2    0    0 -0.18300619009E+00  0.15544978672E+02 -0.40520873780E+02  0.47787296491E+02  0.20000116019E+02 0.  0.
         12    1    1    2    0    0  0.18300619009E+00 -0.15544978672E+02  0.40520873780E+02  0.43400703509E+02  0.00000000000E+00 0. -1.
         11    1    3    3    0    0  0.29360151921E+01  0.77214732542E+01 -0.28672910109E+01  0.87442948501E+01  0.51100000000E-03 0. -1.
        -11    1    3    3    0    0 -0.26486853069E+01  0.49065980263E+00 -0.14610036231E+02  0.14856292937E+02  0.51100000000E-03 0.  1.
        -12    1    3    3    0    0 -0.47033607529E+00  0.73328456154E+01 -0.23043546539E+02  0.24186708704E+02  0.00000000000E+00 0.  1.
</event>
<event>
 7    1  0.2328615E-009  0.4778729E+02  0.7816164E-02  0.1312668E+00
        -11   -1    0    0    0    0  0.00000000000E+00  0.00000000000E+00  0.45593999997E+02  0.45594000000E+02  0.51100000000E-03 0.  1.
         11   -1    0    0    0    0 -0.00000000000E+00 -0.00000000000E+00 -0.45593999997E+02  0.45594000000E+02  0.51100000000E-03 0. -1.
    9900012    2    1    2    0    0  0.30046749918E+02 -0.15087784085E+02  0.27444006446E+02  0.47787286884E+02  0.20000072218E+02 0.  0.
         12    1    1    2    0    0 -0.30046749918E+02  0.15087784085E+02 -0.27444006446E+02  0.43400713116E+02  0.00000000000E+00 0. -1.
         11    1    3    3    0    0  0.10958403378E+02  0.63690213543E+00  0.45985591326E+01  0.11901218227E+02  0.51100000000E-03 0. -1.
        -11    1    3    3    0    0  0.80518533960E+01  0.12507127217E+00  0.92662747852E+01  0.12276474844E+02  0.51100000000E-03 0.  1.
         12    1    3    3    0    0  0.11036493143E+02 -0.15849757493E+02  0.13579172528E+02  0.23609593813E+02  0.00000000000E+00 0. -1.
</event>
<event>
 7    1  0.2328615E-009  0.4778726E+02  0.7816164E-02  0.1312668E+00
        -11   -1    0    0    0    0  0.00000000000E+00  0.00000000000E+00  0.45593999997E+02  0.45594000000E+02  0.51100000000E-03 0.  1.
         11   -1    0    0    0    0 -0.00000000000E+00 -0.00000000000E+00 -0.45593999997E+02  0.45594000000E+02  0.51100000000E-03 0. -1.
    9900012    2    1    2    0    0 -0.11185025298E+02 -0.12536287296E+01  0.41915959051E+02  0.47787262690E+02  0.19999961909E+02 0.  0.
         12    1    1    2    0    0  0.11185025298E+02  0.12536287296E+01 -0.41915959051E+02  0.43400737310E+02  0.00000000000E+00 0. -1.
         11    1    3    3    0    0 -0.51520258510E+01  0.28072914744E+01  0.70707213947E+01  0.91880007125E+01  0.51100000000E-03 0. -1.
        -11    1    3    3    0    0 -0.37724048170E+01  0.53549759286E+01  0.18191552127E+02  0.19334926283E+02  0.51100000000E-03 0.  1.
        -12    1    3    3    0    0 -0.22605946295E+01 -0.94158961326E+01  0.16653685529E+02  0.19264335695E+02  0.00000000000E+00 0.  1.
</event>
<event>
 7    1  0.2328615E-009  0.4778727E+02  0.7816164E-02  0.1312668E+00
        -11   -1    0    0    0    0  0.00000000000E+00  0.00000000000E+00  0.45593999997E+02  0.45594000000E+02  0.51100000000E-03 0.  1.
         11   -1    0    0    0    0 -0.00000000000E+00 -0.00000000000E+00 -0.45593999997E+02  0.45594000000E+02  0.51100000000E-03 0. -1.
    9900012    2    1    2    0    0 -0.79472389358E+01 -0.16183577582E+02  0.39478554202E+02  0.47787273831E+02  0.20000012706E+02 0.  0.
         12    1    1    2    0    0  0.79472389358E+01  0.16183577582E+02 -0.39478554202E+02  0.43400726169E+02  0.00000000000E+00 0. -1.
         11    1    3    3    0    0  0.22745000972E+01 -0.79723201482E+01  0.18518062893E+02  0.20289157025E+02  0.51100000000E-03 0.  1.
        -11    1    3    3    0    0 -0.96586636502E+01 -0.11233188963E+01  0.16352846783E+02  0.19025436316E+02  0.51100000000E-03 0. -1.
         12    1    3    3    0    0 -0.56307538277E+00 -0.70879385375E+01  0.46076445269E+01  0.84726804900E+01  0.00000000000E+00 0. -1.
</event>
<event>
 7    1  0.2328615E-009  0.4778727E+02  0.7816164E-02  0.1312668E+00
        -11   -1    0    0    0    0  0.00000000000E+00  0.00000000000E+00  0.45593999997E+02  0.45594000000E+02  0.51100000000E-03 0. -1.
         11   -1    0    0    0    0 -0.00000000000E+00 -0.00000000000E+00 -0.45593999997E+02  0.45594000000E+02  0.51100000000E-03 0.  1.
    9900012    2    1    2    0    0 -0.39436077132E+02 -0.18197282890E+01 -0.18030742140E+02  0.47787271289E+02  0.20000001113E+02 0.  0.
         12    1    1    2    0    0  0.39436077132E+02  0.18197282890E+01  0.18030742140E+02  0.43400728711E+02  0.00000000000E+00 0. -1.
         11    1    3    3    0    0 -0.84608784468E+01  0.10214023115E+01 -0.65927904608E+01  0.10774721022E+02  0.51100000000E-03 0.  1.
        -11    1    3    3    0    0 -0.14351417748E+02  0.49646601649E+01 -0.10802941744E+02  0.18636378203E+02  0.51100000000E-03 0. -1.
         12    1    3    3    0    0 -0.16623780937E+02 -0.78057907654E+01 -0.63500993457E+00  0.18376172064E+02  0.00000000000E+00 0. -1.
</event>
<event>
 7    1  0.2328615E-009  0.4778725E+02  0.7816164E-02  0.1312668E+00
        -11   -1    0    0    0    0  0.00000000000E+00  0.00000000000E+00  0.45593999997E+02  0.45594000000E+02  0.51100000000E-03 0. -1.
         11   -1    0    0    0    0 -0.00000000000E+00 -0.00000000000E+00 -0.45593999997E+02  0.45594000000E+02  0.51100000000E-03 0.  1.
    9900012    2    1    2    0    0  0.73434635016E+01  0.40458658392E+02  0.13885093859E+02  0.47787247397E+02  0.19999892182E+02 0.  0.
         12    1    1    2    0    0 -0.73434635016E+01 -0.40458658392E+02 -0.13885093859E+02  0.43400752603E+02  0.00000000000E+00 0. -1.
         11    1    3    3    0    0 -0.42314982656E+01  0.76752969994E+01  0.36364534293E+01  0.94889175044E+01  0.51100000000E-03 0. -1.
        -11    1    3    3    0    0 -0.22298303075E+01  0.64099876726E+01  0.40127241467E+01  0.78842907418E+01  0.51100000000E-03 0.  1.
        -12    1    3    3    0    0  0.13804792075E+02  0.26373373720E+02  0.62359162825E+01  0.30414039151E+02  0.00000000000E+00 0.  1.
</event>
<event>
 7    1  0.2328615E-009  0.4778726E+02  0.7816164E-02  0.1312668E+00
        -11   -1    0    0    0    0  0.00000000000E+00  0.00000000000E+00  0.45593999997E+02  0.45594000000E+02  0.51100000000E-03 0. -1.
         11   -1    0    0    0    0 -0.00000000000E+00 -0.00000000000E+00 -0.45593999997E+02  0.45594000000E+02  0.51100000000E-03 0.  1.
    9900012    2    1    2    0    0  0.19587785415E+02  0.27476903075E+02 -0.27294001165E+02  0.47787262222E+02  0.19999959775E+02 0.  0.
         12    1    1    2    0    0 -0.19587785415E+02 -0.27476903075E+02  0.27294001165E+02  0.43400737778E+02  0.00000000000E+00 0. -1.
         11    1    3    3    0    0 -0.58177353095E+00  0.31738444032E+01 -0.37021990159E+01  0.49110107464E+01  0.51100000000E-03 0. -1.
        -11    1    3    3    0    0  0.16377676354E+02  0.25029560257E+02 -0.24773552255E+02  0.38838589843E+02  0.51100000000E-03 0.  1.
         12    1    3    3    0    0  0.37918825923E+01 -0.72650158541E+00  0.11817501055E+01  0.40376616326E+01  0.00000000000E+00 0. -1.
</event>
<event>
 7    1  0.2328615E-009  0.4778727E+02  0.7816164E-02  0.1312668E+00
        -11   -1    0    0    0    0  0.00000000000E+00  0.00000000000E+00  0.45593999997E+02  0.45594000000E+02  0.51100000000E-03 0.  1.
         11   -1    0    0    0    0 -0.00000000000E+00 -0.00000000000E+00 -0.45593999997E+02  0.45594000000E+02  0.51100000000E-03 0. -1.
    9900012    2    1    2    0    0  0.43367054277E+02 -0.16947407008E+01  0.22295300692E+00  0.47787271311E+02  0.20000001213E+02 0.  0.
         12    1    1    2    0    0 -0.43367054277E+02  0.16947407008E+01 -0.22295300692E+00  0.43400728689E+02  0.00000000000E+00 0. -1.
         11    1    3    3    0    0  0.40825593847E+01  0.17281805032E+01 -0.45585878681E+01  0.63588224219E+01  0.51100000000E-03 0. -1.
        -11    1    3    3    0    0  0.41097277531E+01  0.23851037101E+01  0.32263172763E+01  0.57434924341E+01  0.51100000000E-03 0.  1.
        -12    1    3    3    0    0  0.35174767140E+02 -0.58080249141E+01  0.15552235987E+01  0.35684956455E+02  0.00000000000E+00 0.  1.
</event>
<event>
 7    1  0.2328615E-009  0.4778727E+02  0.7816164E-02  0.1312668E+00
        -11   -1    0    0    0    0  0.00000000000E+00  0.00000000000E+00  0.45593999997E+02  0.45594000000E+02  0.51100000000E-03 0. -1.
         11   -1    0    0    0    0 -0.00000000000E+00 -0.00000000000E+00 -0.45593999997E+02  0.45594000000E+02  0.51100000000E-03 0.  1.
    9900012    2    1    2    0    0  0.33970712247E+02 -0.16209734676E+02 -0.21606918705E+02  0.47787265850E+02  0.19999976317E+02 0.  0.
         12    1    1    2    0    0 -0.33970712247E+02  0.16209734676E+02  0.21606918705E+02  0.43400734150E+02  0.00000000000E+00 0. -1.
         11    1    3    3    0    0  0.68173104158E+01 -0.48753308616E+01 -0.34143382384E+00  0.83881553176E+01  0.51100000000E-03 0. -1.
        -11    1    3    3    0    0  0.17477047181E+02 -0.64727710831E+01 -0.40676381182E+01  0.19075891166E+02  0.51100000000E-03 0.  1.
         12    1    3    3    0    0  0.96763546503E+01 -0.48616327313E+01 -0.17197846763E+02  0.20323219366E+02  0.00000000000E+00 0. -1.
</event>
<event>
 7    1  0.2328615E-009  0.4778727E+02  0.7816164E-02  0.1312668E+00
        -11   -1    0    0    0    0  0.00000000000E+00  0.00000000000E+00  0.45593999997E+02  0.45594000000E+02  0.51100000000E-03 0.  1.
         11   -1    0    0    0    0 -0.00000000000E+00 -0.00000000000E+00 -0.45593999997E+02  0.45594000000E+02  0.51100000000E-03 0. -1.
    9900012    2    1    2    0    0 -0.49884327469E+01  0.15000349656E+02  0.40419406344E+02  0.47787270049E+02  0.19999995463E+02 0.  0.
         12    1    1    2    0    0  0.49884327469E+01 -0.15000349656E+02 -0.40419406344E+02  0.43400729951E+02  0.00000000000E+00 0. -1.
         11    1    3    3    0    0  0.31886896051E+00  0.13277804563E+02  0.14311757741E+02  0.19525065463E+02  0.51100000000E-03 0. -1.
        -11    1    3    3    0    0  0.47220887677E+00 -0.17796242830E+01  0.69767066000E+00  0.19689561759E+01  0.51100000000E-03 0.  1.
        -12    1    3    3    0    0 -0.57795105842E+01  0.35021693762E+01  0.25409977942E+02  0.26293248410E+02  0.00000000000E+00 0.  1.
</event>
<event>
 7    1  0.2328615E-009  0.4778727E+02  0.7816164E-02  0.1312668E+00
        -11   -1    0    0    0    0  0.00000000000E+00  0.00000000000E+00  0.45593999997E+02  0.45594000000E+02  0.51100000000E-03 0.  1.
         11   -1    0    0    0    0 -0.00000000000E+00 -0.00000000000E+00 -0.45593999997E+02  0.45594000000E+02  0.51100000000E-03 0. -1.
    9900012    2    1    2    0    0 -0.25714211099E+02  0.51849326274E+01  0.34576279300E+02  0.47787271100E+02  0.20000000255E+02 0.  0.
         12    1    1    2    0    0  0.25714211099E+02 -0.51849326274E+01 -0.34576279300E+02  0.43400728900E+02  0.00000000000E+00 0. -1.
         11    1    3    3    0    0 -0.35838708147E+01 -0.34946732845E+01  0.24722442064E+01  0.55829081185E+01  0.51100000000E-03 0. -1.
        -11    1    3    3    0    0 -0.28967885088E+00  0.41477851338E+01  0.98691335838E+01  0.10709240557E+02  0.51100000000E-03 0.  1.
        -12    1    3    3    0    0 -0.21840661433E+02  0.45318207781E+01  0.22234901510E+02  0.31495122425E+02  0.00000000000E+00 0.  1.
</event>
<event>
 7    1  0.2328615E-009  0.4778727E+02  0.7816164E-02  0.1312668E+00
        -11   -1    0    0    0    0  0.00000000000E+00  0.00000000000E+00  0.45593999997E+02  0.45594000000E+02  0.51100000000E-03 0.  1.
         11   -1    0    0    0    0 -0.00000000000E+00 -0.00000000000E+00 -0.45593999997E+02  0.45594000000E+02  0.51100000000E-03 0. -1.
    9900012    2    1    2    0    0  0.30147757972E+02 -0.30729562043E+02  0.55163587655E+01  0.47787268346E+02  0.19999987696E+02 0.  0.
         12    1    1    2    0    0 -0.30147757972E+02  0.30729562043E+02 -0.55163587655E+01  0.43400731654E+02  0.00000000000E+00 0. -1.
         11    1    3    3    0    0  0.60149697342E+01 -0.86673384145E+01 -0.51714352693E+01  0.11749313133E+02  0.51100000000E-03 0. -1.
        -11    1    3    3    0    0  0.97899925701E+01 -0.14520090531E+02  0.19308968260E+01  0.17618324165E+02  0.51100000000E-03 0.  1.
        -12    1    3    3    0    0  0.14342795668E+02 -0.75421330969E+01  0.87568972088E+01  0.18419631048E+02  0.00000000000E+00 0.  1.
</event>
<event>
 7    1  0.2328615E-009  0.4778726E+02  0.7816164E-02  0.1312668E+00
        -11   -1    0    0    0    0  0.00000000000E+00  0.00000000000E+00  0.45593999997E+02  0.45594000000E+02  0.51100000000E-03 0. -1.
         11   -1    0    0    0    0 -0.00000000000E+00 -0.00000000000E+00 -0.45593999997E+02  0.45594000000E+02  0.51100000000E-03 0.  1.
    9900012    2    1    2    0    0 -0.32536941375E+02 -0.20290216884E+01 -0.28650560408E+02  0.47787261587E+02  0.19999956882E+02 0.  0.
         12    1    1    2    0    0  0.32536941375E+02  0.20290216884E+01  0.28650560408E+02  0.43400738413E+02  0.00000000000E+00 0. -1.
         11    1    3    3    0    0  0.11462547159E+01 -0.28890813775E+01 -0.32337534605E+01  0.44852929430E+01  0.51100000000E-03 0. -1.
        -11    1    3    3    0    0 -0.54327430260E+01 -0.17362242556E+01 -0.86102439859E+01  0.10327897812E+02  0.51100000000E-03 0.  1.
        -12    1    3    3    0    0 -0.28250453065E+02  0.25962839447E+01 -0.16806562961E+02  0.32974070833E+02  0.00000000000E+00 0.  1.
</event>
<event>
 7    1  0.2328615E-009  0.4778727E+02  0.7816164E-02  0.1312668E+00
        -11   -1    0    0    0    0  0.00000000000E+00  0.00000000000E+00  0.45593999997E+02  0.45594000000E+02  0.51100000000E-03 0.  1.
         11   -1    0    0    0    0 -0.00000000000E+00 -0.00000000000E+00 -0.45593999997E+02  0.45594000000E+02  0.51100000000E-03 0. -1.
    9900012    2    1    2    0    0 -0.97255349414E+01  0.32824230478E+02  0.26675973920E+02  0.47787265894E+02  0.19999976518E+02 0.  0.
         12    1    1    2    0    0  0.97255349414E+01 -0.32824230478E+02 -0.26675973920E+02  0.43400734106E+02  0.00000000000E+00 0. -1.
         11    1    3    3    0    0 -0.70565194390E+00  0.13992387165E+02  0.30057445557E+01  0.14328968694E+02  0.51100000000E-03 0. -1.
        -11    1    3    3    0    0 -0.40853176370E+01  0.17623035138E+02  0.15426213417E+02  0.23774550434E+02  0.51100000000E-03 0.  1.
         12    1    3    3    0    0 -0.49345653604E+01  0.12088081743E+01  0.82440159473E+01  0.96837467665E+01  0.00000000000E+00 0. -1.
</event>
<event>
 7    1  0.2328615E-009  0.4778727E+02  0.7816164E-02  0.1312668E+00
        -11   -1    0    0    0    0  0.00000000000E+00  0.00000000000E+00  0.45593999997E+02  0.45594000000E+02  0.51100000000E-03 0.  1.
         11   -1    0    0    0    0 -0.00000000000E+00 -0.00000000000E+00 -0.45593999997E+02  0.45594000000E+02  0.51100000000E-03 0. -1.
    9900012    2    1    2    0    0  0.37891926585E+02 -0.81166058577E+01  0.19543445029E+02  0.47787266889E+02  0.19999981054E+02 0.  0.
         12    1    1    2    0    0 -0.37891926585E+02  0.81166058577E+01 -0.19543445029E+02  0.43400733111E+02  0.00000000000E+00 0. -1.
         11    1    3    3    0    0  0.17440944173E+02 -0.19351597519E+01  0.83426151585E+01  0.19430146805E+02  0.51100000000E-03 0. -1.
        -11    1    3    3    0    0  0.22240836376E+02 -0.45722371397E+01  0.12170772977E+02  0.25762140250E+02  0.51100000000E-03 0.  1.
         12    1    3    3    0    0 -0.17898539641E+01 -0.16092089660E+01 -0.96994310650E+00  0.25949798340E+01  0.00000000000E+00 0. -1.
</event>
<event>
 7    1  0.2328615E-009  0.4778727E+02  0.7816164E-02  0.1312668E+00
        -11   -1    0    0    0    0  0.00000000000E+00  0.00000000000E+00  0.45593999997E+02  0.45594000000E+02  0.51100000000E-03 0. -1.
         11   -1    0    0    0    0 -0.00000000000E+00 -0.00000000000E+00 -0.45593999997E+02  0.45594000000E+02  0.51100000000E-03 0.  1.
    9900012    2    1    2    0    0  0.33833791089E+02 -0.63102949148E+01 -0.26440085195E+02  0.47787270208E+02  0.19999996185E+02 0.  0.
         12    1    1    2    0    0 -0.33833791089E+02  0.63102949148E+01  0.26440085195E+02  0.43400729792E+02  0.00000000000E+00 0. -1.
         11    1    3    3    0    0  0.84824250983E+01 -0.85515049418E+01 -0.13658589737E+02  0.18210899104E+02  0.51100000000E-03 0.  1.
        -11    1    3    3    0    0  0.17807653390E+01 -0.86831787856E+00 -0.35632492479E+01  0.40769898938E+01  0.51100000000E-03 0. -1.
         12    1    3    3    0    0  0.23570600652E+02  0.31095279055E+01 -0.92182462105E+01  0.25499381210E+02  0.00000000000E+00 0. -1.
</event>
<event>
 7    1  0.2328615E-009  0.4778727E+02  0.7816164E-02  0.1312668E+00
        -11   -1    0    0    0    0  0.00000000000E+00  0.00000000000E+00  0.45593999997E+02  0.45594000000E+02  0.51100000000E-03 0.  1.
         11   -1    0    0    0    0 -0.00000000000E+00 -0.00000000000E+00 -0.45593999997E+02  0.45594000000E+02  0.51100000000E-03 0. -1.
    9900012    2    1    2    0    0 -0.26799834365E+02  0.15822960912E+02  0.30249396582E+02  0.47787271808E+02  0.20000003481E+02 0.  0.
         12    1    1    2    0    0  0.26799834365E+02 -0.15822960912E+02 -0.30249396582E+02  0.43400728192E+02  0.00000000000E+00 0. -1.
         11    1    3    3    0    0 -0.46090420432E+01 -0.55472646968E+00  0.69018061972E+00  0.46933292620E+01  0.51100000000E-03 0. -1.
        -11    1    3    3    0    0 -0.19930269911E+02  0.85662386566E+01  0.14858457572E+02  0.26293913081E+02  0.51100000000E-03 0.  1.
        -12    1    3    3    0    0 -0.22605224108E+01  0.78114487250E+01  0.14700758391E+02  0.16800029465E+02  0.00000000000E+00 0.  1.
</event>
<event>
 7    1  0.2328615E-009  0.4778727E+02  0.7816164E-02  0.1312668E+00
        -11   -1    0    0    0    0  0.00000000000E+00  0.00000000000E+00  0.45593999997E+02  0.45594000000E+02  0.51100000000E-03 0.  1.
         11   -1    0    0    0    0 -0.00000000000E+00 -0.00000000000E+00 -0.45593999997E+02  0.45594000000E+02  0.51100000000E-03 0. -1.
    9900012    2    1    2    0    0  0.20246937737E+02 -0.16522180814E+02  0.34651158887E+02  0.47787265458E+02  0.19999974527E+02 0.  0.
         12    1    1    2    0    0 -0.20246937737E+02  0.16522180814E+02 -0.34651158887E+02  0.43400734542E+02  0.00000000000E+00 0. -1.
         11    1    3    3    0    0 -0.81468666968E+00  0.77571890314E+00  0.48238084849E+00  0.12239876350E+01  0.51100000000E-03 0. -1.
        -11    1    3    3    0    0  0.72426683626E+01 -0.11153532491E+02  0.26401819164E+02  0.29562029488E+02  0.51100000000E-03 0.  1.
         12    1    3    3    0    0  0.13818956044E+02 -0.61443672262E+01  0.77669588749E+01  0.17001248334E+02  0.00000000000E+00 0. -1.
</event>
<event>
 7    1  0.2328615E-009  0.4778727E+02  0.7816164E-02  0.1312668E+00
        -11   -1    0    0    0    0  0.00000000000E+00  0.00000000000E+00  0.45593999997E+02  0.45594000000E+02  0.51100000000E-03 0. -1.
         11   -1    0    0    0    0 -0.00000000000E+00 -0.00000000000E+00 -0.45593999997E+02  0.45594000000E+02  0.51100000000E-03 0.  1.
    9900012    2    1    2    0    0 -0.21255843032E+01 -0.35389720899E+01 -0.43203945105E+02  0.47787270689E+02  0.19999998378E+02 0.  0.
         12    1    1    2    0    0  0.21255843032E+01  0.35389720899E+01  0.43203945105E+02  0.43400729311E+02  0.00000000000E+00 0. -1.
         11    1    3    3    0    0  0.34216360815E+01  0.39598862542E+01 -0.12283627492E+02  0.13351996002E+02  0.51100000000E-03 0. -1.
        -11    1    3    3    0    0 -0.54371586267E+01  0.16544516295E+01 -0.85723857801E+01  0.10285217662E+02  0.51100000000E-03 0.  1.
         12    1    3    3    0    0 -0.11006175793E+00 -0.91533099736E+01 -0.22347931834E+02  0.24150057025E+02  0.00000000000E+00 0. -1.
</event>
<event>
 7    1  0.2328615E-009  0.4778727E+02  0.7816164E-02  0.1312668E+00
        -11   -1    0    0    0    0  0.00000000000E+00  0.00000000000E+00  0.45593999997E+02  0.45594000000E+02  0.51100000000E-03 0. -1.
         11   -1    0    0    0    0 -0.00000000000E+00 -0.00000000000E+00 -0.45593999997E+02  0.45594000000E+02  0.51100000000E-03 0.  1.
    9900012    2    1    2    0    0  0.17563207853E+01 -0.43323935504E+02  0.18908035782E+01  0.47787272029E+02  0.20000004488E+02 0.  0.
         12    1    1    2    0    0 -0.17563207853E+01  0.43323935504E+02 -0.18908035782E+01  0.43400727971E+02  0.00000000000E+00 0. -1.
         11    1    3    3    0    0 -0.18124372770E+01 -0.26924898626E+01  0.36454070977E+01  0.48809244731E+01  0.51100000000E-03 0. -1.
        -11    1    3    3    0    0  0.50275583882E+01 -0.60115109170E+01 -0.25661320967E+01  0.82461894867E+01  0.51100000000E-03 0.  1.
         12    1    3    3    0    0 -0.14588003259E+01 -0.34619934725E+02  0.81152857717E+00  0.34660158069E+02  0.00000000000E+00 0. -1.
</event>
<event>
 7    1  0.2328615E-009  0.4778727E+02  0.7816164E-02  0.1312668E+00
        -11   -1    0    0    0    0  0.00000000000E+00  0.00000000000E+00  0.45593999997E+02  0.45594000000E+02  0.51100000000E-03 0.  1.
         11   -1    0    0    0    0 -0.00000000000E+00 -0.00000000000E+00 -0.45593999997E+02  0.45594000000E+02  0.51100000000E-03 0. -1.
    9900012    2    1    2    0    0  0.28478331217E+02  0.32626049512E+02 -0.28545968094E+01  0.47787272142E+02  0.20000005003E+02 0.  0.
         12    1    1    2    0    0 -0.28478331217E+02 -0.32626049512E+02  0.28545968094E+01  0.43400727858E+02  0.00000000000E+00 0. -1.
         11    1    3    3    0    0  0.56658168344E+01  0.14453328823E+01 -0.17559860358E+01  0.61052399430E+01  0.51100000000E-03 0. -1.
        -11    1    3    3    0    0  0.37169359988E+01 -0.11894615542E+01  0.10386699262E+01  0.40384734102E+01  0.51100000000E-03 0.  1.
        -12    1    3    3    0    0  0.19095578384E+02  0.32370178184E+02 -0.21372806997E+01  0.37643558789E+02  0.00000000000E+00 0.  1.
</event>
<event>
 7    1  0.2328615E-009  0.4778727E+02  0.7816164E-02  0.1312668E+00
        -11   -1    0    0    0    0  0.00000000000E+00  0.00000000000E+00  0.45593999997E+02  0.45594000000E+02  0.51100000000E-03 0.  1.
         11   -1    0    0    0    0 -0.00000000000E+00 -0.00000000000E+00 -0.45593999997E+02  0.45594000000E+02  0.51100000000E-03 0. -1.
    9900012    2    1    2    0    0  0.18758846374E+02 -0.18744956655E+02  0.34356304321E+02  0.47787270008E+02  0.19999995275E+02 0.  0.
         12    1    1    2    0    0 -0.18758846374E+02  0.18744956655E+02 -0.34356304321E+02  0.43400729992E+02  0.00000000000E+00 0. -1.
         11    1    3    3    0    0  0.45534452941E+00 -0.21721067017E+01  0.66614219340E+01  0.70213907887E+01  0.51100000000E-03 0.  1.
        -11    1    3    3    0    0 -0.13620323992E+01  0.30594626987E+00  0.82475726741E+01  0.83648784004E+01  0.51100000000E-03 0. -1.
         12    1    3    3    0    0  0.19665534243E+02 -0.16878796223E+02  0.19447309713E+02  0.32401000819E+02  0.00000000000E+00 0. -1.
</event>
<event>
 7    1  0.2328615E-009  0.4778728E+02  0.7816164E-02  0.1312668E+00
        -11   -1    0    0    0    0  0.00000000000E+00  0.00000000000E+00  0.45593999997E+02  0.45594000000E+02  0.51100000000E-03 0.  1.
         11   -1    0    0    0    0 -0.00000000000E+00 -0.00000000000E+00 -0.45593999997E+02  0.45594000000E+02  0.51100000000E-03 0. -1.
    9900012    2    1    2    0    0 -0.34996158282E+02  0.24603614727E+02  0.73180512173E+01  0.47787276207E+02  0.20000023538E+02 0.  0.
         12    1    1    2    0    0  0.34996158282E+02 -0.24603614727E+02 -0.73180512173E+01  0.43400723793E+02  0.00000000000E+00 0. -1.
         11    1    3    3    0    0 -0.52250048896E+01  0.26864218831E+01 -0.42851428679E+01  0.72718627799E+01  0.51100000000E-03 0. -1.
        -11    1    3    3    0    0 -0.10709178733E+02  0.42051719720E+01 -0.11033814681E+01  0.11558002915E+02  0.51100000000E-03 0.  1.
         12    1    3    3    0    0 -0.19061974659E+02  0.17712020872E+02  0.12706575553E+02  0.28957410512E+02  0.00000000000E+00 0. -1.
</event>
<event>
 7    1  0.2328615E-009  0.4778728E+02  0.7816164E-02  0.1312668E+00
        -11   -1    0    0    0    0  0.00000000000E+00  0.00000000000E+00  0.45593999997E+02  0.45594000000E+02  0.51100000000E-03 0.  1.
         11   -1    0    0    0    0 -0.00000000000E+00 -0.00000000000E+00 -0.45593999997E+02  0.45594000000E+02  0.51100000000E-03 0. -1.
    9900012    2    1    2    0    0  0.11158562208E+02  0.89777262791E+01  0.40969615711E+02  0.47787280062E+02  0.20000041113E+02 0.  0.
         12    1    1    2    0    0 -0.11158562208E+02 -0.89777262791E+01 -0.40969615711E+02  0.43400719938E+02  0.00000000000E+00 0. -1.
         11    1    3    3    0    0  0.22450635628E-01 -0.44508941123E+01  0.61932200116E+01  0.76267251690E+01  0.51100000000E-03 0. -1.
        -11    1    3    3    0    0  0.63337170762E+00  0.28688693861E+01  0.15629300877E+02  0.15903037994E+02  0.51100000000E-03 0.  1.
        -12    1    3    3    0    0  0.10502739865E+02  0.10559751005E+02  0.19147094822E+02  0.24257516899E+02  0.00000000000E+00 0.  1.
</event>
<event>
 7    1  0.2328615E-009  0.4778727E+02  0.7816164E-02  0.1312668E+00
        -11   -1    0    0    0    0  0.00000000000E+00  0.00000000000E+00  0.45593999997E+02  0.45594000000E+02  0.51100000000E-03 0.  1.
         11   -1    0    0    0    0 -0.00000000000E+00 -0.00000000000E+00 -0.45593999997E+02  0.45594000000E+02  0.51100000000E-03 0. -1.
    9900012    2    1    2    0    0  0.52670286613E+01  0.40866174766E+02  0.13632213499E+02  0.47787273326E+02  0.20000010404E+02 0.  0.
         12    1    1    2    0    0 -0.52670286613E+01 -0.40866174766E+02 -0.13632213499E+02  0.43400726674E+02  0.00000000000E+00 0. -1.
         11    1    3    3    0    0  0.11074527926E+02  0.26380067757E+02  0.60848003781E+01  0.29250263922E+02  0.51100000000E-03 0. -1.
        -11    1    3    3    0    0 -0.36777617736E+00 -0.44179177912E+00 -0.46823809313E+00  0.74140843380E+00  0.51100000000E-03 0.  1.
        -12    1    3    3    0    0 -0.54397230872E+01  0.14927898789E+02  0.80156512137E+01  0.17795600970E+02  0.00000000000E+00 0.  1.
</event>
<event>
 7    1  0.2328615E-009  0.4778729E+02  0.7816164E-02  0.1312668E+00
        -11   -1    0    0    0    0  0.00000000000E+00  0.00000000000E+00  0.45593999997E+02  0.45594000000E+02  0.51100000000E-03 0.  1.
         11   -1    0    0    0    0 -0.00000000000E+00 -0.00000000000E+00 -0.45593999997E+02  0.45594000000E+02  0.51100000000E-03 0. -1.
    9900012    2    1    2    0    0  0.17907096029E+01 -0.38827804954E+02  0.19308448036E+02  0.47787294430E+02  0.20000106625E+02 0.  0.
         12    1    1    2    0    0 -0.17907096029E+01  0.38827804954E+02 -0.19308448036E+02  0.43400705570E+02  0.00000000000E+00 0. -1.
         11    1    3    3    0    0 -0.60507658508E+01 -0.19645743802E+02  0.11579466931E+02  0.23593453999E+02  0.51100000000E-03 0.  1.
        -11    1    3    3    0    0  0.18987204257E+01 -0.21393233199E+00 -0.13517672232E+01  0.23405514702E+01  0.51100000000E-03 0. -1.
        -12    1    3    3    0    0  0.59427550280E+01 -0.18968128819E+02  0.90807483285E+01  0.21853288961E+02  0.00000000000E+00 0.  1.
</event>
<event>
 7    1  0.2328615E-009  0.4778732E+02  0.7816164E-02  0.1312668E+00
        -11   -1    0    0    0    0  0.00000000000E+00  0.00000000000E+00  0.45593999997E+02  0.45594000000E+02  0.51100000000E-03 0.  1.
         11   -1    0    0    0    0 -0.00000000000E+00 -0.00000000000E+00 -0.45593999997E+02  0.45594000000E+02  0.51100000000E-03 0. -1.
    9900012    2    1    2    0    0  0.37413651729E+02 -0.15082278228E+02  0.16011337212E+02  0.47787316001E+02  0.20000204974E+02 0.  0.
         12    1    1    2    0    0 -0.37413651729E+02  0.15082278228E+02 -0.16011337212E+02  0.43400683999E+02  0.00000000000E+00 0. -1.
         11    1    3    3    0    0 -0.16992531182E+01  0.13969120002E+01  0.50518383680E+00  0.22569969575E+01  0.51100000000E-03 0. -1.
        -11    1    3    3    0    0  0.99716330828E+01 -0.58278487968E+01  0.63519487719E+01  0.13181219268E+02  0.51100000000E-03 0.  1.
         12    1    3    3    0    0  0.29141271765E+02 -0.10651341431E+02  0.91542046031E+01  0.32349099775E+02  0.00000000000E+00 0. -1.
</event>
<event>
 7    1  0.2328615E-009  0.4778726E+02  0.7816164E-02  0.1312668E+00
        -11   -1    0    0    0    0  0.00000000000E+00  0.00000000000E+00  0.45593999997E+02  0.45594000000E+02  0.51100000000E-03 0. -1.
         11   -1    0    0    0    0 -0.00000000000E+00 -0.00000000000E+00 -0.45593999997E+02  0.45594000000E+02  0.51100000000E-03 0.  1.
    9900012    2    1    2    0    0  0.29300678137E+01  0.11861250187E+02 -0.41645522297E+02  0.47787261748E+02  0.19999957614E+02 0.  0.
         12    1    1    2    0    0 -0.29300678137E+01 -0.11861250187E+02  0.41645522297E+02  0.43400738252E+02  0.00000000000E+00 0. -1.
         11    1    3    3    0    0 -0.21573609488E+01 -0.51445183959E+00  0.49405519522E+00  0.22722142848E+01  0.51100000000E-03 0. -1.
        -11    1    3    3    0    0  0.40634697555E+01  0.17594891187E+01 -0.41935755944E+01  0.60986609137E+01  0.51100000000E-03 0.  1.
        -12    1    3    3    0    0  0.10239590070E+01  0.10616212908E+02 -0.37946001898E+02  0.39416386549E+02  0.00000000000E+00 0.  1.
</event>
<event>
 7    1  0.2328615E-009  0.4778728E+02  0.7816164E-02  0.1312668E+00
        -11   -1    0    0    0    0  0.00000000000E+00  0.00000000000E+00  0.45593999997E+02  0.45594000000E+02  0.51100000000E-03 0.  1.
         11   -1    0    0    0    0 -0.00000000000E+00 -0.00000000000E+00 -0.45593999997E+02  0.45594000000E+02  0.51100000000E-03 0. -1.
    9900012    2    1    2    0    0 -0.37932627288E+01 -0.37018756634E+02  0.22334847563E+02  0.47787278802E+02  0.20000035370E+02 0.  0.
         12    1    1    2    0    0  0.37932627288E+01  0.37018756634E+02 -0.22334847563E+02  0.43400721198E+02  0.00000000000E+00 0. -1.
         11    1    3    3    0    0 -0.14861549448E+00 -0.20861716618E+02  0.97648976437E+01  0.23034464028E+02  0.51100000000E-03 0. -1.
        -11    1    3    3    0    0  0.32284615512E+01 -0.13586228533E+02  0.87573279270E+01  0.16483305567E+02  0.51100000000E-03 0.  1.
        -12    1    3    3    0    0 -0.68731087855E+01 -0.25708114825E+01  0.38126219927E+01  0.82695092064E+01  0.00000000000E+00 0.  1.
</event>
<event>
 7    1  0.2328615E-009  0.4778727E+02  0.7816164E-02  0.1312668E+00
        -11   -1    0    0    0    0  0.00000000000E+00  0.00000000000E+00  0.45593999997E+02  0.45594000000E+02  0.51100000000E-03 0.  1.
         11   -1    0    0    0    0 -0.00000000000E+00 -0.00000000000E+00 -0.45593999997E+02  0.45594000000E+02  0.51100000000E-03 0. -1.
    9900012    2    1    2    0    0 -0.39548492158E+02  0.81833010383E+01 -0.15892564249E+02  0.47787271363E+02  0.20000001452E+02 0.  0.
         12    1    1    2    0    0  0.39548492158E+02 -0.81833010383E+01  0.15892564249E+02  0.43400728637E+02  0.00000000000E+00 0. -1.
         11    1    3    3    0    0 -0.11179123026E+02  0.69855091044E+01 -0.26678317560E+01  0.13449440718E+02  0.51100000000E-03 0. -1.
        -11    1    3    3    0    0  0.15237611143E+01  0.57769591454E+00 -0.15213689081E+01  0.22293820038E+01  0.51100000000E-03 0.  1.
        -12    1    3    3    0    0 -0.29893130246E+02  0.62009601935E+00 -0.11703363584E+02  0.32108448641E+02  0.00000000000E+00 0.  1.
</event>
<event>
 7    1  0.2328615E-009  0.4778727E+02  0.7816164E-02  0.1312668E+00
        -11   -1    0    0    0    0  0.00000000000E+00  0.00000000000E+00  0.45593999997E+02  0.45594000000E+02  0.51100000000E-03 0.  1.
         11   -1    0    0    0    0 -0.00000000000E+00 -0.00000000000E+00 -0.45593999997E+02  0.45594000000E+02  0.51100000000E-03 0. -1.
    9900012    2    1    2    0    0  0.10947542667E+02 -0.43903040692E+01  0.41767214778E+02  0.47787266243E+02  0.19999978110E+02 0.  0.
         12    1    1    2    0    0 -0.10947542667E+02  0.43903040692E+01 -0.41767214778E+02  0.43400733757E+02  0.00000000000E+00 0. -1.
         11    1    3    3    0    0  0.80925489715E+00  0.53113353223E+01  0.38356349423E+01  0.66013083601E+01  0.51100000000E-03 0. -1.
        -11    1    3    3    0    0  0.26303316741E+01 -0.75475948274E+01  0.15611287894E+02  0.17538447547E+02  0.51100000000E-03 0.  1.
        -12    1    3    3    0    0  0.75079560954E+01 -0.21540445640E+01  0.22320291942E+02  0.23647510336E+02  0.00000000000E+00 0.  1.
</event>
<event>
 7    1  0.2328615E-009  0.4778727E+02  0.7816164E-02  0.1312668E+00
        -11   -1    0    0    0    0  0.00000000000E+00  0.00000000000E+00  0.45593999997E+02  0.45594000000E+02  0.51100000000E-03 0. -1.
         11   -1    0    0    0    0 -0.00000000000E+00 -0.00000000000E+00 -0.45593999997E+02  0.45594000000E+02  0.51100000000E-03 0.  1.
    9900012    2    1    2    0    0 -0.34946643398E+02  0.22658651491E+02  0.12204127658E+02  0.47787273001E+02  0.20000008920E+02 0.  0.
         12    1    1    2    0    0  0.34946643398E+02 -0.22658651491E+02 -0.12204127658E+02  0.43400726999E+02  0.00000000000E+00 0. -1.
         11    1    3    3    0    0 -0.10083047010E+02  0.93927243290E+01  0.73960322906E+01  0.15639450157E+02  0.51100000000E-03 0.  1.
        -11    1    3    3    0    0 -0.13535894097E+02  0.14305443430E+02  0.62946500217E+01  0.20675801312E+02  0.51100000000E-03 0. -1.
        -12    1    3    3    0    0 -0.11327702292E+02 -0.10395162684E+01 -0.14865546546E+01  0.11472021531E+02  0.00000000000E+00 0.  1.
</event>
<event>
 7    1  0.2328615E-009  0.4778727E+02  0.7816164E-02  0.1312668E+00
        -11   -1    0    0    0    0  0.00000000000E+00  0.00000000000E+00  0.45593999997E+02  0.45594000000E+02  0.51100000000E-03 0.  1.
         11   -1    0    0    0    0 -0.00000000000E+00 -0.00000000000E+00 -0.45593999997E+02  0.45594000000E+02  0.51100000000E-03 0. -1.
    9900012    2    1    2    0    0 -0.89292202765E+01  0.32434154760E+02  0.27421119387E+02  0.47787272377E+02  0.20000006077E+02 0.  0.
         12    1    1    2    0    0  0.89292202765E+01 -0.32434154760E+02 -0.27421119387E+02  0.43400727623E+02  0.00000000000E+00 0. -1.
         11    1    3    3    0    0 -0.13152355604E+02  0.22742279171E+02  0.20636448388E+02  0.33407465066E+02  0.51100000000E-03 0. -1.
        -11    1    3    3    0    0 -0.40658226819E+00  0.30711350222E+01  0.53388514691E+01  0.61725614404E+01  0.51100000000E-03 0.  1.
         12    1    3    3    0    0  0.46297175957E+01  0.66207405667E+01  0.14458195306E+01  0.82072458707E+01  0.00000000000E+00 0. -1.
</event>
<event>
 7    1  0.2328615E-009  0.4778728E+02  0.7816164E-02  0.1312668E+00
        -11   -1    0    0    0    0  0.00000000000E+00  0.00000000000E+00  0.45593999997E+02  0.45594000000E+02  0.51100000000E-03 0. -1.
         11   -1    0    0    0    0 -0.00000000000E+00 -0.00000000000E+00 -0.45593999997E+02  0.45594000000E+02  0.51100000000E-03 0.  1.
    9900012    2    1    2    0    0  0.12996243923E+02  0.37185214862E+02  0.18220319222E+02  0.47787278889E+02  0.20000035764E+02 0.  0.
         12    1    1    2    0    0 -0.12996243923E+02 -0.37185214862E+02 -0.18220319222E+02  0.43400721111E+02  0.00000000000E+00 0. -1.
         11    1    3    3    0    0 -0.34518224810E+00 -0.80000752866E+00 -0.41335555159E-01  0.87227961088E+00  0.51100000000E-03 0. -1.
        -11    1    3    3    0    0  0.11188092092E+02  0.25796729185E+02  0.46204744616E+01  0.28495498343E+02  0.51100000000E-03 0.  1.
         12    1    3    3    0    0  0.21533340793E+01  0.12188493206E+02  0.13641180316E+02  0.18419500935E+02  0.00000000000E+00 0. -1.
</event>
<event>
 7    1  0.2328615E-009  0.4778727E+02  0.7816164E-02  0.1312668E+00
        -11   -1    0    0    0    0  0.00000000000E+00  0.00000000000E+00  0.45593999997E+02  0.45594000000E+02  0.51100000000E-03 0.  1.
         11   -1    0    0    0    0 -0.00000000000E+00 -0.00000000000E+00 -0.45593999997E+02  0.45594000000E+02  0.51100000000E-03 0. -1.
    9900012    2    1    2    0    0 -0.34755458904E+02  0.12916755534E+02  0.22557461118E+02  0.47787267872E+02  0.19999985534E+02 0.  0.
         12    1    1    2    0    0  0.34755458904E+02 -0.12916755534E+02 -0.22557461118E+02  0.43400732128E+02  0.00000000000E+00 0. -1.
         11    1    3    3    0    0 -0.62038740485E+01 -0.30802025101E+01  0.25671010745E+01  0.73868605579E+01  0.51100000000E-03 0. -1.
        -11    1    3    3    0    0 -0.71938179810E+01  0.50225091156E+01 -0.56473789894E+00  0.87917884480E+01  0.51100000000E-03 0.  1.
        -12    1    3    3    0    0 -0.21357766875E+02  0.10974448929E+02  0.20555097943E+02  0.31608618866E+02  0.00000000000E+00 0.  1.
</event>
<event>
 7    1  0.2328615E-009  0.4778731E+02  0.7816164E-02  0.1312668E+00
        -11   -1    0    0    0    0  0.00000000000E+00  0.00000000000E+00  0.45593999997E+02  0.45594000000E+02  0.51100000000E-03 0.  1.
         11   -1    0    0    0    0 -0.00000000000E+00 -0.00000000000E+00 -0.45593999997E+02  0.45594000000E+02  0.51100000000E-03 0. -1.
    9900012    2    1    2    0    0  0.27156358893E+01 -0.24399541631E+02  0.35789768679E+02  0.47787310464E+02  0.20000179730E+02 0.  0.
         12    1    1    2    0    0 -0.27156358893E+01  0.24399541631E+02 -0.35789768679E+02  0.43400689536E+02  0.00000000000E+00 0. -1.
         11    1    3    3    0    0  0.87379844109E+00  0.13854235275E+01  0.14775155983E+01  0.22058954351E+01  0.51100000000E-03 0. -1.
        -11    1    3    3    0    0 -0.47960579257E+01 -0.12919602914E+02  0.24443860872E+02  0.28061016476E+02  0.51100000000E-03 0.  1.
        -12    1    3    3    0    0  0.66378953739E+01 -0.12865362244E+02  0.98683922092E+01  0.17520398553E+02  0.00000000000E+00 0.  1.
</event>
<event>
 7    1  0.2328615E-009  0.4778726E+02  0.7816164E-02  0.1312668E+00
        -11   -1    0    0    0    0  0.00000000000E+00  0.00000000000E+00  0.45593999997E+02  0.45594000000E+02  0.51100000000E-03 0. -1.
         11   -1    0    0    0    0 -0.00000000000E+00 -0.00000000000E+00 -0.45593999997E+02  0.45594000000E+02  0.51100000000E-03 0.  1.
    9900012    2    1    2    0    0 -0.24470402590E+02 -0.29445984477E+02 -0.20439114191E+02  0.47787262753E+02  0.19999962194E+02 0.  0.
         12    1    1    2    0    0  0.24470402590E+02  0.29445984477E+02  0.20439114191E+02  0.43400737247E+02  0.00000000000E+00 0. -1.
         11    1    3    3    0    0 -0.22927245097E+00  0.18454279038E+01 -0.20563936688E+01  0.27725304664E+01  0.51100000000E-03 0. -1.
        -11    1    3    3    0    0 -0.13347316779E+02 -0.16014819788E+02 -0.36633026923E+01  0.21167075965E+02  0.51100000000E-03 0.  1.
         12    1    3    3    0    0 -0.10893813361E+02 -0.15276592592E+02 -0.14719417829E+02  0.23847656321E+02  0.00000000000E+00 0. -1.
</event>
<event>
 7    1  0.2328615E-009  0.4778727E+02  0.7816164E-02  0.1312668E+00
        -11   -1    0    0    0    0  0.00000000000E+00  0.00000000000E+00  0.45593999997E+02  0.45594000000E+02  0.51100000000E-03 0.  1.
         11   -1    0    0    0    0 -0.00000000000E+00 -0.00000000000E+00 -0.45593999997E+02  0.45594000000E+02  0.51100000000E-03 0. -1.
    9900012    2    1    2    0    0  0.45920015618E+01  0.12932020314E+02  0.41174018817E+02  0.47787268978E+02  0.19999990577E+02 0.  0.
         12    1    1    2    0    0 -0.45920015618E+01 -0.12932020314E+02 -0.41174018817E+02  0.43400731022E+02  0.00000000000E+00 0. -1.
         11    1    3    3    0    0 -0.85026632252E+00 -0.17795120401E+01  0.40647027635E+00  0.20136619048E+01  0.51100000000E-03 0.  1.
        -11    1    3    3    0    0  0.30689370566E+00  0.69154974400E+01  0.43432900123E+01  0.81720534128E+01  0.51100000000E-03 0. -1.
        -12    1    3    3    0    0  0.51353741787E+01  0.77960349145E+01  0.36424258528E+02  0.37601553660E+02  0.00000000000E+00 0.  1.
</event>
<event>
 7    1  0.2328615E-009  0.4778727E+02  0.7816164E-02  0.1312668E+00
        -11   -1    0    0    0    0  0.00000000000E+00  0.00000000000E+00  0.45593999997E+02  0.45594000000E+02  0.51100000000E-03 0.  1.
         11   -1    0    0    0    0 -0.00000000000E+00 -0.00000000000E+00 -0.45593999997E+02  0.45594000000E+02  0.51100000000E-03 0. -1.
    9900012    2    1    2    0    0  0.20057484192E+02  0.26951610924E+02  0.27476011739E+02  0.47787271612E+02  0.20000002590E+02 0.  0.
         12    1    1    2    0    0 -0.20057484192E+02 -0.26951610924E+02 -0.27476011739E+02  0.43400728388E+02  0.00000000000E+00 0. -1.
         11    1    3    3    0    0  0.40605823428E-01  0.30905928294E+01 -0.97270812577E+00  0.32403046507E+01  0.51100000000E-03 0. -1.
        -11    1    3    3    0    0  0.29671606874E+01  0.29205008492E+01  0.12522937852E+02  0.13196868585E+02  0.51100000000E-03 0.  1.
        -12    1    3    3    0    0  0.17049717681E+02  0.20940517245E+02  0.15925782013E+02  0.31350098377E+02  0.00000000000E+00 0.  1.
</event>
<event>
 7    1  0.2328615E-009  0.4778727E+02  0.7816164E-02  0.1312668E+00
        -11   -1    0    0    0    0  0.00000000000E+00  0.00000000000E+00  0.45593999997E+02  0.45594000000E+02  0.51100000000E-03 0. -1.
         11   -1    0    0    0    0 -0.00000000000E+00 -0.00000000000E+00 -0.45593999997E+02  0.45594000000E+02  0.51100000000E-03 0.  1.
    9900012    2    1    2    0    0 -0.17118039310E+02 -0.39773596475E+02  0.29423697868E+01  0.47787265140E+02  0.19999973082E+02 0.  0.
         12    1    1    2    0    0  0.17118039310E+02  0.39773596475E+02 -0.29423697868E+01  0.43400734860E+02  0.00000000000E+00 0. -1.
         11    1    3    3    0    0 -0.32040852753E+00 -0.10022165371E+02  0.27683618781E+01  0.10402417416E+02  0.51100000000E-03 0. -1.
        -11    1    3    3    0    0 -0.13989220648E+02 -0.20079023387E+02  0.67138658001E+01  0.25376001828E+02  0.51100000000E-03 0.  1.
         12    1    3    3    0    0 -0.28084101341E+01 -0.96724077167E+01 -0.65398578915E+01  0.12008845896E+02  0.00000000000E+00 0. -1.
</event>
<event>
 7    1  0.2328615E-009  0.4778727E+02  0.7816164E-02  0.1312668E+00
        -11   -1    0    0    0    0  0.00000000000E+00  0.00000000000E+00  0.45593999997E+02  0.45594000000E+02  0.51100000000E-03 0.  1.
         11   -1    0    0    0    0 -0.00000000000E+00 -0.00000000000E+00 -0.45593999997E+02  0.45594000000E+02  0.51100000000E-03 0. -1.
    9900012    2    1    2    0    0  0.37362092046E+01  0.15991373736E+02  0.40173869472E+02  0.47787273260E+02  0.20000010104E+02 0.  0.
         12    1    1    2    0    0 -0.37362092046E+01 -0.15991373736E+02 -0.40173869472E+02  0.43400726740E+02  0.00000000000E+00 0. -1.
         11    1    3    3    0    0 -0.57486483386E+01  0.72244514139E+01  0.16285485714E+02  0.18720488807E+02  0.51100000000E-03 0. -1.
        -11    1    3    3    0    0 -0.35375022745E+00  0.35468018332E+01  0.13042126944E+02  0.13520429651E+02  0.51100000000E-03 0.  1.
        -12    1    3    3    0    0  0.98386077706E+01  0.52201204891E+01  0.10846256813E+02  0.15546354802E+02  0.00000000000E+00 0.  1.
</event>
<event>
 7    1  0.2328615E-009  0.4778727E+02  0.7816164E-02  0.1312668E+00
        -11   -1    0    0    0    0  0.00000000000E+00  0.00000000000E+00  0.45593999997E+02  0.45594000000E+02  0.51100000000E-03 0.  1.
         11   -1    0    0    0    0 -0.00000000000E+00 -0.00000000000E+00 -0.45593999997E+02  0.45594000000E+02  0.51100000000E-03 0. -1.
    9900012    2    1    2    0    0  0.42151263202E+01 -0.42599889526E+02  0.71488160710E+01  0.47787269030E+02  0.19999990814E+02 0.  0.
         12    1    1    2    0    0 -0.42151263202E+01  0.42599889526E+02 -0.71488160710E+01  0.43400730970E+02  0.00000000000E+00 0. -1.
         11    1    3    3    0    0 -0.58597094776E+00 -0.93413005268E-01 -0.85473873700E+00  0.10405126193E+01  0.51100000000E-03 0. -1.
        -11    1    3    3    0    0 -0.29688541787E+01 -0.34542792124E+02  0.81681368621E+01  0.35619335240E+02  0.51100000000E-03 0.  1.
         12    1    3    3    0    0  0.77699514467E+01 -0.79636843969E+01 -0.16458205410E+00  0.11127421171E+02  0.00000000000E+00 0. -1.
</event>
<event>
 7    1  0.2328615E-009  0.4778727E+02  0.7816164E-02  0.1312668E+00
        -11   -1    0    0    0    0  0.00000000000E+00  0.00000000000E+00  0.45593999997E+02  0.45594000000E+02  0.51100000000E-03 0.  1.
         11   -1    0    0    0    0 -0.00000000000E+00 -0.00000000000E+00 -0.45593999997E+02  0.45594000000E+02  0.51100000000E-03 0. -1.
    9900012    2    1    2    0    0  0.11344219097E+02 -0.27170793775E+02  0.31885415944E+02  0.47787273149E+02  0.20000009596E+02 0.  0.
         12    1    1    2    0    0 -0.11344219097E+02  0.27170793775E+02 -0.31885415944E+02  0.43400726851E+02  0.00000000000E+00 0. -1.
         11    1    3    3    0    0  0.89952390600E+01 -0.10494731547E+02  0.56498772143E+01  0.14932341705E+02  0.51100000000E-03 0. -1.
        -11    1    3    3    0    0  0.34791299096E+01 -0.51282010462E+00  0.56918674299E+01  0.66906415603E+01  0.51100000000E-03 0.  1.
         12    1    3    3    0    0 -0.11301498730E+01 -0.16163242123E+02  0.20543671300E+02  0.26164289884E+02  0.00000000000E+00 0. -1.
</event>
<event>
 7    1  0.2328615E-009  0.4778727E+02  0.7816164E-02  0.1312668E+00
        -11   -1    0    0    0    0  0.00000000000E+00  0.00000000000E+00  0.45593999997E+02  0.45594000000E+02  0.51100000000E-03 0.  1.
         11   -1    0    0    0    0 -0.00000000000E+00 -0.00000000000E+00 -0.45593999997E+02  0.45594000000E+02  0.51100000000E-03 0. -1.
    9900012    2    1    2    0    0 -0.11218173867E+02 -0.41869190512E+02 -0.21786402695E+01  0.47787274056E+02  0.20000013729E+02 0.  0.
         12    1    1    2    0    0  0.11218173867E+02  0.41869190512E+02  0.21786402695E+01  0.43400725944E+02  0.00000000000E+00 0. -1.
         11    1    3    3    0    0 -0.23995885398E+01 -0.32281741340E+01 -0.50605070454E+01  0.64643534261E+01  0.51100000000E-03 0. -1.
        -11    1    3    3    0    0 -0.97112518799E+01 -0.22643769699E+02 -0.15864522462E+01  0.24689381326E+02  0.51100000000E-03 0.  1.
         12    1    3    3    0    0  0.89266655238E+00 -0.15997246679E+02  0.44683190220E+01  0.16633539304E+02  0.00000000000E+00 0. -1.
</event>
<event>
 7    1  0.2328615E-009  0.4778727E+02  0.7816164E-02  0.1312668E+00
        -11   -1    0    0    0    0  0.00000000000E+00  0.00000000000E+00  0.45593999997E+02  0.45594000000E+02  0.51100000000E-03 0. -1.
         11   -1    0    0    0    0 -0.00000000000E+00 -0.00000000000E+00 -0.45593999997E+02  0.45594000000E+02  0.51100000000E-03 0.  1.
    9900012    2    1    2    0    0  0.70738767505E+01 -0.35002182316E+02 -0.24666388664E+02  0.47787271563E+02  0.20000002365E+02 0.  0.
         12    1    1    2    0    0 -0.70738767505E+01  0.35002182316E+02  0.24666388664E+02  0.43400728437E+02  0.00000000000E+00 0. -1.
         11    1    3    3    0    0  0.66619054405E+01 -0.11007406012E+02 -0.12797962011E+02  0.18147501291E+02  0.51100000000E-03 0. -1.
        -11    1    3    3    0    0  0.30176374712E+01 -0.49736828383E+01 -0.82629073674E+01  0.10105409210E+02  0.51100000000E-03 0.  1.
         12    1    3    3    0    0 -0.26056661612E+01 -0.19021093466E+02 -0.36055192849E+01  0.19534361062E+02  0.00000000000E+00 0. -1.
</event>
<event>
 7    1  0.2328615E-009  0.4778727E+02  0.7816164E-02  0.1312668E+00
        -11   -1    0    0    0    0  0.00000000000E+00  0.00000000000E+00  0.45593999997E+02  0.45594000000E+02  0.51100000000E-03 0. -1.
         11   -1    0    0    0    0 -0.00000000000E+00 -0.00000000000E+00 -0.45593999997E+02  0.45594000000E+02  0.51100000000E-03 0.  1.
    9900012    2    1    2    0    0 -0.42244746138E+02 -0.19873938355E+01 -0.97496145517E+01  0.47787270808E+02  0.19999998920E+02 0.  0.
         12    1    1    2    0    0  0.42244746138E+02  0.19873938355E+01  0.97496145517E+01  0.43400729192E+02  0.00000000000E+00 0. -1.
         11    1    3    3    0    0 -0.30033507556E+01 -0.22748423213E+01 -0.60567527740E+01  0.71329711744E+01  0.51100000000E-03 0. -1.
        -11    1    3    3    0    0 -0.62935285376E+01  0.37819456479E+01 -0.30344175015E+00  0.73487203985E+01  0.51100000000E-03 0.  1.
        -12    1    3    3    0    0 -0.32947866845E+02 -0.34944971621E+01 -0.33894200276E+01  0.33305579235E+02  0.00000000000E+00 0.  1.
</event>
<event>
 7    1  0.2328615E-009  0.4778727E+02  0.7816164E-02  0.1312668E+00
        -11   -1    0    0    0    0  0.00000000000E+00  0.00000000000E+00  0.45593999997E+02  0.45594000000E+02  0.51100000000E-03 0.  1.
         11   -1    0    0    0    0 -0.00000000000E+00 -0.00000000000E+00 -0.45593999997E+02  0.45594000000E+02  0.51100000000E-03 0. -1.
    9900012    2    1    2    0    0  0.13235826003E+02 -0.28830841964E+01  0.41232563628E+02  0.47787267659E+02  0.19999984563E+02 0.  0.
         12    1    1    2    0    0 -0.13235826003E+02  0.28830841964E+01 -0.41232563628E+02  0.43400732341E+02  0.00000000000E+00 0. -1.
         11    1    3    3    0    0  0.15996324390E+02  0.16589498803E+01  0.30673660923E+02  0.34633913775E+02  0.51100000000E-03 0. -1.
        -11    1    3    3    0    0 -0.18261896435E+01 -0.12488596888E+01  0.92133447525E+01  0.94752488583E+01  0.51100000000E-03 0.  1.
        -12    1    3    3    0    0 -0.93430874318E+00 -0.32931743879E+01  0.13455579524E+01  0.36781050257E+01  0.00000000000E+00 0.  1.
</event>
<event>
 7    1  0.2328615E-009  0.4778727E+02  0.7816164E-02  0.1312668E+00
        -11   -1    0    0    0    0  0.00000000000E+00  0.00000000000E+00  0.45593999997E+02  0.45594000000E+02  0.51100000000E-03 0.  1.
         11   -1    0    0    0    0 -0.00000000000E+00 -0.00000000000E+00 -0.45593999997E+02  0.45594000000E+02  0.51100000000E-03 0. -1.
    9900012    2    1    2    0    0 -0.19260183155E+02  0.24170877730E+02  0.30470270833E+02  0.47787269706E+02  0.19999993900E+02 0.  0.
         12    1    1    2    0    0  0.19260183155E+02 -0.24170877730E+02 -0.30470270833E+02  0.43400730294E+02  0.00000000000E+00 0. -1.
         11    1    3    3    0    0 -0.42739371630E+01  0.57208034575E+01  0.11568261417E+02  0.13594807963E+02  0.51100000000E-03 0.  1.
        -11    1    3    3    0    0 -0.12075477038E+02  0.20924417899E+02  0.13812477747E+02  0.27828635466E+02  0.51100000000E-03 0. -1.
        -12    1    3    3    0    0 -0.29107689541E+01 -0.24743436270E+01  0.50895316683E+01  0.63638262776E+01  0.00000000000E+00 0.  1.
</event>
<event>
 7    1  0.2328615E-009  0.4778727E+02  0.7816164E-02  0.1312668E+00
        -11   -1    0    0    0    0  0.00000000000E+00  0.00000000000E+00  0.45593999997E+02  0.45594000000E+02  0.51100000000E-03 0.  1.
         11   -1    0    0    0    0 -0.00000000000E+00 -0.00000000000E+00 -0.45593999997E+02  0.45594000000E+02  0.51100000000E-03 0. -1.
    9900012    2    1    2    0    0 -0.11468648977E+02  0.25823897945E+02  0.32942672765E+02  0.47787270705E+02  0.19999998451E+02 0.  0.
         12    1    1    2    0    0  0.11468648977E+02 -0.25823897945E+02 -0.32942672765E+02  0.43400729295E+02  0.00000000000E+00 0. -1.
         11    1    3    3    0    0  0.67392234866E+00  0.81950600875E+01  0.21684829398E+02  0.23191485668E+02  0.51100000000E-03 0. -1.
        -11    1    3    3    0    0 -0.29326575812E+01  0.35868378431E+01  0.51733044727E+00  0.46619220558E+01  0.51100000000E-03 0.  1.
         12    1    3    3    0    0 -0.92099137444E+01  0.14042000014E+02  0.10740512920E+02  0.19933862981E+02  0.00000000000E+00 0. -1.
</event>
<event>
 7    1  0.2328615E-009  0.4778727E+02  0.7816164E-02  0.1312668E+00
        -11   -1    0    0    0    0  0.00000000000E+00  0.00000000000E+00  0.45593999997E+02  0.45594000000E+02  0.51100000000E-03 0.  1.
         11   -1    0    0    0    0 -0.00000000000E+00 -0.00000000000E+00 -0.45593999997E+02  0.45594000000E+02  0.51100000000E-03 0. -1.
    9900012    2    1    2    0    0 -0.26010973359E+02 -0.31639962664E+02  0.14351494754E+02  0.47787269889E+02  0.19999994734E+02 0.  0.
         12    1    1    2    0    0  0.26010973359E+02  0.31639962664E+02 -0.14351494754E+02  0.43400730111E+02  0.00000000000E+00 0. -1.
         11    1    3    3    0    0 -0.84039867691E+01 -0.82473287799E+01 -0.39810171491E+01  0.12429558456E+02  0.51100000000E-03 0. -1.
        -11    1    3    3    0    0 -0.77778966558E+01 -0.13431912107E+02  0.57914524479E+01  0.16566618875E+02  0.51100000000E-03 0.  1.
        -12    1    3    3    0    0 -0.98290899342E+01 -0.99607217766E+01  0.12541059455E+02  0.18791092558E+02  0.00000000000E+00 0.  1.
</event>
<event>
 7    1  0.2328615E-009  0.4778726E+02  0.7816164E-02  0.1312668E+00
        -11   -1    0    0    0    0  0.00000000000E+00  0.00000000000E+00  0.45593999997E+02  0.45594000000E+02  0.51100000000E-03 0. -1.
         11   -1    0    0    0    0 -0.00000000000E+00 -0.00000000000E+00 -0.45593999997E+02  0.45594000000E+02  0.51100000000E-03 0.  1.
    9900012    2    1    2    0    0  0.38441209705E+02  0.16141613006E+02 -0.12055949449E+02  0.47787260477E+02  0.19999951818E+02 0.  0.
         12    1    1    2    0    0 -0.38441209705E+02 -0.16141613006E+02  0.12055949449E+02  0.43400739523E+02  0.00000000000E+00 0. -1.
         11    1    3    3    0    0  0.24243703962E+01 -0.15134242892E+01  0.15698926501E+01  0.32607649549E+01  0.51100000000E-03 0. -1.
        -11    1    3    3    0    0  0.21817941506E+02  0.35139765907E+01 -0.47215510444E+01  0.22597868209E+02  0.51100000000E-03 0.  1.
        -12    1    3    3    0    0  0.14198897803E+02  0.14141060705E+02 -0.89042910543E+01  0.21928627313E+02  0.00000000000E+00 0.  1.
</event>
<event>
 7    1  0.2328615E-009  0.4778727E+02  0.7816164E-02  0.1312668E+00
        -11   -1    0    0    0    0  0.00000000000E+00  0.00000000000E+00  0.45593999997E+02  0.45594000000E+02  0.51100000000E-03 0.  1.
         11   -1    0    0    0    0 -0.00000000000E+00 -0.00000000000E+00 -0.45593999997E+02  0.45594000000E+02  0.51100000000E-03 0. -1.
    9900012    2    1    2    0    0  0.47992971421E+00 -0.29157082070E+02  0.32144320035E+02  0.47787273302E+02  0.20000010293E+02 0.  0.
         12    1    1    2    0    0 -0.47992971421E+00  0.29157082070E+02 -0.32144320035E+02  0.43400726698E+02  0.00000000000E+00 0. -1.
         11    1    3    3    0    0  0.12077696428E+01 -0.37786490944E+01 -0.98471754602E+00  0.40873665599E+01  0.51100000000E-03 0.  1.
        -11    1    3    3    0    0  0.50754855717E+00  0.43220649894E+00 -0.80642372512E+00  0.10462922542E+01  0.51100000000E-03 0. -1.
        -12    1    3    3    0    0 -0.12353884858E+01 -0.25810639474E+02  0.33935461307E+02  0.42653614488E+02  0.00000000000E+00 0.  1.
</event>
<event>
 7    1  0.2328615E-009  0.4778728E+02  0.7816164E-02  0.1312668E+00
        -11   -1    0    0    0    0  0.00000000000E+00  0.00000000000E+00  0.45593999997E+02  0.45594000000E+02  0.51100000000E-03 0.  1.
         11   -1    0    0    0    0 -0.00000000000E+00 -0.00000000000E+00 -0.45593999997E+02  0.45594000000E+02  0.51100000000E-03 0. -1.
    9900012    2    1    2    0    0  0.70241473053E+01  0.41269549927E+02 -0.11450253239E+02  0.47787277705E+02  0.20000030367E+02 0.  0.
         12    1    1    2    0    0 -0.70241473053E+01 -0.41269549927E+02  0.11450253239E+02  0.43400722295E+02  0.00000000000E+00 0. -1.
         11    1    3    3    0    0  0.20377408181E+00  0.13207761958E+02  0.30113694867E+01  0.13548241445E+02  0.51100000000E-03 0. -1.
        -11    1    3    3    0    0  0.56127461804E+00  0.19657300455E+02 -0.54203393328E+01  0.20398641355E+02  0.51100000000E-03 0.  1.
         12    1    3    3    0    0  0.62590986055E+01  0.84044875138E+01 -0.90412833934E+01  0.13840394905E+02  0.00000000000E+00 0. -1.
</event>
<event>
 7    1  0.2328615E-009  0.4778727E+02  0.7816164E-02  0.1312668E+00
        -11   -1    0    0    0    0  0.00000000000E+00  0.00000000000E+00  0.45593999997E+02  0.45594000000E+02  0.51100000000E-03 0.  1.
         11   -1    0    0    0    0 -0.00000000000E+00 -0.00000000000E+00 -0.45593999997E+02  0.45594000000E+02  0.51100000000E-03 0. -1.
    9900012    2    1    2    0    0  0.20580195894E+02 -0.36174023098E+02  0.12309298898E+02  0.47787271325E+02  0.20000001281E+02 0.  0.
         12    1    1    2    0    0 -0.20580195894E+02  0.36174023098E+02 -0.12309298898E+02  0.43400728675E+02  0.00000000000E+00 0. -1.
         11    1    3    3    0    0  0.13453403029E+01 -0.12257518390E+02  0.32268667510E+01  0.12746347198E+02  0.51100000000E-03 0.  1.
        -11    1    3    3    0    0  0.19084417591E+01 -0.19275670611E+01 -0.34333709919E+01  0.43755801160E+01  0.51100000000E-03 0. -1.
        -12    1    3    3    0    0  0.17326413832E+02 -0.21988937647E+02  0.12515803139E+02  0.30665344012E+02  0.00000000000E+00 0.  1.
</event>
<event>
 7    1  0.2328615E-009  0.4778726E+02  0.7816164E-02  0.1312668E+00
        -11   -1    0    0    0    0  0.00000000000E+00  0.00000000000E+00  0.45593999997E+02  0.45594000000E+02  0.51100000000E-03 0.  1.
         11   -1    0    0    0    0 -0.00000000000E+00 -0.00000000000E+00 -0.45593999997E+02  0.45594000000E+02  0.51100000000E-03 0. -1.
    9900012    2    1    2    0    0 -0.22630674726E+02  0.21742594468E+02  0.29978937696E+02  0.47787256249E+02  0.19999932542E+02 0.  0.
         12    1    1    2    0    0  0.22630674726E+02 -0.21742594468E+02 -0.29978937696E+02  0.43400743751E+02  0.00000000000E+00 0. -1.
         11    1    3    3    0    0 -0.17244290331E+01 -0.34302035620E+00  0.18679056704E+01  0.25652271458E+01  0.51100000000E-03 0. -1.
        -11    1    3    3    0    0 -0.95836988884E+01  0.22108366077E+02  0.19455945765E+02  0.30970323874E+02  0.51100000000E-03 0.  1.
        -12    1    3    3    0    0 -0.11322546805E+02 -0.22751252858E-01  0.86550862608E+01  0.14251705229E+02  0.00000000000E+00 0.  1.
</event>
<event>
 7    1  0.2328615E-009  0.4778727E+02  0.7816164E-02  0.1312668E+00
        -11   -1    0    0    0    0  0.00000000000E+00  0.00000000000E+00  0.45593999997E+02  0.45594000000E+02  0.51100000000E-03 0.  1.
         11   -1    0    0    0    0 -0.00000000000E+00 -0.00000000000E+00 -0.45593999997E+02  0.45594000000E+02  0.51100000000E-03 0. -1.
    9900012    2    1    2    0    0  0.41942329501E+02 -0.10563216535E+02  0.35893008736E+01  0.47787266961E+02  0.19999981382E+02 0.  0.
         12    1    1    2    0    0 -0.41942329501E+02  0.10563216535E+02 -0.35893008736E+01  0.43400733039E+02  0.00000000000E+00 0. -1.
         11    1    3    3    0    0  0.10126980633E+02 -0.79630959181E+00  0.75070512504E+01  0.12631138684E+02  0.51100000000E-03 0. -1.
        -11    1    3    3    0    0  0.71170897063E+01 -0.20948209596E+01  0.35676752232E+01  0.82322261570E+01  0.51100000000E-03 0.  1.
        -12    1    3    3    0    0  0.24698259162E+02 -0.76720859837E+01 -0.74854255999E+01  0.26923902120E+02  0.00000000000E+00 0.  1.
</event>
<event>
 7    1  0.2328615E-009  0.4778729E+02  0.7816164E-02  0.1312668E+00
        -11   -1    0    0    0    0  0.00000000000E+00  0.00000000000E+00  0.45593999997E+02  0.45594000000E+02  0.51100000000E-03 0. -1.
         11   -1    0    0    0    0 -0.00000000000E+00 -0.00000000000E+00 -0.45593999997E+02  0.45594000000E+02  0.51100000000E-03 0.  1.
    9900012    2    1    2    0    0 -0.43183513292E+02 -0.35064532270E+01  0.25516462590E+01  0.47787286491E+02  0.20000070427E+02 0.  0.
         12    1    1    2    0    0  0.43183513292E+02  0.35064532270E+01 -0.25516462590E+01  0.43400713509E+02  0.00000000000E+00 0. -1.
         11    1    3    3    0    0 -0.16785314654E+02  0.11409391802E+01  0.38190039083E+01  0.17252052671E+02  0.51100000000E-03 0. -1.
        -11    1    3    3    0    0 -0.25545838037E+02 -0.62433731369E+01  0.24392546513E+01  0.26410594705E+02  0.51100000000E-03 0.  1.
         12    1    3    3    0    0 -0.85236060046E+00  0.15959807298E+01 -0.37066123006E+01  0.41246391151E+01  0.00000000000E+00 0. -1.
</event>
<event>
 7    1  0.2328615E-009  0.4778727E+02  0.7816164E-02  0.1312668E+00
        -11   -1    0    0    0    0  0.00000000000E+00  0.00000000000E+00  0.45593999997E+02  0.45594000000E+02  0.51100000000E-03 0. -1.
         11   -1    0    0    0    0 -0.00000000000E+00 -0.00000000000E+00 -0.45593999997E+02  0.45594000000E+02  0.51100000000E-03 0.  1.
    9900012    2    1    2    0    0 -0.17480105647E+02  0.27303520491E+02 -0.28854587805E+02  0.47787267725E+02  0.19999984866E+02 0.  0.
         12    1    1    2    0    0  0.17480105647E+02 -0.27303520491E+02  0.28854587805E+02  0.43400732275E+02  0.00000000000E+00 0. -1.
         11    1    3    3    0    0 -0.33123089656E+01  0.59317788903E+01 -0.89931156227E+01  0.11270914797E+02  0.51100000000E-03 0. -1.
        -11    1    3    3    0    0 -0.14687466364E+02  0.72098965965E+01 -0.12176277227E+02  0.20395244654E+02  0.51100000000E-03 0.  1.
         12    1    3    3    0    0  0.51966968290E+00  0.14161845004E+02 -0.76851949549E+01  0.16121108275E+02  0.00000000000E+00 0. -1.
</event>
<event>
 7    1  0.2328615E-009  0.4778727E+02  0.7816164E-02  0.1312668E+00
        -11   -1    0    0    0    0  0.00000000000E+00  0.00000000000E+00  0.45593999997E+02  0.45594000000E+02  0.51100000000E-03 0. -1.
         11   -1    0    0    0    0 -0.00000000000E+00 -0.00000000000E+00 -0.45593999997E+02  0.45594000000E+02  0.51100000000E-03 0.  1.
    9900012    2    1    2    0    0 -0.38877460401E+02  0.11095757411E+02 -0.15781336060E+02  0.47787270425E+02  0.19999997178E+02 0.  0.
         12    1    1    2    0    0  0.38877460401E+02 -0.11095757411E+02  0.15781336060E+02  0.43400729575E+02  0.00000000000E+00 0. -1.
         11    1    3    3    0    0 -0.80085225964E+01  0.13824750106E+01 -0.57449476301E+01  0.99524918922E+01  0.51100000000E-03 0. -1.
        -11    1    3    3    0    0 -0.19073794413E+02  0.35176447295E+00 -0.12166106192E+02  0.22626257130E+02  0.51100000000E-03 0.  1.
         12    1    3    3    0    0 -0.11795143392E+02  0.93615179273E+01  0.21297177625E+01  0.15208521403E+02  0.00000000000E+00 0. -1.
</event>
<event>
 7    1  0.2328615E-009  0.4778727E+02  0.7816164E-02  0.1312668E+00
        -11   -1    0    0    0    0  0.00000000000E+00  0.00000000000E+00  0.45593999997E+02  0.45594000000E+02  0.51100000000E-03 0.  1.
         11   -1    0    0    0    0 -0.00000000000E+00 -0.00000000000E+00 -0.45593999997E+02  0.45594000000E+02  0.51100000000E-03 0. -1.
    9900012    2    1    2    0    0 -0.14160111594E+01 -0.35172863557E+02  0.25386761935E+02  0.47787273048E+02  0.20000009135E+02 0.  0.
         12    1    1    2    0    0  0.14160111594E+01  0.35172863557E+02 -0.25386761935E+02  0.43400726952E+02  0.00000000000E+00 0. -1.
         11    1    3    3    0    0  0.13378664866E+01 -0.28165069891E+01 -0.10689436776E+01  0.32962462291E+01  0.51100000000E-03 0. -1.
        -11    1    3    3    0    0  0.28875053556E+01 -0.21335310254E+02  0.95907531991E+01  0.23569380518E+02  0.51100000000E-03 0.  1.
        -12    1    3    3    0    0 -0.56413830016E+01 -0.11021046314E+02  0.16864952414E+02  0.20921646301E+02  0.00000000000E+00 0.  1.
</event>
<event>
 7    1  0.2328615E-009  0.4778727E+02  0.7816164E-02  0.1312668E+00
        -11   -1    0    0    0    0  0.00000000000E+00  0.00000000000E+00  0.45593999997E+02  0.45594000000E+02  0.51100000000E-03 0.  1.
         11   -1    0    0    0    0 -0.00000000000E+00 -0.00000000000E+00 -0.45593999997E+02  0.45594000000E+02  0.51100000000E-03 0. -1.
    9900012    2    1    2    0    0 -0.15254884550E+02  0.13014459656E+02  0.38490720964E+02  0.47787271169E+02  0.20000000567E+02 0.  0.
         12    1    1    2    0    0  0.15254884550E+02 -0.13014459656E+02 -0.38490720964E+02  0.43400728831E+02  0.00000000000E+00 0. -1.
         11    1    3    3    0    0  0.26159185294E+01  0.33891958435E+01  0.57913054795E+01  0.72020065007E+01  0.51100000000E-03 0. -1.
        -11    1    3    3    0    0 -0.53951255967E+01  0.86652129046E+01  0.21468632782E+02  0.23771737183E+02  0.51100000000E-03 0.  1.
         12    1    3    3    0    0 -0.12475677483E+02  0.96005090770E+00  0.11230782702E+02  0.16813527485E+02  0.00000000000E+00 0. -1.
</event>
<event>
 7    1  0.2328615E-009  0.4778727E+02  0.7816164E-02  0.1312668E+00
        -11   -1    0    0    0    0  0.00000000000E+00  0.00000000000E+00  0.45593999997E+02  0.45594000000E+02  0.51100000000E-03 0. -1.
         11   -1    0    0    0    0 -0.00000000000E+00 -0.00000000000E+00 -0.45593999997E+02  0.45594000000E+02  0.51100000000E-03 0.  1.
    9900012    2    1    2    0    0 -0.34125315393E+02 -0.13215215510E+02 -0.23333322580E+02  0.47787274035E+02  0.20000013637E+02 0.  0.
         12    1    1    2    0    0  0.34125315393E+02  0.13215215510E+02  0.23333322580E+02  0.43400725965E+02  0.00000000000E+00 0. -1.
         11    1    3    3    0    0 -0.12159774736E+02 -0.81119567042E+01 -0.42276981221E+01  0.15216352877E+02  0.51100000000E-03 0. -1.
        -11    1    3    3    0    0 -0.13878675332E+02 -0.97904039503E+01 -0.13247392405E+02  0.21539801398E+02  0.51100000000E-03 0.  1.
         12    1    3    3    0    0 -0.80868653248E+01  0.46871451440E+01 -0.58582320526E+01  0.11031119760E+02  0.00000000000E+00 0. -1.
</event>
<event>
 7    1  0.2328615E-009  0.4778727E+02  0.7816164E-02  0.1312668E+00
        -11   -1    0    0    0    0  0.00000000000E+00  0.00000000000E+00  0.45593999997E+02  0.45594000000E+02  0.51100000000E-03 0.  1.
         11   -1    0    0    0    0 -0.00000000000E+00 -0.00000000000E+00 -0.45593999997E+02  0.45594000000E+02  0.51100000000E-03 0. -1.
    9900012    2    1    2    0    0 -0.41124777546E+02 -0.12859593447E+02  0.51967993329E+01  0.47787271951E+02  0.20000004134E+02 0.  0.
         12    1    1    2    0    0  0.41124777546E+02  0.12859593447E+02 -0.51967993329E+01  0.43400728049E+02  0.00000000000E+00 0. -1.
         11    1    3    3    0    0  0.47253917580E+00  0.80549294154E+00 -0.15584991424E+00  0.94678487970E+00  0.51100000000E-03 0. -1.
        -11    1    3    3    0    0 -0.27615134562E+02 -0.23712709856E+01 -0.11134771220E+01  0.27739113442E+02  0.51100000000E-03 0.  1.
        -12    1    3    3    0    0 -0.13982182160E+02 -0.11293815403E+02  0.64661263692E+01  0.19101373629E+02  0.00000000000E+00 0.  1.
</event>
<event>
 7    1  0.2328615E-009  0.4778727E+02  0.7816164E-02  0.1312668E+00
        -11   -1    0    0    0    0  0.00000000000E+00  0.00000000000E+00  0.45593999997E+02  0.45594000000E+02  0.51100000000E-03 0.  1.
         11   -1    0    0    0    0 -0.00000000000E+00 -0.00000000000E+00 -0.45593999997E+02  0.45594000000E+02  0.51100000000E-03 0. -1.
    9900012    2    1    2    0    0 -0.33147620743E+02 -0.24986397359E+02  0.12670378061E+02  0.47787270811E+02  0.19999998936E+02 0.  0.
         12    1    1    2    0    0  0.33147620743E+02  0.24986397359E+02 -0.12670378061E+02  0.43400729189E+02  0.00000000000E+00 0. -1.
         11    1    3    3    0    0 -0.10849498633E+01  0.12127453174E+01  0.31137442420E+01  0.35132991441E+01  0.51100000000E-03 0. -1.
        -11    1    3    3    0    0  0.42013861085E+00 -0.84042818538E+00 -0.13510359543E+01  0.16456410295E+01  0.51100000000E-03 0.  1.
        -12    1    3    3    0    0 -0.32482809491E+02 -0.25358714491E+02  0.10907669773E+02  0.42628330637E+02  0.00000000000E+00 0.  1.
</event>
<event>
 7    1  0.2328615E-009  0.4778728E+02  0.7816164E-02  0.1312668E+00
        -11   -1    0    0    0    0  0.00000000000E+00  0.00000000000E+00  0.45593999997E+02  0.45594000000E+02  0.51100000000E-03 0. -1.
         11   -1    0    0    0    0 -0.00000000000E+00 -0.00000000000E+00 -0.45593999997E+02  0.45594000000E+02  0.51100000000E-03 0.  1.
    9900012    2    1    2    0    0 -0.14554467615E+02 -0.37681353824E+02 -0.15871542277E+02  0.47787276414E+02  0.20000024484E+02 0.  0.
         12    1    1    2    0    0  0.14554467615E+02  0.37681353824E+02  0.15871542277E+02  0.43400723586E+02  0.00000000000E+00 0. -1.
         11    1    3    3    0    0  0.10073209763E+01 -0.22280553760E+00  0.15645248521E+01  0.18740533959E+01  0.51100000000E-03 0. -1.
        -11    1    3    3    0    0 -0.11510237408E+02 -0.14577047755E+02 -0.37607917077E+01  0.18950446986E+02  0.51100000000E-03 0.  1.
         12    1    3    3    0    0 -0.40515511830E+01 -0.22881500531E+02 -0.13675275421E+02  0.26962776033E+02  0.00000000000E+00 0. -1.
</event>
<event>
 7    1  0.2328615E-009  0.4778727E+02  0.7816164E-02  0.1312668E+00
        -11   -1    0    0    0    0  0.00000000000E+00  0.00000000000E+00  0.45593999997E+02  0.45594000000E+02  0.51100000000E-03 0.  1.
         11   -1    0    0    0    0 -0.00000000000E+00 -0.00000000000E+00 -0.45593999997E+02  0.45594000000E+02  0.51100000000E-03 0. -1.
    9900012    2    1    2    0    0  0.30617131117E+02  0.27905773989E+02  0.12941490649E+02  0.47787272818E+02  0.20000008084E+02 0.  0.
         12    1    1    2    0    0 -0.30617131117E+02 -0.27905773989E+02 -0.12941490649E+02  0.43400727182E+02  0.00000000000E+00 0. -1.
         11    1    3    3    0    0  0.32229975144E+01  0.40144207526E+01 -0.15596333849E+01  0.53791954336E+01  0.51100000000E-03 0.  1.
        -11    1    3    3    0    0  0.60056079908E+01  0.59928829081E+01 -0.35388086494E+01  0.91926677199E+01  0.51100000000E-03 0. -1.
        -12    1    3    3    0    0  0.21388525612E+02  0.17898470328E+02  0.18039932683E+02  0.33215409664E+02  0.00000000000E+00 0.  1.
</event>
<event>
 7    1  0.2328615E-009  0.4778727E+02  0.7816164E-02  0.1312668E+00
        -11   -1    0    0    0    0  0.00000000000E+00  0.00000000000E+00  0.45593999997E+02  0.45594000000E+02  0.51100000000E-03 0.  1.
         11   -1    0    0    0    0 -0.00000000000E+00 -0.00000000000E+00 -0.45593999997E+02  0.45594000000E+02  0.51100000000E-03 0. -1.
    9900012    2    1    2    0    0  0.13142724513E+02  0.29718867350E+02  0.28769440965E+02  0.47787273997E+02  0.20000013462E+02 0.  0.
         12    1    1    2    0    0 -0.13142724513E+02 -0.29718867350E+02 -0.28769440965E+02  0.43400726003E+02  0.00000000000E+00 0. -1.
         11    1    3    3    0    0  0.80548517158E+00  0.58385302499E+01 -0.29393313826E+00  0.59011557166E+01  0.51100000000E-03 0. -1.
        -11    1    3    3    0    0  0.10061275854E+02  0.15575701675E+02  0.10229675984E+02  0.21177299768E+02  0.51100000000E-03 0.  1.
        -12    1    3    3    0    0  0.22759634872E+01  0.83046354252E+01  0.18833698118E+02  0.20708818512E+02  0.00000000000E+00 0.  1.
</event>
<event>
 7    1  0.2328615E-009  0.4778727E+02  0.7816164E-02  0.1312668E+00
        -11   -1    0    0    0    0  0.00000000000E+00  0.00000000000E+00  0.45593999997E+02  0.45594000000E+02  0.51100000000E-03 0. -1.
         11   -1    0    0    0    0 -0.00000000000E+00 -0.00000000000E+00 -0.45593999997E+02  0.45594000000E+02  0.51100000000E-03 0.  1.
    9900012    2    1    2    0    0  0.20906156443E+02 -0.86536490784E+01 -0.37036065606E+02  0.47787272182E+02  0.20000005184E+02 0.  0.
         12    1    1    2    0    0 -0.20906156443E+02  0.86536490784E+01  0.37036065606E+02  0.43400727818E+02  0.00000000000E+00 0. -1.
         11    1    3    3    0    0  0.88691866073E+01 -0.61079758166E+01 -0.32345999743E+02  0.34091546449E+02  0.51100000000E-03 0.  1.
        -11    1    3    3    0    0  0.72254633575E+00 -0.82782690404E+00  0.40182403902E+00  0.11699715423E+01  0.51100000000E-03 0. -1.
        -12    1    3    3    0    0  0.11314423500E+02 -0.17178463578E+01 -0.50918899016E+01  0.12525754190E+02  0.00000000000E+00 0.  1.
</event>
<event>
 7    1  0.2328615E-009  0.4778727E+02  0.7816164E-02  0.1312668E+00
        -11   -1    0    0    0    0  0.00000000000E+00  0.00000000000E+00  0.45593999997E+02  0.45594000000E+02  0.51100000000E-03 0. -1.
         11   -1    0    0    0    0 -0.00000000000E+00 -0.00000000000E+00 -0.45593999997E+02  0.45594000000E+02  0.51100000000E-03 0.  1.
    9900012    2    1    2    0    0  0.41039859392E+02  0.13702450628E+02 -0.34053250170E+01  0.47787269008E+02  0.19999990716E+02 0.  0.
         12    1    1    2    0    0 -0.41039859392E+02 -0.13702450628E+02  0.34053250170E+01  0.43400730992E+02  0.00000000000E+00 0. -1.
         11    1    3    3    0    0 -0.75430325837E+00  0.26166153791E+01 -0.93232015245E+00  0.28783451106E+01  0.51100000000E-03 0. -1.
        -11    1    3    3    0    0  0.96234763156E+01  0.76622892090E+01 -0.25189434530E+01  0.12556554014E+02  0.51100000000E-03 0.  1.
        -12    1    3    3    0    0  0.32170686335E+02  0.34235460403E+01  0.45938588427E-01  0.32352369884E+02  0.00000000000E+00 0.  1.
</event>
<event>
 7    1  0.2328615E-009  0.4778728E+02  0.7816164E-02  0.1312668E+00
        -11   -1    0    0    0    0  0.00000000000E+00  0.00000000000E+00  0.45593999997E+02  0.45594000000E+02  0.51100000000E-03 0.  1.
         11   -1    0    0    0    0 -0.00000000000E+00 -0.00000000000E+00 -0.45593999997E+02  0.45594000000E+02  0.51100000000E-03 0. -1.
    9900012    2    1    2    0    0  0.19052065077E+02 -0.10734505186E+02  0.37488824882E+02  0.47787276777E+02  0.20000026135E+02 0.  0.
         12    1    1    2    0    0 -0.19052065077E+02  0.10734505186E+02 -0.37488824882E+02  0.43400723223E+02  0.00000000000E+00 0. -1.
         11    1    3    3    0    0  0.23101674743E+01  0.15365825367E+01 -0.12885404367E+01  0.30591332710E+01  0.51100000000E-03 0. -1.
        -11    1    3    3    0    0  0.61617442361E+01 -0.14653188491E+00  0.11913320086E+02  0.13413268035E+02  0.51100000000E-03 0.  1.
         12    1    3    3    0    0  0.10580153366E+02 -0.12124555838E+02  0.26864045232E+02  0.31314875471E+02  0.00000000000E+00 0. -1.
</event>
<event>
 7    1  0.2333128E-009  0.4778727E+02  0.7816164E-02  0.1312668E+00
        -11   -1    0    0    0    0  0.00000000000E+00  0.00000000000E+00  0.45593999997E+02  0.45594000000E+02  0.51100000000E-03 0. -1.
         11   -1    0    0    0    0 -0.00000000000E+00 -0.00000000000E+00 -0.45593999997E+02  0.45594000000E+02  0.51100000000E-03 0.  1.
    9900012    2    1    2    0    0 -0.19048071367E+02 -0.38662502607E+02 -0.50995247725E+01  0.47787270933E+02  0.19999999491E+02 0.  0.
         12    1    1    2    0    0  0.19048071367E+02  0.38662502607E+02  0.50995247725E+01  0.43400729067E+02  0.00000000000E+00 0. -1.
         11    1    3    3    0    0 -0.16863612902E+01 -0.35441007498E+01  0.42889624031E+01  0.58137477829E+01  0.51100000000E-03 0. -1.
        -11    1    3    3    0    0 -0.87687253349E+01 -0.69228820255E+01 -0.47283982289E+01  0.12131553471E+02  0.51100000000E-03 0.  1.
        -12    1    3    3    0    0 -0.85929847420E+01 -0.28195519832E+02 -0.46600889467E+01  0.29841969679E+02  0.00000000000E+00 0.  1.
</event>
<event>
 7    1  0.2328615E-009  0.4778726E+02  0.7816164E-02  0.1312668E+00
        -11   -1    0    0    0    0  0.00000000000E+00  0.00000000000E+00  0.45593999997E+02  0.45594000000E+02  0.51100000000E-03 0. -1.
         11   -1    0    0    0    0 -0.00000000000E+00 -0.00000000000E+00 -0.45593999997E+02  0.45594000000E+02  0.51100000000E-03 0.  1.
    9900012    2    1    2    0    0 -0.40181752195E+02  0.99549711083E+01 -0.13036478485E+02  0.47787257719E+02  0.19999939244E+02 0.  0.
         12    1    1    2    0    0  0.40181752195E+02 -0.99549711083E+01  0.13036478485E+02  0.43400742281E+02  0.00000000000E+00 0. -1.
         11    1    3    3    0    0 -0.62274069761E+01 -0.17386940631E+01 -0.11335325204E+01  0.65641869966E+01  0.51100000000E-03 0. -1.
        -11    1    3    3    0    0 -0.16738932437E+01  0.64586298565E+01 -0.97245292229E+00  0.67425131192E+01  0.51100000000E-03 0.  1.
        -12    1    3    3    0    0 -0.32280451976E+02  0.52350353148E+01 -0.10930493042E+02  0.34480557603E+02  0.00000000000E+00 0.  1.
</event>
<event>
 7    1  0.2328615E-009  0.4778728E+02  0.7816164E-02  0.1312668E+00
        -11   -1    0    0    0    0  0.00000000000E+00  0.00000000000E+00  0.45593999997E+02  0.45594000000E+02  0.51100000000E-03 0.  1.
         11   -1    0    0    0    0 -0.00000000000E+00 -0.00000000000E+00 -0.45593999997E+02  0.45594000000E+02  0.51100000000E-03 0. -1.
    9900012    2    1    2    0    0 -0.26294477209E+02 -0.12952696220E+02  0.32007046262E+02  0.47787275565E+02  0.20000020610E+02 0.  0.
         12    1    1    2    0    0  0.26294477209E+02  0.12952696220E+02 -0.32007046262E+02  0.43400724435E+02  0.00000000000E+00 0. -1.
         11    1    3    3    0    0 -0.12982795864E+01 -0.75441167287E+00  0.59551522711E+00  0.16153344866E+01  0.51100000000E-03 0. -1.
        -11    1    3    3    0    0 -0.75897387361E+01 -0.14232071265E+02  0.17477053298E+02  0.23782417430E+02  0.51100000000E-03 0.  1.
        -12    1    3    3    0    0 -0.17406458887E+02  0.20337867180E+01  0.13934477737E+02  0.22389523648E+02  0.00000000000E+00 0.  1.
</event>
<event>
 7    1  0.2328615E-009  0.4778727E+02  0.7816164E-02  0.1312668E+00
        -11   -1    0    0    0    0  0.00000000000E+00  0.00000000000E+00  0.45593999997E+02  0.45594000000E+02  0.51100000000E-03 0.  1.
         11   -1    0    0    0    0 -0.00000000000E+00 -0.00000000000E+00 -0.45593999997E+02  0.45594000000E+02  0.51100000000E-03 0. -1.
    9900012    2    1    2    0    0 -0.39947773068E+02 -0.14212157184E+02  0.92635462853E+01  0.47787271035E+02  0.19999999958E+02 0.  0.
         12    1    1    2    0    0  0.39947773068E+02  0.14212157184E+02 -0.92635462853E+01  0.43400728965E+02  0.00000000000E+00 0. -1.
         11    1    3    3    0    0 -0.29545694014E+02 -0.89008286643E+01  0.26800451057E+01  0.30973463282E+02  0.51100000000E-03 0. -1.
        -11    1    3    3    0    0 -0.11717604667E+02 -0.33857497581E+01  0.74884630580E+01  0.14312324751E+02  0.51100000000E-03 0.  1.
         12    1    3    3    0    0  0.13155256132E+01 -0.19255787616E+01 -0.90496187836E+00  0.25014830016E+01  0.00000000000E+00 0. -1.
</event>
<event>
 7    1  0.2328615E-009  0.4778727E+02  0.7816164E-02  0.1312668E+00
        -11   -1    0    0    0    0  0.00000000000E+00  0.00000000000E+00  0.45593999997E+02  0.45594000000E+02  0.51100000000E-03 0.  1.
         11   -1    0    0    0    0 -0.00000000000E+00 -0.00000000000E+00 -0.45593999997E+02  0.45594000000E+02  0.51100000000E-03 0. -1.
    9900012    2    1    2    0    0  0.37240192651E+02 -0.54576698556E+01  0.21610300723E+02  0.47787271823E+02  0.20000003551E+02 0.  0.
         12    1    1    2    0    0 -0.37240192651E+02  0.54576698556E+01 -0.21610300723E+02  0.43400728177E+02  0.00000000000E+00 0. -1.
         11    1    3    3    0    0  0.39623663068E+01 -0.44366028998E+01  0.36410178547E+01  0.69742959013E+01  0.51100000000E-03 0. -1.
        -11    1    3    3    0    0  0.65436168258E+01  0.56650646513E+01  0.70795475846E+01  0.11181765197E+02  0.51100000000E-03 0.  1.
        -12    1    3    3    0    0  0.26734209519E+02 -0.66861316070E+01  0.10889735283E+02  0.29631210724E+02  0.00000000000E+00 0.  1.
</event>
<event>
 7    1  0.2328615E-009  0.4778729E+02  0.7816164E-02  0.1312668E+00
        -11   -1    0    0    0    0  0.00000000000E+00  0.00000000000E+00  0.45593999997E+02  0.45594000000E+02  0.51100000000E-03 0. -1.
         11   -1    0    0    0    0 -0.00000000000E+00 -0.00000000000E+00 -0.45593999997E+02  0.45594000000E+02  0.51100000000E-03 0.  1.
    9900012    2    1    2    0    0  0.37036469373E+02  0.27686566729E+01 -0.22455646867E+02  0.47787290333E+02  0.20000087946E+02 0.  0.
         12    1    1    2    0    0 -0.37036469373E+02 -0.27686566729E+01  0.22455646867E+02  0.43400709667E+02  0.00000000000E+00 0. -1.
         11    1    3    3    0    0  0.15380270968E+02  0.16706618828E+01 -0.12688272804E+02  0.20008401065E+02  0.51100000000E-03 0. -1.
        -11    1    3    3    0    0  0.20219867650E+02 -0.22492129417E+01 -0.11888912238E+02  0.23563706014E+02  0.51100000000E-03 0.  1.
         12    1    3    3    0    0  0.14363307544E+01  0.33472077318E+01  0.21215381753E+01  0.42151832541E+01  0.00000000000E+00 0. -1.
</event>
<event>
 7    1  0.2328615E-009  0.4778726E+02  0.7816164E-02  0.1312668E+00
        -11   -1    0    0    0    0  0.00000000000E+00  0.00000000000E+00  0.45593999997E+02  0.45594000000E+02  0.51100000000E-03 0. -1.
         11   -1    0    0    0    0 -0.00000000000E+00 -0.00000000000E+00 -0.45593999997E+02  0.45594000000E+02  0.51100000000E-03 0.  1.
    9900012    2    1    2    0    0  0.29925366303E+02 -0.14772819589E+02 -0.27746356466E+02  0.47787262171E+02  0.19999959544E+02 0.  0.
         12    1    1    2    0    0 -0.29925366303E+02  0.14772819589E+02  0.27746356466E+02  0.43400737829E+02  0.00000000000E+00 0. -1.
         11    1    3    3    0    0  0.34790179299E+01  0.65352409266E+00 -0.81215276319E+01  0.88594509329E+01  0.51100000000E-03 0. -1.
        -11    1    3    3    0    0  0.19774381982E+02 -0.13294232887E+02 -0.21033522704E+02  0.31783201356E+02  0.51100000000E-03 0.  1.
         12    1    3    3    0    0  0.66719663905E+01 -0.21321107946E+01  0.14086938700E+01  0.71446098827E+01  0.00000000000E+00 0. -1.
</event>
<event>
 7    1  0.2328615E-009  0.4778732E+02  0.7816164E-02  0.1312668E+00
        -11   -1    0    0    0    0  0.00000000000E+00  0.00000000000E+00  0.45593999997E+02  0.45594000000E+02  0.51100000000E-03 0. -1.
         11   -1    0    0    0    0 -0.00000000000E+00 -0.00000000000E+00 -0.45593999997E+02  0.45594000000E+02  0.51100000000E-03 0.  1.
    9900012    2    1    2    0    0  0.25273070443E+02  0.34228003288E+02 -0.85635577208E+01  0.47787322361E+02  0.20000233970E+02 0.  0.
         12    1    1    2    0    0 -0.25273070443E+02 -0.34228003288E+02  0.85635577208E+01  0.43400677639E+02  0.00000000000E+00 0. -1.
         11    1    3    3    0    0  0.13913605748E+01  0.13813255452E+00 -0.11711262987E+01  0.18238700393E+01  0.51100000000E-03 0.  1.
        -11    1    3    3    0    0  0.44622716295E+01  0.17335460148E+02 -0.94337137142E+01  0.20234253170E+02  0.51100000000E-03 0. -1.
        -12    1    3    3    0    0  0.19419438239E+02  0.16754410586E+02  0.20412822921E+01  0.25729199152E+02  0.00000000000E+00 0.  1.
</event>
<event>
 7    1  0.2328615E-009  0.4778727E+02  0.7816164E-02  0.1312668E+00
        -11   -1    0    0    0    0  0.00000000000E+00  0.00000000000E+00  0.45593999997E+02  0.45594000000E+02  0.51100000000E-03 0. -1.
         11   -1    0    0    0    0 -0.00000000000E+00 -0.00000000000E+00 -0.45593999997E+02  0.45594000000E+02  0.51100000000E-03 0.  1.
    9900012    2    1    2    0    0  0.39636488665E+01  0.43204769721E+02 -0.11229122901E+01  0.47787267621E+02  0.19999984392E+02 0.  0.
         12    1    1    2    0    0 -0.39636488665E+01 -0.43204769721E+02  0.11229122901E+01  0.43400732379E+02  0.00000000000E+00 0. -1.
         11    1    3    3    0    0 -0.82330333914E+00  0.12005681874E+02  0.58561923379E+01  0.13383169080E+02  0.51100000000E-03 0. -1.
        -11    1    3    3    0    0  0.33345229345E+01  0.11297577928E+02  0.29101458093E+01  0.12133559211E+02  0.51100000000E-03 0.  1.
        -12    1    3    3    0    0  0.14524292712E+01  0.19901509919E+02 -0.98892504373E+01  0.22270539330E+02  0.00000000000E+00 0.  1.
</event>
<event>
 7    1  0.2328615E-009  0.4778727E+02  0.7816164E-02  0.1312668E+00
        -11   -1    0    0    0    0  0.00000000000E+00  0.00000000000E+00  0.45593999997E+02  0.45594000000E+02  0.51100000000E-03 0. -1.
         11   -1    0    0    0    0 -0.00000000000E+00 -0.00000000000E+00 -0.45593999997E+02  0.45594000000E+02  0.51100000000E-03 0.  1.
    9900012    2    1    2    0    0 -0.99930100144E+01 -0.39973281115E+02  0.13634511257E+02  0.47787270174E+02  0.19999996031E+02 0.  0.
         12    1    1    2    0    0  0.99930100144E+01  0.39973281115E+02 -0.13634511257E+02  0.43400729826E+02  0.00000000000E+00 0. -1.
         11    1    3    3    0    0 -0.23073717022E+01 -0.25281378038E+01 -0.16852799358E+01  0.38151819943E+01  0.51100000000E-03 0.  1.
        -11    1    3    3    0    0 -0.11851973253E+01 -0.70918155076E+01 -0.31514945172E+01  0.78505068529E+01  0.51100000000E-03 0. -1.
        -12    1    3    3    0    0 -0.65004409869E+01 -0.30353327803E+02  0.18471285710E+02  0.36121581327E+02  0.00000000000E+00 0.  1.
</event>
<event>
 7    1  0.2328615E-009  0.4778727E+02  0.7816164E-02  0.1312668E+00
        -11   -1    0    0    0    0  0.00000000000E+00  0.00000000000E+00  0.45593999997E+02  0.45594000000E+02  0.51100000000E-03 0. -1.
         11   -1    0    0    0    0 -0.00000000000E+00 -0.00000000000E+00 -0.45593999997E+02  0.45594000000E+02  0.51100000000E-03 0.  1.
    9900012    2    1    2    0    0  0.41529772681E+02 -0.11793591969E+02 -0.44510942624E+01  0.47787273386E+02  0.20000010678E+02 0.  0.
         12    1    1    2    0    0 -0.41529772681E+02  0.11793591969E+02  0.44510942624E+01  0.43400726614E+02  0.00000000000E+00 0. -1.
         11    1    3    3    0    0  0.86564182377E+01 -0.62172644072E+01 -0.17002064155E+00  0.10659121009E+02  0.51100000000E-03 0.  1.
        -11    1    3    3    0    0  0.29808872689E+02 -0.96676754429E+01 -0.56352589186E+01  0.31840053122E+02  0.51100000000E-03 0. -1.
         12    1    3    3    0    0  0.30644817538E+01  0.40913478815E+01  0.13541852978E+01  0.52880992547E+01  0.00000000000E+00 0. -1.
</event>
<event>
 7    1  0.2328615E-009  0.4778727E+02  0.7816164E-02  0.1312668E+00
        -11   -1    0    0    0    0  0.00000000000E+00  0.00000000000E+00  0.45593999997E+02  0.45594000000E+02  0.51100000000E-03 0.  1.
         11   -1    0    0    0    0 -0.00000000000E+00 -0.00000000000E+00 -0.45593999997E+02  0.45594000000E+02  0.51100000000E-03 0. -1.
    9900012    2    1    2    0    0 -0.27973988539E+02  0.23416983696E+02  0.23510085874E+02  0.47787270766E+02  0.19999998733E+02 0.  0.
         12    1    1    2    0    0  0.27973988539E+02 -0.23416983696E+02 -0.23510085874E+02  0.43400729234E+02  0.00000000000E+00 0. -1.
         11    1    3    3    0    0 -0.24752076226E+01 -0.94748176942E+00 -0.67943001696E+00  0.27360555344E+01  0.51100000000E-03 0. -1.
        -11    1    3    3    0    0 -0.18613449965E+01  0.59338288697E+01  0.10263242335E+02  0.12000378066E+02  0.51100000000E-03 0.  1.
        -12    1    3    3    0    0 -0.23637435920E+02  0.18430636595E+02  0.13926273556E+02  0.33050837166E+02  0.00000000000E+00 0.  1.
</event>
<event>
 7    1  0.2328615E-009  0.4778726E+02  0.7816164E-02  0.1312668E+00
        -11   -1    0    0    0    0  0.00000000000E+00  0.00000000000E+00  0.45593999997E+02  0.45594000000E+02  0.51100000000E-03 0.  1.
         11   -1    0    0    0    0 -0.00000000000E+00 -0.00000000000E+00 -0.45593999997E+02  0.45594000000E+02  0.51100000000E-03 0. -1.
    9900012    2    1    2    0    0 -0.32571985388E+02  0.28193888029E+02  0.52720736309E+01  0.47787259054E+02  0.19999945332E+02 0.  0.
         12    1    1    2    0    0  0.32571985388E+02 -0.28193888029E+02 -0.52720736309E+01  0.43400740946E+02  0.00000000000E+00 0. -1.
         11    1    3    3    0    0 -0.65771574263E+01  0.93878457494E+01  0.89631078602E+01  0.14550874558E+02  0.51100000000E-03 0. -1.
        -11    1    3    3    0    0 -0.10681658454E+02  0.40705452582E+01  0.99544612230E+00  0.11474235455E+02  0.51100000000E-03 0.  1.
        -12    1    3    3    0    0 -0.15313169507E+02  0.14735497021E+02 -0.46864803517E+01  0.21762149041E+02  0.00000000000E+00 0.  1.
</event>
<event>
 7    1  0.2328615E-009  0.4778727E+02  0.7816164E-02  0.1312668E+00
        -11   -1    0    0    0    0  0.00000000000E+00  0.00000000000E+00  0.45593999997E+02  0.45594000000E+02  0.51100000000E-03 0. -1.
         11   -1    0    0    0    0 -0.00000000000E+00 -0.00000000000E+00 -0.45593999997E+02  0.45594000000E+02  0.51100000000E-03 0.  1.
    9900012    2    1    2    0    0  0.37141033496E+02  0.12874527466E+02 -0.18396024144E+02  0.47787268083E+02  0.19999986497E+02 0.  0.
         12    1    1    2    0    0 -0.37141033496E+02 -0.12874527466E+02  0.18396024144E+02  0.43400731917E+02  0.00000000000E+00 0. -1.
         11    1    3    3    0    0  0.88369384017E+01  0.88731178509E+01  0.14793793243E+01  0.12610006509E+02  0.51100000000E-03 0. -1.
        -11    1    3    3    0    0  0.68096789654E-01 -0.80501035813E-01 -0.91689682401E+00  0.92293967112E+00  0.51100000000E-03 0.  1.
        -12    1    3    3    0    0  0.28235998305E+02  0.40819106512E+01 -0.18958506645E+02  0.34254321903E+02  0.00000000000E+00 0.  1.
</event>
<event>
 7    1  0.2328615E-009  0.4778727E+02  0.7816164E-02  0.1312668E+00
        -11   -1    0    0    0    0  0.00000000000E+00  0.00000000000E+00  0.45593999997E+02  0.45594000000E+02  0.51100000000E-03 0. -1.
         11   -1    0    0    0    0 -0.00000000000E+00 -0.00000000000E+00 -0.45593999997E+02  0.45594000000E+02  0.51100000000E-03 0.  1.
    9900012    2    1    2    0    0  0.21112609120E+02  0.21795707406E+02 -0.31029472425E+02  0.47787270925E+02  0.19999999457E+02 0.  0.
         12    1    1    2    0    0 -0.21112609120E+02 -0.21795707406E+02  0.31029472425E+02  0.43400729075E+02  0.00000000000E+00 0. -1.
         11    1    3    3    0    0  0.11117004752E+02  0.15067561615E+02 -0.11893069225E+02  0.22182522479E+02  0.51100000000E-03 0. -1.
        -11    1    3    3    0    0  0.62217904296E+01  0.93985363515E+01 -0.17262321704E+02  0.20616277855E+02  0.51100000000E-03 0.  1.
        -12    1    3    3    0    0  0.37738139387E+01 -0.26703905602E+01 -0.18740814960E+01  0.49884705915E+01  0.00000000000E+00 0.  1.
</event>
<event>
 7    1  0.2328615E-009  0.4778727E+02  0.7816164E-02  0.1312668E+00
        -11   -1    0    0    0    0  0.00000000000E+00  0.00000000000E+00  0.45593999997E+02  0.45594000000E+02  0.51100000000E-03 0.  1.
         11   -1    0    0    0    0 -0.00000000000E+00 -0.00000000000E+00 -0.45593999997E+02  0.45594000000E+02  0.51100000000E-03 0. -1.
    9900012    2    1    2    0    0 -0.24991103546E+02 -0.12364193219E+02  0.33259509433E+02  0.47787268461E+02  0.19999988220E+02 0.  0.
         12    1    1    2    0    0  0.24991103546E+02  0.12364193219E+02 -0.33259509433E+02  0.43400731539E+02  0.00000000000E+00 0. -1.
         11    1    3    3    0    0 -0.48294377723E+01  0.32588730770E+01  0.61214357408E+01  0.84507809531E+01  0.51100000000E-03 0. -1.
        -11    1    3    3    0    0 -0.10202827748E+02 -0.15733468658E+01  0.55493055087E+01  0.11720405552E+02  0.51100000000E-03 0.  1.
         12    1    3    3    0    0 -0.99588380260E+01 -0.14049719430E+02  0.21588768184E+02  0.27616081956E+02  0.00000000000E+00 0. -1.
</event>
<event>
 7    1  0.2328615E-009  0.4778727E+02  0.7816164E-02  0.1312668E+00
        -11   -1    0    0    0    0  0.00000000000E+00  0.00000000000E+00  0.45593999997E+02  0.45594000000E+02  0.51100000000E-03 0.  1.
         11   -1    0    0    0    0 -0.00000000000E+00 -0.00000000000E+00 -0.45593999997E+02  0.45594000000E+02  0.51100000000E-03 0. -1.
    9900012    2    1    2    0    0 -0.14959663250E+02  0.30706729828E+02  0.26775523895E+02  0.47787268888E+02  0.19999990166E+02 0.  0.
         12    1    1    2    0    0  0.14959663250E+02 -0.30706729828E+02 -0.26775523895E+02  0.43400731112E+02  0.00000000000E+00 0. -1.
         11    1    3    3    0    0 -0.96372640600E+00 -0.46338707279E+00  0.84043155766E+00  0.13600814788E+01  0.51100000000E-03 0. -1.
        -11    1    3    3    0    0 -0.14230369452E+02  0.28694073718E+02  0.15282560249E+02  0.35488166046E+02  0.51100000000E-03 0.  1.
         12    1    3    3    0    0  0.23443260803E+00  0.24760431827E+01  0.10652532088E+02  0.10939021363E+02  0.00000000000E+00 0. -1.
</event>
<event>
 7    1  0.2328615E-009  0.4778727E+02  0.7816164E-02  0.1312668E+00
        -11   -1    0    0    0    0  0.00000000000E+00  0.00000000000E+00  0.45593999997E+02  0.45594000000E+02  0.51100000000E-03 0. -1.
         11   -1    0    0    0    0 -0.00000000000E+00 -0.00000000000E+00 -0.45593999997E+02  0.45594000000E+02  0.51100000000E-03 0.  1.
    9900012    2    1    2    0    0 -0.35691309987E+02 -0.24686989045E+02 -0.55342628518E+00  0.47787270543E+02  0.19999997716E+02 0.  0.
         12    1    1    2    0    0  0.35691309987E+02  0.24686989045E+02  0.55342628518E+00  0.43400729457E+02  0.00000000000E+00 0. -1.
         11    1    3    3    0    0 -0.61437317610E+00 -0.28923934126E+01 -0.61543060933E+00  0.30202895803E+01  0.51100000000E-03 0. -1.
        -11    1    3    3    0    0 -0.21721686832E+02 -0.12022522303E+02  0.84351254683E+01  0.26220680069E+02  0.51100000000E-03 0.  1.
        -12    1    3    3    0    0 -0.13355249979E+02 -0.97720733291E+01 -0.83731211442E+01  0.18546300894E+02  0.00000000000E+00 0.  1.
</event>
<event>
 7    1  0.2328615E-009  0.4778727E+02  0.7816164E-02  0.1312668E+00
        -11   -1    0    0    0    0  0.00000000000E+00  0.00000000000E+00  0.45593999997E+02  0.45594000000E+02  0.51100000000E-03 0.  1.
         11   -1    0    0    0    0 -0.00000000000E+00 -0.00000000000E+00 -0.45593999997E+02  0.45594000000E+02  0.51100000000E-03 0. -1.
    9900012    2    1    2    0    0 -0.40627336830E+02 -0.82281731946E+01 -0.12858473672E+02  0.47787266398E+02  0.19999978817E+02 0.  0.
         12    1    1    2    0    0  0.40627336830E+02  0.82281731946E+01  0.12858473672E+02  0.43400733602E+02  0.00000000000E+00 0. -1.
         11    1    3    3    0    0 -0.18669829889E+02 -0.74303891973E+01 -0.17079543197E+01  0.20166564902E+02  0.51100000000E-03 0. -1.
        -11    1    3    3    0    0  0.12304279127E+01 -0.11472123026E+01  0.37563185980E+00  0.17237019669E+01  0.51100000000E-03 0.  1.
         12    1    3    3    0    0 -0.23187934853E+02  0.34942830530E+00 -0.11526151212E+02  0.25896999530E+02  0.00000000000E+00 0. -1.
</event>
<event>
 7    1  0.2328615E-009  0.4778727E+02  0.7816164E-02  0.1312668E+00
        -11   -1    0    0    0    0  0.00000000000E+00  0.00000000000E+00  0.45593999997E+02  0.45594000000E+02  0.51100000000E-03 0. -1.
         11   -1    0    0    0    0 -0.00000000000E+00 -0.00000000000E+00 -0.45593999997E+02  0.45594000000E+02  0.51100000000E-03 0.  1.
    9900012    2    1    2    0    0  0.22728125456E+02  0.19841619799E+02  0.31198810685E+02  0.47787270154E+02  0.19999995941E+02 0.  0.
         12    1    1    2    0    0 -0.22728125456E+02 -0.19841619799E+02 -0.31198810685E+02  0.43400729846E+02  0.00000000000E+00 0. -1.
         11    1    3    3    0    0 -0.16710157761E+00  0.13631693078E+01  0.56600655640E+01  0.58243021856E+01  0.51100000000E-03 0. -1.
        -11    1    3    3    0    0  0.11054873786E+02  0.32218153266E+01  0.22915220298E+01  0.11740587800E+02  0.51100000000E-03 0.  1.
        -12    1    3    3    0    0  0.11840353248E+02  0.15256635165E+02  0.23247223092E+02  0.30222380168E+02  0.00000000000E+00 0.  1.
</event>
<event>
 7    1  0.2328615E-009  0.4778727E+02  0.7816164E-02  0.1312668E+00
        -11   -1    0    0    0    0  0.00000000000E+00  0.00000000000E+00  0.45593999997E+02  0.45594000000E+02  0.51100000000E-03 0.  1.
         11   -1    0    0    0    0 -0.00000000000E+00 -0.00000000000E+00 -0.45593999997E+02  0.45594000000E+02  0.51100000000E-03 0. -1.
    9900012    2    1    2    0    0  0.13106895562E+02  0.18226560595E+01  0.41334135370E+02  0.47787268058E+02  0.19999986382E+02 0.  0.
         12    1    1    2    0    0 -0.13106895562E+02 -0.18226560595E+01 -0.41334135370E+02  0.43400731942E+02  0.00000000000E+00 0. -1.
         11    1    3    3    0    0  0.48183762605E+01 -0.49007483530E+01  0.23227874889E+02  0.24223299865E+02  0.51100000000E-03 0. -1.
        -11    1    3    3    0    0  0.88206233688E+01  0.64744821655E+00  0.91279785414E+01  0.12709940138E+02  0.51100000000E-03 0.  1.
         12    1    3    3    0    0 -0.53210406709E+00  0.60759561959E+01  0.89782819390E+01  0.10854028055E+02  0.00000000000E+00 0. -1.
</event>
<event>
 7    1  0.2328615E-009  0.4778727E+02  0.7816164E-02  0.1312668E+00
        -11   -1    0    0    0    0  0.00000000000E+00  0.00000000000E+00  0.45593999997E+02  0.45594000000E+02  0.51100000000E-03 0. -1.
         11   -1    0    0    0    0 -0.00000000000E+00 -0.00000000000E+00 -0.45593999997E+02  0.45594000000E+02  0.51100000000E-03 0.  1.
    9900012    2    1    2    0    0  0.39803032688E+02 -0.15851172945E+02 -0.69341114008E+01  0.47787274248E+02  0.20000014606E+02 0.  0.
         12    1    1    2    0    0 -0.39803032688E+02  0.15851172945E+02  0.69341114008E+01  0.43400725752E+02  0.00000000000E+00 0. -1.
         11    1    3    3    0    0  0.27007380630E+01 -0.20928218296E+00  0.91454622707E+00  0.28590523220E+01  0.51100000000E-03 0. -1.
        -11    1    3    3    0    0  0.14552221980E+02 -0.35061454428E+01  0.56263021560E+01  0.15991106798E+02  0.51100000000E-03 0.  1.
         12    1    3    3    0    0  0.22550072645E+02 -0.12135745319E+02 -0.13474959784E+02  0.28937115128E+02  0.00000000000E+00 0. -1.
</event>
<event>
 7    1  0.2328615E-009  0.4778729E+02  0.7816164E-02  0.1312668E+00
        -11   -1    0    0    0    0  0.00000000000E+00  0.00000000000E+00  0.45593999997E+02  0.45594000000E+02  0.51100000000E-03 0.  1.
         11   -1    0    0    0    0 -0.00000000000E+00 -0.00000000000E+00 -0.45593999997E+02  0.45594000000E+02  0.51100000000E-03 0. -1.
    9900012    2    1    2    0    0 -0.80704477791E+01 -0.19129373380E+02  0.38112422395E+02  0.47787288093E+02  0.20000077731E+02 0.  0.
         12    1    1    2    0    0  0.80704477791E+01  0.19129373380E+02 -0.38112422395E+02  0.43400711907E+02  0.00000000000E+00 0. -1.
         11    1    3    3    0    0 -0.39123734432E+01 -0.37768321576E+01  0.53304327674E+01  0.76147646618E+01  0.51100000000E-03 0. -1.
        -11    1    3    3    0    0  0.43900822482E+01 -0.12791920067E+02  0.14494995150E+02  0.19824503166E+02  0.51100000000E-03 0.  1.
        -12    1    3    3    0    0 -0.85481565841E+01 -0.25606211555E+01  0.18286994477E+02  0.20348020265E+02  0.00000000000E+00 0.  1.
</event>
<event>
 7    1  0.2328615E-009  0.4778727E+02  0.7816164E-02  0.1312668E+00
        -11   -1    0    0    0    0  0.00000000000E+00  0.00000000000E+00  0.45593999997E+02  0.45594000000E+02  0.51100000000E-03 0.  1.
         11   -1    0    0    0    0 -0.00000000000E+00 -0.00000000000E+00 -0.45593999997E+02  0.45594000000E+02  0.51100000000E-03 0. -1.
    9900012    2    1    2    0    0 -0.29119495571E+02  0.22094420865E+02  0.23399027497E+02  0.47787274851E+02  0.20000017356E+02 0.  0.
         12    1    1    2    0    0  0.29119495571E+02 -0.22094420865E+02 -0.23399027497E+02  0.43400725149E+02  0.00000000000E+00 0. -1.
         11    1    3    3    0    0 -0.34177886307E+01  0.70435129135E+01  0.88931532238E+01  0.11848228889E+02  0.51100000000E-03 0. -1.
        -11    1    3    3    0    0 -0.80158383117E+01 -0.79234731070E+00  0.79241732377E+01  0.11299292007E+02  0.51100000000E-03 0.  1.
         12    1    3    3    0    0 -0.17685868629E+02  0.15843255262E+02  0.65817010353E+01  0.24639753955E+02  0.00000000000E+00 0. -1.
</event>
<event>
 7    1  0.2328615E-009  0.4778727E+02  0.7816164E-02  0.1312668E+00
        -11   -1    0    0    0    0  0.00000000000E+00  0.00000000000E+00  0.45593999997E+02  0.45594000000E+02  0.51100000000E-03 0.  1.
         11   -1    0    0    0    0 -0.00000000000E+00 -0.00000000000E+00 -0.45593999997E+02  0.45594000000E+02  0.51100000000E-03 0. -1.
    9900012    2    1    2    0    0 -0.18592377109E+02 -0.27643863492E+02  0.27816606490E+02  0.47787271066E+02  0.20000000100E+02 0.  0.
         12    1    1    2    0    0  0.18592377109E+02  0.27643863492E+02 -0.27816606490E+02  0.43400728934E+02  0.00000000000E+00 0. -1.
         11    1    3    3    0    0 -0.36163676364E+01 -0.19379273067E+01 -0.21088462962E+01  0.46131236803E+01  0.51100000000E-03 0. -1.
        -11    1    3    3    0    0 -0.13913521628E+02 -0.17094221580E+02  0.18179751841E+02  0.28570997056E+02  0.51100000000E-03 0.  1.
        -12    1    3    3    0    0 -0.10624878447E+01 -0.86117146055E+01  0.11745700945E+02  0.14603150330E+02  0.00000000000E+00 0.  1.
</event>
<event>
 7    1  0.2328615E-009  0.4778731E+02  0.7816164E-02  0.1312668E+00
        -11   -1    0    0    0    0  0.00000000000E+00  0.00000000000E+00  0.45593999997E+02  0.45594000000E+02  0.51100000000E-03 0.  1.
         11   -1    0    0    0    0 -0.00000000000E+00 -0.00000000000E+00 -0.45593999997E+02  0.45594000000E+02  0.51100000000E-03 0. -1.
    9900012    2    1    2    0    0 -0.32543886754E+02  0.20698464615E+02  0.19901971280E+02  0.47787314944E+02  0.20000200157E+02 0.  0.
         12    1    1    2    0    0  0.32543886754E+02 -0.20698464615E+02 -0.19901971280E+02  0.43400685056E+02  0.00000000000E+00 0. -1.
         11    1    3    3    0    0 -0.58282969974E+01  0.80253572416E+01  0.87336232205E+00  0.99568150908E+01  0.51100000000E-03 0. -1.
        -11    1    3    3    0    0 -0.17701368784E+02  0.14206839923E+02  0.94437187653E+01  0.24583664938E+02  0.51100000000E-03 0.  1.
         12    1    3    3    0    0 -0.90142209728E+01 -0.15337325494E+01  0.95848901924E+01  0.13246834916E+02  0.00000000000E+00 0. -1.
</event>
<event>
 7    1  0.2328615E-009  0.4778727E+02  0.7816164E-02  0.1312668E+00
        -11   -1    0    0    0    0  0.00000000000E+00  0.00000000000E+00  0.45593999997E+02  0.45594000000E+02  0.51100000000E-03 0.  1.
         11   -1    0    0    0    0 -0.00000000000E+00 -0.00000000000E+00 -0.45593999997E+02  0.45594000000E+02  0.51100000000E-03 0. -1.
    9900012    2    1    2    0    0  0.28437715351E+02 -0.11368233483E+02  0.30751956171E+02  0.47787271950E+02  0.20000004128E+02 0.  0.
         12    1    1    2    0    0 -0.28437715351E+02  0.11368233483E+02 -0.30751956171E+02  0.43400728050E+02  0.00000000000E+00 0. -1.
         11    1    3    3    0    0  0.10587286143E+01 -0.28009375651E+01  0.68052747150E+00  0.30707125269E+01  0.51100000000E-03 0. -1.
        -11    1    3    3    0    0  0.15602255929E+02  0.32938586353E+01  0.11082134209E+02  0.19418897849E+02  0.51100000000E-03 0.  1.
        -12    1    3    3    0    0  0.11776730808E+02 -0.11861154553E+02  0.18989294491E+02  0.25297661574E+02  0.00000000000E+00 0.  1.
</event>
<event>
 7    1  0.2328615E-009  0.4778726E+02  0.7816164E-02  0.1312668E+00
        -11   -1    0    0    0    0  0.00000000000E+00  0.00000000000E+00  0.45593999997E+02  0.45594000000E+02  0.51100000000E-03 0.  1.
         11   -1    0    0    0    0 -0.00000000000E+00 -0.00000000000E+00 -0.45593999997E+02  0.45594000000E+02  0.51100000000E-03 0. -1.
    9900012    2    1    2    0    0  0.29864499427E+02  0.16313742040E+02  0.26936921719E+02  0.47787259718E+02  0.19999948356E+02 0.  0.
         12    1    1    2    0    0 -0.29864499427E+02 -0.16313742040E+02 -0.26936921719E+02  0.43400740282E+02  0.00000000000E+00 0. -1.
         11    1    3    3    0    0  0.35604163409E-02 -0.49824614238E+00  0.25109057331E+01  0.25598651833E+01  0.51100000000E-03 0. -1.
        -11    1    3    3    0    0  0.98114609791E+01  0.22700783544E+00  0.14218834302E+02  0.17276907948E+02  0.51100000000E-03 0.  1.
        -12    1    3    3    0    0  0.20049478032E+02  0.16584980347E+02  0.10207181684E+02  0.27950486586E+02  0.00000000000E+00 0.  1.
</event>
<event>
 7    1  0.2328615E-009  0.4778727E+02  0.7816164E-02  0.1312668E+00
        -11   -1    0    0    0    0  0.00000000000E+00  0.00000000000E+00  0.45593999997E+02  0.45594000000E+02  0.51100000000E-03 0. -1.
         11   -1    0    0    0    0 -0.00000000000E+00 -0.00000000000E+00 -0.45593999997E+02  0.45594000000E+02  0.51100000000E-03 0.  1.
    9900012    2    1    2    0    0 -0.38302015788E+02 -0.49975691451E+01 -0.19788964854E+02  0.47787271426E+02  0.20000001741E+02 0.  0.
         12    1    1    2    0    0  0.38302015788E+02  0.49975691451E+01  0.19788964854E+02  0.43400728574E+02  0.00000000000E+00 0. -1.
         11    1    3    3    0    0 -0.72108744543E+01 -0.70415919836E+01 -0.50227746805E+01  0.11260949952E+02  0.51100000000E-03 0. -1.
        -11    1    3    3    0    0 -0.21238884090E+02 -0.43278007376E+01 -0.96140939631E+01  0.23711829528E+02  0.51100000000E-03 0.  1.
         12    1    3    3    0    0 -0.98522572437E+01  0.63718235761E+01 -0.51520962103E+01  0.12814491946E+02  0.00000000000E+00 0. -1.
</event>
<event>
 7    1  0.2328615E-009  0.4778727E+02  0.7816164E-02  0.1312668E+00
        -11   -1    0    0    0    0  0.00000000000E+00  0.00000000000E+00  0.45593999997E+02  0.45594000000E+02  0.51100000000E-03 0.  1.
         11   -1    0    0    0    0 -0.00000000000E+00 -0.00000000000E+00 -0.45593999997E+02  0.45594000000E+02  0.51100000000E-03 0. -1.
    9900012    2    1    2    0    0  0.25435813677E+02  0.14284401812E+01  0.35136904968E+02  0.47787272478E+02  0.20000006534E+02 0.  0.
         12    1    1    2    0    0 -0.25435813677E+02 -0.14284401812E+01 -0.35136904968E+02  0.43400727522E+02  0.00000000000E+00 0. -1.
         11    1    3    3    0    0  0.73190196942E+01 -0.43147493924E+00  0.84128526736E+01  0.11159314955E+02  0.51100000000E-03 0. -1.
        -11    1    3    3    0    0  0.18211512696E+02 -0.42016462783E+01  0.22444332926E+02  0.29207209845E+02  0.51100000000E-03 0.  1.
         12    1    3    3    0    0 -0.94718713558E-01  0.60615613988E+01  0.42797193675E+01  0.74207476773E+01  0.00000000000E+00 0. -1.
</event>
<event>
 7    1  0.2328615E-009  0.4778726E+02  0.7816164E-02  0.1312668E+00
        -11   -1    0    0    0    0  0.00000000000E+00  0.00000000000E+00  0.45593999997E+02  0.45594000000E+02  0.51100000000E-03 0.  1.
         11   -1    0    0    0    0 -0.00000000000E+00 -0.00000000000E+00 -0.45593999997E+02  0.45594000000E+02  0.51100000000E-03 0. -1.
    9900012    2    1    2    0    0  0.51486069582E+01  0.37601629677E+02  0.21053106860E+02  0.47787262490E+02  0.19999960998E+02 0.  0.
         12    1    1    2    0    0 -0.51486069582E+01 -0.37601629677E+02 -0.21053106860E+02  0.43400737510E+02  0.00000000000E+00 0. -1.
         11    1    3    3    0    0  0.32797015778E+01 -0.92497488959E+00  0.11735241632E+01  0.36040505280E+01  0.51100000000E-03 0. -1.
        -11    1    3    3    0    0  0.29899138746E+01  0.46912121005E+01  0.21157886243E+01  0.59517743332E+01  0.51100000000E-03 0.  1.
        -12    1    3    3    0    0 -0.11210084942E+01  0.33835392466E+02  0.17763794072E+02  0.38231437629E+02  0.00000000000E+00 0.  1.
</event>
<event>
 7    1  0.2328615E-009  0.4778728E+02  0.7816164E-02  0.1312668E+00
        -11   -1    0    0    0    0  0.00000000000E+00  0.00000000000E+00  0.45593999997E+02  0.45594000000E+02  0.51100000000E-03 0.  1.
         11   -1    0    0    0    0 -0.00000000000E+00 -0.00000000000E+00 -0.45593999997E+02  0.45594000000E+02  0.51100000000E-03 0. -1.
    9900012    2    1    2    0    0 -0.83472137216E+01  0.42350580953E+02  0.45138820621E+01  0.47787276328E+02  0.20000024091E+02 0.  0.
         12    1    1    2    0    0  0.83472137216E+01 -0.42350580953E+02 -0.45138820621E+01  0.43400723672E+02  0.00000000000E+00 0. -1.
         11    1    3    3    0    0  0.77061216644E-01 -0.40117164720E+00 -0.10205352147E+00  0.42106092670E+00  0.51100000000E-03 0. -1.
        -11    1    3    3    0    0 -0.22652170821E+01  0.23882489481E+02 -0.61776349178E+01  0.24772316922E+02  0.51100000000E-03 0.  1.
        -12    1    3    3    0    0 -0.61590578561E+01  0.18869263119E+02  0.10793570501E+02  0.22593898480E+02  0.00000000000E+00 0.  1.
</event>
<event>
 7    1  0.2328615E-009  0.4778729E+02  0.7816164E-02  0.1312668E+00
        -11   -1    0    0    0    0  0.00000000000E+00  0.00000000000E+00  0.45593999997E+02  0.45594000000E+02  0.51100000000E-03 0. -1.
         11   -1    0    0    0    0 -0.00000000000E+00 -0.00000000000E+00 -0.45593999997E+02  0.45594000000E+02  0.51100000000E-03 0.  1.
    9900012    2    1    2    0    0  0.33504286553E+02 -0.13774522500E+02 -0.23902871753E+02  0.47787286117E+02  0.20000068720E+02 0.  0.
         12    1    1    2    0    0 -0.33504286553E+02  0.13774522500E+02  0.23902871753E+02  0.43400713883E+02  0.00000000000E+00 0. -1.
         11    1    3    3    0    0  0.50446933348E+01 -0.38589046101E+01 -0.11819391770E+02  0.13417827608E+02  0.51100000000E-03 0. -1.
        -11    1    3    3    0    0  0.17770856879E+01  0.25864620719E+00 -0.44673872283E+01  0.48148188243E+01  0.51100000000E-03 0.  1.
         12    1    3    3    0    0  0.26682507530E+02 -0.10174264098E+02 -0.76160927546E+01  0.29554639684E+02  0.00000000000E+00 0. -1.
</event>
<event>
 7    1  0.2328615E-009  0.4778726E+02  0.7816164E-02  0.1312668E+00
        -11   -1    0    0    0    0  0.00000000000E+00  0.00000000000E+00  0.45593999997E+02  0.45594000000E+02  0.51100000000E-03 0.  1.
         11   -1    0    0    0    0 -0.00000000000E+00 -0.00000000000E+00 -0.45593999997E+02  0.45594000000E+02  0.51100000000E-03 0. -1.
    9900012    2    1    2    0    0  0.11849435741E+02  0.41329924892E+02 -0.59205077552E+01  0.47787260017E+02  0.19999949722E+02 0.  0.
         12    1    1    2    0    0 -0.11849435741E+02 -0.41329924892E+02  0.59205077552E+01  0.43400739983E+02  0.00000000000E+00 0. -1.
         11    1    3    3    0    0  0.87745431823E+00  0.15773032544E+02 -0.37785675656E+01  0.16243030961E+02  0.51100000000E-03 0. -1.
        -11    1    3    3    0    0 -0.10539893068E+00  0.15710265863E+02  0.27235661851E+01  0.15944948273E+02  0.51100000000E-03 0.  1.
        -12    1    3    3    0    0  0.11077380354E+02  0.98466264860E+01 -0.48655063748E+01  0.15599280783E+02  0.00000000000E+00 0.  1.
</event>
<event>
 7    1  0.2328615E-009  0.4778728E+02  0.7816164E-02  0.1312668E+00
        -11   -1    0    0    0    0  0.00000000000E+00  0.00000000000E+00  0.45593999997E+02  0.45594000000E+02  0.51100000000E-03 0.  1.
         11   -1    0    0    0    0 -0.00000000000E+00 -0.00000000000E+00 -0.45593999997E+02  0.45594000000E+02  0.51100000000E-03 0. -1.
    9900012    2    1    2    0    0 -0.74146168141E+01 -0.42318222563E+02  0.61493313218E+01  0.47787276745E+02  0.20000025990E+02 0.  0.
         12    1    1    2    0    0  0.74146168141E+01  0.42318222563E+02 -0.61493313218E+01  0.43400723255E+02  0.00000000000E+00 0. -1.
         11    1    3    3    0    0 -0.47769118043E+01 -0.16136679747E+02  0.54044048712E+01  0.17675375864E+02  0.51100000000E-03 0. -1.
        -11    1    3    3    0    0 -0.68901134506E+01 -0.23626679695E+02  0.27440897751E+01  0.24763353685E+02  0.51100000000E-03 0.  1.
         12    1    3    3    0    0  0.42524084408E+01 -0.25548631208E+01 -0.19991633245E+01  0.53485471963E+01  0.00000000000E+00 0. -1.
</event>
<event>
 7    1  0.2328615E-009  0.4778727E+02  0.7816164E-02  0.1312668E+00
        -11   -1    0    0    0    0  0.00000000000E+00  0.00000000000E+00  0.45593999997E+02  0.45594000000E+02  0.51100000000E-03 0. -1.
         11   -1    0    0    0    0 -0.00000000000E+00 -0.00000000000E+00 -0.45593999997E+02  0.45594000000E+02  0.51100000000E-03 0.  1.
    9900012    2    1    2    0    0 -0.19473330315E+02 -0.29822084485E+02 -0.24800325405E+02  0.47787268937E+02  0.19999990392E+02 0.  0.
         12    1    1    2    0    0  0.19473330315E+02  0.29822084485E+02  0.24800325405E+02  0.43400731063E+02  0.00000000000E+00 0. -1.
         11    1    3    3    0    0 -0.40993498143E+01 -0.12964922301E+02 -0.65548339437E+01  0.15095023268E+02  0.51100000000E-03 0. -1.
        -11    1    3    3    0    0 -0.94512091995E+01 -0.12627991803E+02 -0.19734823796E+02  0.25263705247E+02  0.51100000000E-03 0.  1.
         12    1    3    3    0    0 -0.59227713010E+01 -0.42291703811E+01  0.14893323346E+01  0.74285404219E+01  0.00000000000E+00 0. -1.
</event>
<event>
 7    1  0.2328615E-009  0.4778727E+02  0.7816164E-02  0.1312668E+00
        -11   -1    0    0    0    0  0.00000000000E+00  0.00000000000E+00  0.45593999997E+02  0.45594000000E+02  0.51100000000E-03 0.  1.
         11   -1    0    0    0    0 -0.00000000000E+00 -0.00000000000E+00 -0.45593999997E+02  0.45594000000E+02  0.51100000000E-03 0. -1.
    9900012    2    1    2    0    0 -0.58796128493E+01  0.32848536888E+02  0.27749355595E+02  0.47787274673E+02  0.20000016544E+02 0.  0.
         12    1    1    2    0    0  0.58796128493E+01 -0.32848536888E+02 -0.27749355595E+02  0.43400725327E+02  0.00000000000E+00 0. -1.
         11    1    3    3    0    0 -0.40094874775E+01  0.14862299247E+02  0.11458268151E+02  0.19189993174E+02  0.51100000000E-03 0. -1.
        -11    1    3    3    0    0 -0.45560554086E+01  0.11185410508E+02  0.15949118027E+01  0.12182561022E+02  0.51100000000E-03 0.  1.
         12    1    3    3    0    0  0.26859300368E+01  0.68008271327E+01  0.14696175642E+02  0.16414720477E+02  0.00000000000E+00 0. -1.
</event>
<event>
 7    1  0.2328615E-009  0.4778727E+02  0.7816164E-02  0.1312668E+00
        -11   -1    0    0    0    0  0.00000000000E+00  0.00000000000E+00  0.45593999997E+02  0.45594000000E+02  0.51100000000E-03 0.  1.
         11   -1    0    0    0    0 -0.00000000000E+00 -0.00000000000E+00 -0.45593999997E+02  0.45594000000E+02  0.51100000000E-03 0. -1.
    9900012    2    1    2    0    0 -0.83472246080E+01 -0.34737286704E+02  0.24642819228E+02  0.47787265147E+02  0.19999973112E+02 0.  0.
         12    1    1    2    0    0  0.83472246080E+01  0.34737286704E+02 -0.24642819228E+02  0.43400734853E+02  0.00000000000E+00 0. -1.
         11    1    3    3    0    0 -0.20662571477E+01 -0.55082930192E+01  0.76872125369E+01  0.96800799291E+01  0.51100000000E-03 0. -1.
        -11    1    3    3    0    0 -0.54739718989E+00 -0.24330322845E+01  0.93384272048E+01  0.96656873890E+01  0.51100000000E-03 0.  1.
         12    1    3    3    0    0 -0.57335702704E+01 -0.26795961401E+02  0.76171794866E+01  0.28441497829E+02  0.00000000000E+00 0. -1.
</event>
<event>
 7    1  0.2328615E-009  0.4778727E+02  0.7816164E-02  0.1312668E+00
        -11   -1    0    0    0    0  0.00000000000E+00  0.00000000000E+00  0.45593999997E+02  0.45594000000E+02  0.51100000000E-03 0. -1.
         11   -1    0    0    0    0 -0.00000000000E+00 -0.00000000000E+00 -0.45593999997E+02  0.45594000000E+02  0.51100000000E-03 0.  1.
    9900012    2    1    2    0    0  0.37371974072E+02 -0.22048665422E+02 -0.90281928237E+00  0.47787272176E+02  0.20000005161E+02 0.  0.
         12    1    1    2    0    0 -0.37371974072E+02  0.22048665422E+02  0.90281928237E+00  0.43400727824E+02  0.00000000000E+00 0. -1.
         11    1    3    3    0    0  0.26099675526E+02 -0.17791986758E+02 -0.69448790173E+00  0.31594780725E+02  0.51100000000E-03 0. -1.
        -11    1    3    3    0    0  0.11893259466E+02 -0.44056656656E+00 -0.17514823272E+01  0.12029605572E+02  0.51100000000E-03 0.  1.
         12    1    3    3    0    0 -0.62096091866E+00 -0.38161120977E+01  0.15431509466E+01  0.41628858798E+01  0.00000000000E+00 0. -1.
</event>
<event>
 7    1  0.2328615E-009  0.4778727E+02  0.7816164E-02  0.1312668E+00
        -11   -1    0    0    0    0  0.00000000000E+00  0.00000000000E+00  0.45593999997E+02  0.45594000000E+02  0.51100000000E-03 0.  1.
         11   -1    0    0    0    0 -0.00000000000E+00 -0.00000000000E+00 -0.45593999997E+02  0.45594000000E+02  0.51100000000E-03 0. -1.
    9900012    2    1    2    0    0 -0.36986824342E+02 -0.14649741761E+02  0.17348866646E+02  0.47787270945E+02  0.19999999546E+02 0.  0.
         12    1    1    2    0    0  0.36986824342E+02  0.14649741761E+02 -0.17348866646E+02  0.43400729055E+02  0.00000000000E+00 0. -1.
         11    1    3    3    0    0 -0.26083149204E+02 -0.39724346730E+01  0.84603131208E+01  0.27707179719E+02  0.51100000000E-03 0. -1.
        -11    1    3    3    0    0 -0.10795671816E+02 -0.94433145623E+01  0.10693761145E+02  0.17890758720E+02  0.51100000000E-03 0.  1.
        -12    1    3    3    0    0 -0.10800332275E+00 -0.12339925257E+01 -0.18052076196E+01  0.21893325059E+01  0.00000000000E+00 0.  1.
</event>
<event>
 7    1  0.2328615E-009  0.4778726E+02  0.7816164E-02  0.1312668E+00
        -11   -1    0    0    0    0  0.00000000000E+00  0.00000000000E+00  0.45593999997E+02  0.45594000000E+02  0.51100000000E-03 0. -1.
         11   -1    0    0    0    0 -0.00000000000E+00 -0.00000000000E+00 -0.45593999997E+02  0.45594000000E+02  0.51100000000E-03 0.  1.
    9900012    2    1    2    0    0  0.40334501972E+02 -0.11090693778E+01 -0.15985064391E+02  0.47787258442E+02  0.19999942539E+02 0.  0.
         12    1    1    2    0    0 -0.40334501972E+02  0.11090693778E+01  0.15985064391E+02  0.43400741558E+02  0.00000000000E+00 0. -1.
         11    1    3    3    0    0  0.13906823442E+02 -0.23592756897E+01 -0.67927562532E+00  0.14121874368E+02  0.51100000000E-03 0. -1.
        -11    1    3    3    0    0  0.23803686459E+02 -0.25549824067E+01 -0.84317635989E+01  0.25381845122E+02  0.51100000000E-03 0.  1.
         12    1    3    3    0    0  0.26239920709E+01  0.38051887186E+01 -0.68740251669E+01  0.82835389519E+01  0.00000000000E+00 0. -1.
</event>
<event>
 7    1  0.2328615E-009  0.4778727E+02  0.7816164E-02  0.1312668E+00
        -11   -1    0    0    0    0  0.00000000000E+00  0.00000000000E+00  0.45593999997E+02  0.45594000000E+02  0.51100000000E-03 0.  1.
         11   -1    0    0    0    0 -0.00000000000E+00 -0.00000000000E+00 -0.45593999997E+02  0.45594000000E+02  0.51100000000E-03 0. -1.
    9900012    2    1    2    0    0 -0.39817540190E+02  0.11599863193E+01  0.17229081891E+02  0.47787270308E+02  0.19999996641E+02 0.  0.
         12    1    1    2    0    0  0.39817540190E+02 -0.11599863193E+01 -0.17229081891E+02  0.43400729692E+02  0.00000000000E+00 0. -1.
         11    1    3    3    0    0 -0.56311793294E+01  0.18414403134E+01  0.17454307387E+01  0.61763752956E+01  0.51100000000E-03 0. -1.
        -11    1    3    3    0    0 -0.29512513425E+02 -0.67136018945E+01  0.15445652311E+02  0.33979833352E+02  0.51100000000E-03 0.  1.
        -12    1    3    3    0    0 -0.46738474352E+01  0.60321479004E+01  0.37998840609E-01  0.76310616596E+01  0.00000000000E+00 0.  1.
</event>
<event>
 7    1  0.2328615E-009  0.4778727E+02  0.7816164E-02  0.1312668E+00
        -11   -1    0    0    0    0  0.00000000000E+00  0.00000000000E+00  0.45593999997E+02  0.45594000000E+02  0.51100000000E-03 0.  1.
         11   -1    0    0    0    0 -0.00000000000E+00 -0.00000000000E+00 -0.45593999997E+02  0.45594000000E+02  0.51100000000E-03 0. -1.
    9900012    2    1    2    0    0  0.14737467318E+02  0.36803923642E+02  0.17660735421E+02  0.47787270582E+02  0.19999997892E+02 0.  0.
         12    1    1    2    0    0 -0.14737467318E+02 -0.36803923642E+02 -0.17660735421E+02  0.43400729418E+02  0.00000000000E+00 0. -1.
         11    1    3    3    0    0  0.13032565803E+01  0.97878476985E+01  0.61569798857E+01  0.11636530490E+02  0.51100000000E-03 0. -1.
        -11    1    3    3    0    0  0.78285683365E+01  0.17919257114E+02  0.15281250666E+02  0.24817390674E+02  0.51100000000E-03 0.  1.
         12    1    3    3    0    0  0.56056424016E+01  0.90968188295E+01 -0.37774951302E+01  0.11333349417E+02  0.00000000000E+00 0. -1.
</event>
<event>
 7    1  0.2328615E-009  0.4778727E+02  0.7816164E-02  0.1312668E+00
        -11   -1    0    0    0    0  0.00000000000E+00  0.00000000000E+00  0.45593999997E+02  0.45594000000E+02  0.51100000000E-03 0. -1.
         11   -1    0    0    0    0 -0.00000000000E+00 -0.00000000000E+00 -0.45593999997E+02  0.45594000000E+02  0.51100000000E-03 0.  1.
    9900012    2    1    2    0    0 -0.42434430942E+02  0.55023798119E+01 -0.72571459253E+01  0.47787270974E+02  0.19999999679E+02 0.  0.
         12    1    1    2    0    0  0.42434430942E+02 -0.55023798119E+01  0.72571459253E+01  0.43400729026E+02  0.00000000000E+00 0. -1.
         11    1    3    3    0    0 -0.95265332481E+01  0.47553033469E+01  0.12220388746E+01  0.10717328255E+02  0.51100000000E-03 0. -1.
        -11    1    3    3    0    0 -0.22457240292E+02 -0.82893561240E+00  0.15156357876E+01  0.22523586035E+02  0.51100000000E-03 0.  1.
        -12    1    3    3    0    0 -0.10450657403E+02  0.15760120774E+01 -0.99948205874E+01  0.14546356684E+02  0.00000000000E+00 0.  1.
</event>
<event>
 7    1  0.2328615E-009  0.4778727E+02  0.7816164E-02  0.1312668E+00
        -11   -1    0    0    0    0  0.00000000000E+00  0.00000000000E+00  0.45593999997E+02  0.45594000000E+02  0.51100000000E-03 0.  1.
         11   -1    0    0    0    0 -0.00000000000E+00 -0.00000000000E+00 -0.45593999997E+02  0.45594000000E+02  0.51100000000E-03 0. -1.
    9900012    2    1    2    0    0 -0.42029801636E+02  0.29412693380E+01 -0.10414801917E+02  0.47787269708E+02  0.19999993907E+02 0.  0.
         12    1    1    2    0    0  0.42029801636E+02 -0.29412693380E+01  0.10414801917E+02  0.43400730292E+02  0.00000000000E+00 0. -1.
         11    1    3    3    0    0 -0.16712284134E+02 -0.18064533970E+01 -0.88044821876E+01  0.18975843109E+02  0.51100000000E-03 0. -1.
        -11    1    3    3    0    0 -0.12299778519E+02 -0.41495655632E+01 -0.22416687492E+00  0.12982823153E+02  0.51100000000E-03 0.  1.
        -12    1    3    3    0    0 -0.13017738984E+02  0.88972882982E+01 -0.13861528544E+01  0.15828603446E+02  0.00000000000E+00 0.  1.
</event>
<event>
 7    1  0.2681095E-009  0.4778728E+02  0.7816164E-02  0.1312668E+00
        -11   -1    0    0    0    0  0.00000000000E+00  0.00000000000E+00  0.45593999997E+02  0.45594000000E+02  0.51100000000E-03 0. -1.
         11   -1    0    0    0    0 -0.00000000000E+00 -0.00000000000E+00 -0.45593999997E+02  0.45594000000E+02  0.51100000000E-03 0.  1.
    9900012    2    1    2    0    0 -0.91344653971E+01  0.40658809811E+02 -0.12126230365E+02  0.47787277239E+02  0.20000028243E+02 0.  0.
         12    1    1    2    0    0  0.91344653971E+01 -0.40658809811E+02  0.12126230365E+02  0.43400722761E+02  0.00000000000E+00 0. -1.
         11    1    3    3    0    0  0.19895182805E+01  0.37354332406E+01 -0.45767411488E+01  0.62336349178E+01  0.51100000000E-03 0. -1.
        -11    1    3    3    0    0 -0.74589094475E+01  0.25549248947E+02 -0.11462717180E+02  0.28979188003E+02  0.51100000000E-03 0.  1.
        -12    1    3    3    0    0 -0.36650742301E+01  0.11374127623E+02  0.39132279637E+01  0.12574454318E+02  0.00000000000E+00 0.  1.
</event>
<event>
 7    1  0.2328615E-009  0.4778728E+02  0.7816164E-02  0.1312668E+00
        -11   -1    0    0    0    0  0.00000000000E+00  0.00000000000E+00  0.45593999997E+02  0.45594000000E+02  0.51100000000E-03 0.  1.
         11   -1    0    0    0    0 -0.00000000000E+00 -0.00000000000E+00 -0.45593999997E+02  0.45594000000E+02  0.51100000000E-03 0. -1.
    9900012    2    1    2    0    0 -0.15513212374E+02  0.40182233045E+02  0.53245361627E+01  0.47787282310E+02  0.20000051365E+02 0.  0.
         12    1    1    2    0    0  0.15513212374E+02 -0.40182233045E+02 -0.53245361627E+01  0.43400717690E+02  0.00000000000E+00 0. -1.
         11    1    3    3    0    0 -0.28873366629E+01  0.16068131805E+02 -0.12532808618E+01  0.16373523930E+02  0.51100000000E-03 0. -1.
        -11    1    3    3    0    0 -0.42717785221E+01  0.20156727617E+02  0.79173417327E+01  0.22073197782E+02  0.51100000000E-03 0.  1.
         12    1    3    3    0    0 -0.83540971890E+01  0.39573736231E+01 -0.13395247082E+01  0.93405605977E+01  0.00000000000E+00 0. -1.
</event>
<event>
 7    1  0.2328615E-009  0.4778725E+02  0.7816164E-02  0.1312668E+00
        -11   -1    0    0    0    0  0.00000000000E+00  0.00000000000E+00  0.45593999997E+02  0.45594000000E+02  0.51100000000E-03 0.  1.
         11   -1    0    0    0    0 -0.00000000000E+00 -0.00000000000E+00 -0.45593999997E+02  0.45594000000E+02  0.51100000000E-03 0. -1.
    9900012    2    1    2    0    0  0.17449728722E+02 -0.58452828518E+01  0.39306039385E+02  0.47787250049E+02  0.19999904275E+02 0.  0.
         12    1    1    2    0    0 -0.17449728722E+02  0.58452828518E+01 -0.39306039385E+02  0.43400749951E+02  0.00000000000E+00 0. -1.
         11    1    3    3    0    0  0.17466279826E+00  0.90603649034E+00  0.63682201723E+01  0.64347212558E+01  0.51100000000E-03 0. -1.
        -11    1    3    3    0    0  0.19473832281E+02 -0.75332378260E+01  0.22660556400E+02  0.30813643609E+02  0.51100000000E-03 0.  1.
        -12    1    3    3    0    0 -0.21987663567E+01  0.78191848385E+00  0.10277262813E+02  0.10538885185E+02  0.00000000000E+00 0.  1.
</event>
<event>
 7    1  0.2328615E-009  0.4778727E+02  0.7816164E-02  0.1312668E+00
        -11   -1    0    0    0    0  0.00000000000E+00  0.00000000000E+00  0.45593999997E+02  0.45594000000E+02  0.51100000000E-03 0. -1.
         11   -1    0    0    0    0 -0.00000000000E+00 -0.00000000000E+00 -0.45593999997E+02  0.45594000000E+02  0.51100000000E-03 0.  1.
    9900012    2    1    2    0    0  0.40395216708E+02  0.64162589944E+00 -0.15856796689E+02  0.47787271690E+02  0.20000002941E+02 0.  0.
         12    1    1    2    0    0 -0.40395216708E+02 -0.64162589944E+00  0.15856796689E+02  0.43400728310E+02  0.00000000000E+00 0. -1.
         11    1    3    3    0    0  0.73416764489E+00  0.13821652121E+01 -0.33282315803E+01  0.36778401974E+01  0.51100000000E-03 0.  1.
        -11    1    3    3    0    0  0.95785137133E+01  0.61515725795E+01 -0.43055943468E+01  0.12170781121E+02  0.51100000000E-03 0. -1.
        -12    1    3    3    0    0  0.30082535349E+02 -0.68921118922E+01 -0.82229707618E+01  0.31938650371E+02  0.00000000000E+00 0.  1.
</event>
<event>
 7    1  0.2328615E-009  0.4778721E+02  0.7816164E-02  0.1312668E+00
        -11   -1    0    0    0    0  0.00000000000E+00  0.00000000000E+00  0.45593999997E+02  0.45594000000E+02  0.51100000000E-03 0. -1.
         11   -1    0    0    0    0 -0.00000000000E+00 -0.00000000000E+00 -0.45593999997E+02  0.45594000000E+02  0.51100000000E-03 0.  1.
    9900012    2    1    2    0    0  0.34104601536E+02  0.73585559186E+01 -0.25813873194E+02  0.47787213828E+02  0.19999739124E+02 0.  0.
         12    1    1    2    0    0 -0.34104601536E+02 -0.73585559186E+01  0.25813873194E+02  0.43400786172E+02  0.00000000000E+00 0. -1.
         11    1    3    3    0    0  0.62629951232E+01  0.56754607661E+00 -0.29067929852E+01  0.69279623398E+01  0.51100000000E-03 0. -1.
        -11    1    3    3    0    0  0.18051905396E+02 -0.46853399338E+01 -0.14213458895E+02  0.23448797683E+02  0.51100000000E-03 0.  1.
         12    1    3    3    0    0  0.97897010161E+01  0.11476349776E+02 -0.86936213136E+01  0.17410453805E+02  0.00000000000E+00 0. -1.
</event>
<event>
 7    1  0.2328615E-009  0.4778727E+02  0.7816164E-02  0.1312668E+00
        -11   -1    0    0    0    0  0.00000000000E+00  0.00000000000E+00  0.45593999997E+02  0.45594000000E+02  0.51100000000E-03 0.  1.
         11   -1    0    0    0    0 -0.00000000000E+00 -0.00000000000E+00 -0.45593999997E+02  0.45594000000E+02  0.51100000000E-03 0. -1.
    9900012    2    1    2    0    0  0.28032278495E+02  0.18695530131E+02  0.27354921230E+02  0.47787271895E+02  0.20000003879E+02 0.  0.
         12    1    1    2    0    0 -0.28032278495E+02 -0.18695530131E+02 -0.27354921230E+02  0.43400728105E+02  0.00000000000E+00 0. -1.
         11    1    3    3    0    0  0.70765199335E-02  0.42605068572E+01 -0.12439098406E+01  0.44383871744E+01  0.51100000000E-03 0. -1.
        -11    1    3    3    0    0  0.15173570708E+01  0.31276922006E+01  0.50579409668E+01  0.61373934261E+01  0.51100000000E-03 0.  1.
        -12    1    3    3    0    0  0.26507844905E+02  0.11307331073E+02  0.23540890104E+02  0.37211491295E+02  0.00000000000E+00 0.  1.
</event>
<event>
 7    1  0.2328615E-009  0.4778727E+02  0.7816164E-02  0.1312668E+00
        -11   -1    0    0    0    0  0.00000000000E+00  0.00000000000E+00  0.45593999997E+02  0.45594000000E+02  0.51100000000E-03 0.  1.
         11   -1    0    0    0    0 -0.00000000000E+00 -0.00000000000E+00 -0.45593999997E+02  0.45594000000E+02  0.51100000000E-03 0. -1.
    9900012    2    1    2    0    0 -0.31860834513E+02  0.37680482663E+01  0.29228621163E+02  0.47787271219E+02  0.20000000797E+02 0.  0.
         12    1    1    2    0    0  0.31860834513E+02 -0.37680482663E+01 -0.29228621163E+02  0.43400728781E+02  0.00000000000E+00 0. -1.
         11    1    3    3    0    0 -0.55803620950E+01  0.63585995430E+00  0.10090162068E+02  0.11547992458E+02  0.51100000000E-03 0. -1.
        -11    1    3    3    0    0 -0.21705359200E+02  0.47945697875E+01  0.21414486032E+02  0.30865688551E+02  0.51100000000E-03 0.  1.
         12    1    3    3    0    0 -0.45751132180E+01 -0.16623814755E+01 -0.22760269372E+01  0.53735902101E+01  0.00000000000E+00 0. -1.
</event>
<event>
 7    1  0.2328615E-009  0.4778728E+02  0.7816164E-02  0.1312668E+00
        -11   -1    0    0    0    0  0.00000000000E+00  0.00000000000E+00  0.45593999997E+02  0.45594000000E+02  0.51100000000E-03 0.  1.
         11   -1    0    0    0    0 -0.00000000000E+00 -0.00000000000E+00 -0.45593999997E+02  0.45594000000E+02  0.51100000000E-03 0. -1.
    9900012    2    1    2    0    0  0.38256097883E+02  0.19690339848E+02 -0.56907222982E+01  0.47787276171E+02  0.20000023375E+02 0.  0.
         12    1    1    2    0    0 -0.38256097883E+02 -0.19690339848E+02  0.56907222982E+01  0.43400723829E+02  0.00000000000E+00 0. -1.
         11    1    3    3    0    0  0.23101262699E+02  0.68365812570E+01  0.46460825089E+01  0.24535551034E+02  0.51100000000E-03 0. -1.
        -11    1    3    3    0    0  0.75529921774E+01  0.26599430395E+01 -0.28764951553E+01  0.85086551490E+01  0.51100000000E-03 0.  1.
         12    1    3    3    0    0  0.76018430066E+01  0.10193815551E+02 -0.74603096517E+01  0.14743069989E+02  0.00000000000E+00 0. -1.
</event>
<event>
 7    1  0.2328615E-009  0.4778727E+02  0.7816164E-02  0.1312668E+00
        -11   -1    0    0    0    0  0.00000000000E+00  0.00000000000E+00  0.45593999997E+02  0.45594000000E+02  0.51100000000E-03 0.  1.
         11   -1    0    0    0    0 -0.00000000000E+00 -0.00000000000E+00 -0.45593999997E+02  0.45594000000E+02  0.51100000000E-03 0. -1.
    9900012    2    1    2    0    0 -0.15731065195E+02  0.40342873709E+02  0.29342240077E+01  0.47787267958E+02  0.19999985926E+02 0.  0.
         12    1    1    2    0    0  0.15731065195E+02 -0.40342873709E+02 -0.29342240077E+01  0.43400732042E+02  0.00000000000E+00 0. -1.
         11    1    3    3    0    0 -0.20912125296E+01  0.42968824972E+01  0.56671479844E+01  0.74130247252E+01  0.51100000000E-03 0. -1.
        -11    1    3    3    0    0  0.12041663951E+01  0.86111489180E+01 -0.29455759109E+01  0.91803224400E+01  0.51100000000E-03 0.  1.
        -12    1    3    3    0    0 -0.14844019060E+02  0.27434842294E+02  0.21265193423E+00  0.31193920792E+02  0.00000000000E+00 0.  1.
</event>
<event>
 7    1  0.2328615E-009  0.4778727E+02  0.7816164E-02  0.1312668E+00
        -11   -1    0    0    0    0  0.00000000000E+00  0.00000000000E+00  0.45593999997E+02  0.45594000000E+02  0.51100000000E-03 0. -1.
         11   -1    0    0    0    0 -0.00000000000E+00 -0.00000000000E+00 -0.45593999997E+02  0.45594000000E+02  0.51100000000E-03 0.  1.
    9900012    2    1    2    0    0 -0.29324344707E+02 -0.20521466261E+02 -0.24547415466E+02  0.47787269867E+02  0.19999994633E+02 0.  0.
         12    1    1    2    0    0  0.29324344707E+02  0.20521466261E+02  0.24547415466E+02  0.43400730133E+02  0.00000000000E+00 0. -1.
         11    1    3    3    0    0  0.63626504525E+00  0.15772177489E+01  0.33856049340E+00  0.17340912618E+01  0.51100000000E-03 0. -1.
        -11    1    3    3    0    0 -0.69709911376E+01 -0.69259599630E+01 -0.15423971630E+01  0.99469909077E+01  0.51100000000E-03 0.  1.
        -12    1    3    3    0    0 -0.22989618614E+02 -0.15172724047E+02 -0.23343578797E+02  0.36106187698E+02  0.00000000000E+00 0.  1.
</event>
<event>
 7    1  0.2328615E-009  0.4778728E+02  0.7816164E-02  0.1312668E+00
        -11   -1    0    0    0    0  0.00000000000E+00  0.00000000000E+00  0.45593999997E+02  0.45594000000E+02  0.51100000000E-03 0.  1.
         11   -1    0    0    0    0 -0.00000000000E+00 -0.00000000000E+00 -0.45593999997E+02  0.45594000000E+02  0.51100000000E-03 0. -1.
    9900012    2    1    2    0    0 -0.22077527957E+02 -0.51497620316E+01  0.37009253401E+02  0.47787284257E+02  0.20000060241E+02 0.  0.
         12    1    1    2    0    0  0.22077527957E+02  0.51497620316E+01 -0.37009253401E+02  0.43400715743E+02  0.00000000000E+00 0. -1.
         11    1    3    3    0    0 -0.97780152042E+01  0.16154015518E+01  0.15532793302E+02  0.18425166798E+02  0.51100000000E-03 0.  1.
        -11    1    3    3    0    0 -0.13947025366E+02 -0.12408077886E+01  0.17230387907E+02  0.22202373482E+02  0.51100000000E-03 0. -1.
         12    1    3    3    0    0  0.16475126130E+01 -0.55243557948E+01  0.42460721924E+01  0.71597439774E+01  0.00000000000E+00 0. -1.
</event>
<event>
 7    1  0.2328615E-009  0.4778727E+02  0.7816164E-02  0.1312668E+00
        -11   -1    0    0    0    0  0.00000000000E+00  0.00000000000E+00  0.45593999997E+02  0.45594000000E+02  0.51100000000E-03 0.  1.
         11   -1    0    0    0    0 -0.00000000000E+00 -0.00000000000E+00 -0.45593999997E+02  0.45594000000E+02  0.51100000000E-03 0. -1.
    9900012    2    1    2    0    0  0.25417154919E+02 -0.26397254278E+02  0.23254607672E+02  0.47787267569E+02  0.19999984154E+02 0.  0.
         12    1    1    2    0    0 -0.25417154919E+02  0.26397254278E+02 -0.23254607672E+02  0.43400732431E+02  0.00000000000E+00 0. -1.
         11    1    3    3    0    0  0.67685301479E+01 -0.11457070577E+02  0.10531433567E+02  0.16970225685E+02  0.51100000000E-03 0. -1.
        -11    1    3    3    0    0  0.16877546703E+02 -0.13102052952E+02  0.15978646841E+02  0.26680189830E+02  0.51100000000E-03 0.  1.
         12    1    3    3    0    0  0.17710780686E+01 -0.18381307489E+01 -0.32554727363E+01  0.41368520534E+01  0.00000000000E+00 0. -1.
</event>
<event>
 7    1  0.2328615E-009  0.4778727E+02  0.7816164E-02  0.1312668E+00
        -11   -1    0    0    0    0  0.00000000000E+00  0.00000000000E+00  0.45593999997E+02  0.45594000000E+02  0.51100000000E-03 0.  1.
         11   -1    0    0    0    0 -0.00000000000E+00 -0.00000000000E+00 -0.45593999997E+02  0.45594000000E+02  0.51100000000E-03 0. -1.
    9900012    2    1    2    0    0  0.32385162301E+02  0.19878041563E+02  0.20968739270E+02  0.47787270741E+02  0.19999998617E+02 0.  0.
         12    1    1    2    0    0 -0.32385162301E+02 -0.19878041563E+02 -0.20968739270E+02  0.43400729259E+02  0.00000000000E+00 0. -1.
         11    1    3    3    0    0  0.14106847523E+02  0.37418415838E+01  0.14577822239E+02  0.20628073758E+02  0.51100000000E-03 0. -1.
        -11    1    3    3    0    0  0.14582862004E+02  0.10229488908E+02  0.86934067940E+01  0.19821140973E+02  0.51100000000E-03 0.  1.
         12    1    3    3    0    0  0.36954527742E+01  0.59067110713E+01 -0.23024897638E+01  0.73380560095E+01  0.00000000000E+00 0. -1.
</event>
<event>
 7    1  0.2328615E-009  0.4778727E+02  0.7816164E-02  0.1312668E+00
        -11   -1    0    0    0    0  0.00000000000E+00  0.00000000000E+00  0.45593999997E+02  0.45594000000E+02  0.51100000000E-03 0. -1.
         11   -1    0    0    0    0 -0.00000000000E+00 -0.00000000000E+00 -0.45593999997E+02  0.45594000000E+02  0.51100000000E-03 0.  1.
    9900012    2    1    2    0    0 -0.41989714489E+02  0.99323360650E+01 -0.46728768823E+01  0.47787271885E+02  0.20000003833E+02 0.  0.
         12    1    1    2    0    0  0.41989714489E+02 -0.99323360650E+01  0.46728768823E+01  0.43400728115E+02  0.00000000000E+00 0. -1.
         11    1    3    3    0    0 -0.62176608756E+00  0.27743795155E+01  0.78874174893E+00  0.29505742782E+01  0.51100000000E-03 0. -1.
        -11    1    3    3    0    0 -0.64473009508E+01 -0.22713814950E+01 -0.53251789730E+01  0.86651252040E+01  0.51100000000E-03 0.  1.
        -12    1    3    3    0    0 -0.34920647450E+02  0.94293380444E+01 -0.13643965822E+00  0.36171572403E+02  0.00000000000E+00 0.  1.
</event>
<event>
 7    1  0.2328615E-009  0.4778728E+02  0.7816164E-02  0.1312668E+00
        -11   -1    0    0    0    0  0.00000000000E+00  0.00000000000E+00  0.45593999997E+02  0.45594000000E+02  0.51100000000E-03 0. -1.
         11   -1    0    0    0    0 -0.00000000000E+00 -0.00000000000E+00 -0.45593999997E+02  0.45594000000E+02  0.51100000000E-03 0.  1.
    9900012    2    1    2    0    0 -0.36980980245E+02  0.31944302811E+01 -0.22490567584E+02  0.47787275179E+02  0.20000018853E+02 0.  0.
         12    1    1    2    0    0  0.36980980245E+02 -0.31944302811E+01  0.22490567584E+02  0.43400724821E+02  0.00000000000E+00 0. -1.
         11    1    3    3    0    0 -0.77315394115E+01 -0.53302489902E+01 -0.58985494467E+01  0.11089686281E+02  0.51100000000E-03 0. -1.
        -11    1    3    3    0    0 -0.11965893739E+02 -0.23256703147E+01 -0.78368803312E+01  0.14491654460E+02  0.51100000000E-03 0.  1.
         12    1    3    3    0    0 -0.17283547094E+02  0.10850349586E+02 -0.87551378057E+01  0.22205934439E+02  0.00000000000E+00 0. -1.
</event>
<event>
 7    1  0.3590680E-009  0.4778729E+02  0.7816164E-02  0.1312668E+00
        -11   -1    0    0    0    0  0.00000000000E+00  0.00000000000E+00  0.45593999997E+02  0.45594000000E+02  0.51100000000E-03 0. -1.
         11   -1    0    0    0    0 -0.00000000000E+00 -0.00000000000E+00 -0.45593999997E+02  0.45594000000E+02  0.51100000000E-03 0.  1.
    9900012    2    1    2    0    0 -0.40697331051E+02 -0.58774438573E+01 -0.13885395643E+02  0.47787293634E+02  0.20000102993E+02 0.  0.
         12    1    1    2    0    0  0.40697331051E+02  0.58774438573E+01  0.13885395643E+02  0.43400706366E+02  0.00000000000E+00 0. -1.
         11    1    3    3    0    0 -0.39622217532E+01  0.11728480328E+00  0.19055780928E+01  0.43982024824E+01  0.51100000000E-03 0. -1.
        -11    1    3    3    0    0 -0.28961175635E+02 -0.10996322842E+02 -0.10344814761E+02  0.32660128642E+02  0.51100000000E-03 0.  1.
        -12    1    3    3    0    0 -0.77739336620E+01  0.50015941819E+01 -0.54461589746E+01  0.10728962509E+02  0.00000000000E+00 0.  1.
</event>
<event>
 7    1  0.2328615E-009  0.4778727E+02  0.7816164E-02  0.1312668E+00
        -11   -1    0    0    0    0  0.00000000000E+00  0.00000000000E+00  0.45593999997E+02  0.45594000000E+02  0.51100000000E-03 0. -1.
         11   -1    0    0    0    0 -0.00000000000E+00 -0.00000000000E+00 -0.45593999997E+02  0.45594000000E+02  0.51100000000E-03 0.  1.
    9900012    2    1    2    0    0  0.16723503855E+01  0.24892872908E+02 -0.35512981764E+02  0.47787265545E+02  0.19999974926E+02 0.  0.
         12    1    1    2    0    0 -0.16723503855E+01 -0.24892872908E+02  0.35512981764E+02  0.43400734455E+02  0.00000000000E+00 0. -1.
         11    1    3    3    0    0  0.13162996607E+01 -0.55507148609E+00  0.11384263789E+01  0.18266811524E+01  0.51100000000E-03 0. -1.
        -11    1    3    3    0    0  0.26791285945E+01  0.68864785114E+01 -0.18388151447E+02  0.19817301285E+02  0.51100000000E-03 0.  1.
        -12    1    3    3    0    0 -0.23230778698E+01  0.18561465883E+02 -0.18263256696E+02  0.26143283107E+02  0.00000000000E+00 0.  1.
</event>
<event>
 7    1  0.2328615E-009  0.4778727E+02  0.7816164E-02  0.1312668E+00
        -11   -1    0    0    0    0  0.00000000000E+00  0.00000000000E+00  0.45593999997E+02  0.45594000000E+02  0.51100000000E-03 0. -1.
         11   -1    0    0    0    0 -0.00000000000E+00 -0.00000000000E+00 -0.45593999997E+02  0.45594000000E+02  0.51100000000E-03 0.  1.
    9900012    2    1    2    0    0  0.16346389820E+02 -0.40140001304E+02 -0.22801588174E+01  0.47787270870E+02  0.19999999204E+02 0.  0.
         12    1    1    2    0    0 -0.16346389820E+02  0.40140001304E+02  0.22801588174E+01  0.43400729130E+02  0.00000000000E+00 0. -1.
         11    1    3    3    0    0  0.89036185872E+00 -0.17757506533E+02 -0.12772564296E+01  0.17825632296E+02  0.51100000000E-03 0. -1.
        -11    1    3    3    0    0 -0.86949543202E+00 -0.75519238162E+01 -0.20738510974E+01  0.78796214546E+01  0.51100000000E-03 0.  1.
         12    1    3    3    0    0  0.16325523394E+02 -0.14830570954E+02  0.10709487096E+01  0.22082017119E+02  0.00000000000E+00 0. -1.
</event>
<event>
 7    1  0.2328615E-009  0.4778727E+02  0.7816164E-02  0.1312668E+00
        -11   -1    0    0    0    0  0.00000000000E+00  0.00000000000E+00  0.45593999997E+02  0.45594000000E+02  0.51100000000E-03 0.  1.
         11   -1    0    0    0    0 -0.00000000000E+00 -0.00000000000E+00 -0.45593999997E+02  0.45594000000E+02  0.51100000000E-03 0. -1.
    9900012    2    1    2    0    0  0.24540245681E+02  0.33971245367E+02  0.11285125800E+02  0.47787271502E+02  0.20000002086E+02 0.  0.
         12    1    1    2    0    0 -0.24540245681E+02 -0.33971245367E+02 -0.11285125800E+02  0.43400728498E+02  0.00000000000E+00 0. -1.
         11    1    3    3    0    0  0.64159936513E+01  0.18971835652E+02  0.10267415223E+02  0.22505895631E+02  0.51100000000E-03 0. -1.
        -11    1    3    3    0    0 -0.93891511702E+00  0.26202565466E+00 -0.57763487371E+00  0.11330848817E+01  0.51100000000E-03 0.  1.
        -12    1    3    3    0    0  0.19063167146E+02  0.14737384061E+02  0.15953454507E+01  0.24148290989E+02  0.00000000000E+00 0.  1.
</event>
<event>
 7    1  0.2328615E-009  0.4778727E+02  0.7816164E-02  0.1312668E+00
        -11   -1    0    0    0    0  0.00000000000E+00  0.00000000000E+00  0.45593999997E+02  0.45594000000E+02  0.51100000000E-03 0.  1.
         11   -1    0    0    0    0 -0.00000000000E+00 -0.00000000000E+00 -0.45593999997E+02  0.45594000000E+02  0.51100000000E-03 0. -1.
    9900012    2    1    2    0    0  0.21691460953E+01 -0.33164416128E+02  0.27911285006E+02  0.47787268180E+02  0.19999986938E+02 0.  0.
         12    1    1    2    0    0 -0.21691460953E+01  0.33164416128E+02 -0.27911285006E+02  0.43400731820E+02  0.00000000000E+00 0. -1.
         11    1    3    3    0    0  0.63996908931E+01 -0.14454017998E+02  0.47008909714E+01  0.16491605623E+02  0.51100000000E-03 0. -1.
        -11    1    3    3    0    0 -0.22304426918E+01 -0.12578907661E+02  0.88140490194E+01  0.15520671793E+02  0.51100000000E-03 0.  1.
        -12    1    3    3    0    0 -0.20001021061E+01 -0.61314904686E+01  0.14396345015E+02  0.15774990764E+02  0.00000000000E+00 0.  1.
</event>
<event>
 7    1  0.2328615E-009  0.4778727E+02  0.7816164E-02  0.1312668E+00
        -11   -1    0    0    0    0  0.00000000000E+00  0.00000000000E+00  0.45593999997E+02  0.45594000000E+02  0.51100000000E-03 0. -1.
         11   -1    0    0    0    0 -0.00000000000E+00 -0.00000000000E+00 -0.45593999997E+02  0.45594000000E+02  0.51100000000E-03 0.  1.
    9900012    2    1    2    0    0  0.29378876900E+00 -0.16182086492E+02 -0.40270049756E+02  0.47787272558E+02  0.20000006903E+02 0.  0.
         12    1    1    2    0    0 -0.29378876900E+00  0.16182086492E+02  0.40270049756E+02  0.43400727442E+02  0.00000000000E+00 0. -1.
         11    1    3    3    0    0 -0.70967225187E+00  0.16017247119E+01 -0.53566498156E+01  0.56358543510E+01  0.51100000000E-03 0. -1.
        -11    1    3    3    0    0  0.69700192861E+01 -0.84271944304E+01 -0.24934982498E+02  0.27227782268E+02  0.51100000000E-03 0.  1.
         12    1    3    3    0    0 -0.59665582653E+01 -0.93566167737E+01 -0.99784174429E+01  0.14923635939E+02  0.00000000000E+00 0. -1.
</event>
<event>
 7    1  0.2328615E-009  0.4778727E+02  0.7816164E-02  0.1312668E+00
        -11   -1    0    0    0    0  0.00000000000E+00  0.00000000000E+00  0.45593999997E+02  0.45594000000E+02  0.51100000000E-03 0.  1.
         11   -1    0    0    0    0 -0.00000000000E+00 -0.00000000000E+00 -0.45593999997E+02  0.45594000000E+02  0.51100000000E-03 0. -1.
    9900012    2    1    2    0    0  0.32746992922E+01 -0.32524002715E+02  0.28549764731E+02  0.47787268736E+02  0.19999989474E+02 0.  0.
         12    1    1    2    0    0 -0.32746992922E+01  0.32524002715E+02 -0.28549764731E+02  0.43400731264E+02  0.00000000000E+00 0. -1.
         11    1    3    3    0    0 -0.18021045163E+01 -0.14955360282E+02  0.63866970484E+01  0.16361548866E+02  0.51100000000E-03 0. -1.
        -11    1    3    3    0    0  0.24074779473E+01 -0.18872380281E+02  0.20697602047E+02  0.28113224971E+02  0.51100000000E-03 0.  1.
        -12    1    3    3    0    0  0.26693258612E+01  0.13037378468E+01  0.14654656354E+01  0.33124948989E+01  0.00000000000E+00 0.  1.
</event>
<event>
 7    1  0.2627604E-009  0.4778728E+02  0.7816164E-02  0.1312668E+00
        -11   -1    0    0    0    0  0.00000000000E+00  0.00000000000E+00  0.45593999997E+02  0.45594000000E+02  0.51100000000E-03 0. -1.
         11   -1    0    0    0    0 -0.00000000000E+00 -0.00000000000E+00 -0.45593999997E+02  0.45594000000E+02  0.51100000000E-03 0.  1.
    9900012    2    1    2    0    0 -0.39315133683E+01 -0.36245344330E+02 -0.23546568650E+02  0.47787277908E+02  0.20000031293E+02 0.  0.
         12    1    1    2    0    0  0.39315133683E+01  0.36245344330E+02  0.23546568650E+02  0.43400722092E+02  0.00000000000E+00 0. -1.
         11    1    3    3    0    0  0.30396990829E+01 -0.77347742720E+01 -0.79979336331E+00  0.83490222924E+01  0.51100000000E-03 0. -1.
        -11    1    3    3    0    0  0.12753336055E+01  0.86413399212E+00 -0.20755506278E+01  0.25847851035E+01  0.51100000000E-03 0.  1.
        -12    1    3    3    0    0 -0.82465460567E+01 -0.29374704050E+02 -0.20671224659E+02  0.36853470512E+02  0.00000000000E+00 0.  1.
</event>
<event>
 7    1  0.2328615E-009  0.4778727E+02  0.7816164E-02  0.1312668E+00
        -11   -1    0    0    0    0  0.00000000000E+00  0.00000000000E+00  0.45593999997E+02  0.45594000000E+02  0.51100000000E-03 0.  1.
         11   -1    0    0    0    0 -0.00000000000E+00 -0.00000000000E+00 -0.45593999997E+02  0.45594000000E+02  0.51100000000E-03 0. -1.
    9900012    2    1    2    0    0  0.36282862891E+02 -0.36262770738E+01  0.23537783920E+02  0.47787270780E+02  0.19999998793E+02 0.  0.
         12    1    1    2    0    0 -0.36282862891E+02  0.36262770738E+01 -0.23537783920E+02  0.43400729220E+02  0.00000000000E+00 0. -1.
         11    1    3    3    0    0  0.17556201984E+02 -0.36207480888E+01  0.83156484170E+01  0.19760568152E+02  0.51100000000E-03 0. -1.
        -11    1    3    3    0    0  0.71582247400E+01 -0.10140353639E+01 -0.17723244772E+01  0.74437613786E+01  0.51100000000E-03 0.  1.
        -12    1    3    3    0    0  0.11568436167E+02  0.10085063789E+01  0.16994459980E+02  0.20582941250E+02  0.00000000000E+00 0.  1.
</event>
<event>
 7    1  0.2328615E-009  0.4778727E+02  0.7816164E-02  0.1312668E+00
        -11   -1    0    0    0    0  0.00000000000E+00  0.00000000000E+00  0.45593999997E+02  0.45594000000E+02  0.51100000000E-03 0. -1.
         11   -1    0    0    0    0 -0.00000000000E+00 -0.00000000000E+00 -0.45593999997E+02  0.45594000000E+02  0.51100000000E-03 0.  1.
    9900012    2    1    2    0    0  0.43211263789E+02 -0.40034857662E+01 -0.61832318701E+00  0.47787267977E+02  0.19999986015E+02 0.  0.
         12    1    1    2    0    0 -0.43211263789E+02  0.40034857662E+01  0.61832318701E+00  0.43400732023E+02  0.00000000000E+00 0. -1.
         11    1    3    3    0    0  0.95504399479E+01  0.26877199637E+01 -0.47544999710E+01  0.11001818579E+02  0.51100000000E-03 0. -1.
        -11    1    3    3    0    0  0.21998152285E+02  0.18695992742E+01  0.28587956533E+01  0.22261779314E+02  0.51100000000E-03 0.  1.
         12    1    3    3    0    0  0.11662671557E+02 -0.85608050041E+01  0.12773811307E+01  0.14523670084E+02  0.00000000000E+00 0. -1.
</event>
<event>
 7    1  0.2328615E-009  0.4778728E+02  0.7816164E-02  0.1312668E+00
        -11   -1    0    0    0    0  0.00000000000E+00  0.00000000000E+00  0.45593999997E+02  0.45594000000E+02  0.51100000000E-03 0.  1.
         11   -1    0    0    0    0 -0.00000000000E+00 -0.00000000000E+00 -0.45593999997E+02  0.45594000000E+02  0.51100000000E-03 0. -1.
    9900012    2    1    2    0    0 -0.31920883439E+02  0.20639723807E+02  0.20944724631E+02  0.47787280096E+02  0.20000041269E+02 0.  0.
         12    1    1    2    0    0  0.31920883439E+02 -0.20639723807E+02 -0.20944724631E+02  0.43400719904E+02  0.00000000000E+00 0. -1.
         11    1    3    3    0    0 -0.25663974270E+01  0.62708332660E+01  0.70752283026E+01  0.97963565369E+01  0.51100000000E-03 0. -1.
        -11    1    3    3    0    0 -0.37949917808E+01  0.31913519334E+01 -0.25965002959E+01  0.55971871352E+01  0.51100000000E-03 0.  1.
        -12    1    3    3    0    0 -0.25559494231E+02  0.11177538608E+02  0.16465996624E+02  0.32393736424E+02  0.00000000000E+00 0.  1.
</event>
<event>
 7    1  0.2328615E-009  0.4778727E+02  0.7816164E-02  0.1312668E+00
        -11   -1    0    0    0    0  0.00000000000E+00  0.00000000000E+00  0.45593999997E+02  0.45594000000E+02  0.51100000000E-03 0.  1.
         11   -1    0    0    0    0 -0.00000000000E+00 -0.00000000000E+00 -0.45593999997E+02  0.45594000000E+02  0.51100000000E-03 0. -1.
    9900012    2    1    2    0    0  0.75345865259E+01  0.41893640530E+02 -0.84720767128E+01  0.47787271956E+02  0.20000004155E+02 0.  0.
         12    1    1    2    0    0 -0.75345865259E+01 -0.41893640530E+02  0.84720767128E+01  0.43400728044E+02  0.00000000000E+00 0. -1.
         11    1    3    3    0    0  0.62282086897E+00  0.78008747639E+01 -0.84373249528E+01  0.11507823666E+02  0.51100000000E-03 0. -1.
        -11    1    3    3    0    0  0.14807720679E+01  0.22630667370E+01  0.27660597191E+01  0.38684937126E+01  0.51100000000E-03 0.  1.
         12    1    3    3    0    0  0.54309935890E+01  0.31829699029E+02 -0.28008114792E+01  0.32410954577E+02  0.00000000000E+00 0. -1.
</event>
<event>
 7    1  0.2328615E-009  0.4778727E+02  0.7816164E-02  0.1312668E+00
        -11   -1    0    0    0    0  0.00000000000E+00  0.00000000000E+00  0.45593999997E+02  0.45594000000E+02  0.51100000000E-03 0.  1.
         11   -1    0    0    0    0 -0.00000000000E+00 -0.00000000000E+00 -0.45593999997E+02  0.45594000000E+02  0.51100000000E-03 0. -1.
    9900012    2    1    2    0    0 -0.40107508662E+02 -0.33297979467E+01  0.16245725574E+02  0.47787269536E+02  0.19999993121E+02 0.  0.
         12    1    1    2    0    0  0.40107508662E+02  0.33297979467E+01 -0.16245725574E+02  0.43400730464E+02  0.00000000000E+00 0. -1.
         11    1    3    3    0    0  0.40424023080E-01  0.25470008112E+01  0.46741306736E+01  0.53231893681E+01  0.51100000000E-03 0. -1.
        -11    1    3    3    0    0 -0.38524551845E+01 -0.17209602397E+01  0.21526830599E+01  0.47367879108E+01  0.51100000000E-03 0.  1.
        -12    1    3    3    0    0 -0.36295477500E+02 -0.41558385181E+01  0.94189118402E+01  0.37727292257E+02  0.00000000000E+00 0.  1.
</event>
<event>
 7    1  0.2328615E-009  0.4778727E+02  0.7816164E-02  0.1312668E+00
        -11   -1    0    0    0    0  0.00000000000E+00  0.00000000000E+00  0.45593999997E+02  0.45594000000E+02  0.51100000000E-03 0. -1.
         11   -1    0    0    0    0 -0.00000000000E+00 -0.00000000000E+00 -0.45593999997E+02  0.45594000000E+02  0.51100000000E-03 0.  1.
    9900012    2    1    2    0    0 -0.12913290788E+02  0.15894560657E+02 -0.38265296246E+02  0.47787273805E+02  0.20000012588E+02 0.  0.
         12    1    1    2    0    0  0.12913290788E+02 -0.15894560657E+02  0.38265296246E+02  0.43400726195E+02  0.00000000000E+00 0. -1.
         11    1    3    3    0    0 -0.69653942426E+01  0.94239795321E+01 -0.20682044567E+02  0.23771307809E+02  0.51100000000E-03 0. -1.
        -11    1    3    3    0    0 -0.65074368664E+01  0.10270360615E+02 -0.11008826890E+02  0.16401869147E+02  0.51100000000E-03 0.  1.
         12    1    3    3    0    0  0.55954032092E+00 -0.37997794909E+01 -0.65744247880E+01  0.76140968501E+01  0.00000000000E+00 0. -1.
</event>
<event>
 7    1  0.2328615E-009  0.4778727E+02  0.7816164E-02  0.1312668E+00
        -11   -1    0    0    0    0  0.00000000000E+00  0.00000000000E+00  0.45593999997E+02  0.45594000000E+02  0.51100000000E-03 0. -1.
         11   -1    0    0    0    0 -0.00000000000E+00 -0.00000000000E+00 -0.45593999997E+02  0.45594000000E+02  0.51100000000E-03 0.  1.
    9900012    2    1    2    0    0 -0.28288379399E+02  0.21604352872E+02 -0.24832289866E+02  0.47787273139E+02  0.20000009551E+02 0.  0.
         12    1    1    2    0    0  0.28288379399E+02 -0.21604352872E+02  0.24832289866E+02  0.43400726861E+02  0.00000000000E+00 0. -1.
         11    1    3    3    0    0 -0.19035373503E+02  0.14796547119E+02 -0.14001529395E+02  0.27880568084E+02  0.51100000000E-03 0. -1.
        -11    1    3    3    0    0 -0.28160572152E+01  0.93605092736E+01 -0.65211869076E+01  0.11750540032E+02  0.51100000000E-03 0.  1.
         12    1    3    3    0    0 -0.64369486814E+01 -0.25527035203E+01 -0.43095735627E+01  0.81561650230E+01  0.00000000000E+00 0. -1.
</event>
<event>
 7    1  0.2328615E-009  0.4778727E+02  0.7816164E-02  0.1312668E+00
        -11   -1    0    0    0    0  0.00000000000E+00  0.00000000000E+00  0.45593999997E+02  0.45594000000E+02  0.51100000000E-03 0.  1.
         11   -1    0    0    0    0 -0.00000000000E+00 -0.00000000000E+00 -0.45593999997E+02  0.45594000000E+02  0.51100000000E-03 0. -1.
    9900012    2    1    2    0    0 -0.89457949574E+01 -0.21753137650E+02  0.36474608780E+02  0.47787270390E+02  0.19999997014E+02 0.  0.
         12    1    1    2    0    0  0.89457949574E+01  0.21753137650E+02 -0.36474608780E+02  0.43400729610E+02  0.00000000000E+00 0. -1.
         11    1    3    3    0    0 -0.99454081427E+01 -0.41848702186E+01  0.75842329710E+01  0.13188816167E+02  0.51100000000E-03 0. -1.
        -11    1    3    3    0    0 -0.31628418215E+01 -0.72906571353E+01  0.12245982324E+02  0.14598675734E+02  0.51100000000E-03 0.  1.
         12    1    3    3    0    0  0.41624550068E+01 -0.10277610296E+02  0.16644393485E+02  0.19999778488E+02  0.00000000000E+00 0. -1.
</event>
<event>
 7    1  0.2328615E-009  0.4778727E+02  0.7816164E-02  0.1312668E+00
        -11   -1    0    0    0    0  0.00000000000E+00  0.00000000000E+00  0.45593999997E+02  0.45594000000E+02  0.51100000000E-03 0.  1.
         11   -1    0    0    0    0 -0.00000000000E+00 -0.00000000000E+00 -0.45593999997E+02  0.45594000000E+02  0.51100000000E-03 0. -1.
    9900012    2    1    2    0    0  0.11112953956E+02  0.47756726221E+01  0.41681152523E+02  0.47787271086E+02  0.20000000188E+02 0.  0.
         12    1    1    2    0    0 -0.11112953956E+02 -0.47756726221E+01 -0.41681152523E+02  0.43400728914E+02  0.00000000000E+00 0. -1.
         11    1    3    3    0    0 -0.37471893332E+00 -0.35784038324E+01  0.63869261312E+01  0.73306353021E+01  0.51100000000E-03 0. -1.
        -11    1    3    3    0    0  0.93663275106E+01  0.11519289896E+02  0.21374555116E+02  0.26024867673E+02  0.51100000000E-03 0.  1.
        -12    1    3    3    0    0  0.21213453784E+01 -0.31652134417E+01  0.13919671277E+02  0.14431768111E+02  0.00000000000E+00 0.  1.
</event>
<event>
 7    1  0.2328615E-009  0.4778727E+02  0.7816164E-02  0.1312668E+00
        -11   -1    0    0    0    0  0.00000000000E+00  0.00000000000E+00  0.45593999997E+02  0.45594000000E+02  0.51100000000E-03 0.  1.
         11   -1    0    0    0    0 -0.00000000000E+00 -0.00000000000E+00 -0.45593999997E+02  0.45594000000E+02  0.51100000000E-03 0. -1.
    9900012    2    1    2    0    0  0.34061091811E+02 -0.24217676686E+02  0.11703414320E+02  0.47787265603E+02  0.19999975191E+02 0.  0.
         12    1    1    2    0    0 -0.34061091811E+02  0.24217676686E+02 -0.11703414320E+02  0.43400734397E+02  0.00000000000E+00 0. -1.
         11    1    3    3    0    0  0.33462340872E+01 -0.24417221347E+01 -0.37518957569E+01  0.55889186415E+01  0.51100000000E-03 0. -1.
        -11    1    3    3    0    0  0.20276829903E+01 -0.29272485806E+01  0.53312762942E+01  0.64111457438E+01  0.51100000000E-03 0.  1.
        -12    1    3    3    0    0  0.28687174734E+02 -0.18848705971E+02  0.10124033783E+02  0.35787201218E+02  0.00000000000E+00 0.  1.
</event>
<event>
 7    1  0.2328615E-009  0.4778721E+02  0.7816164E-02  0.1312668E+00
        -11   -1    0    0    0    0  0.00000000000E+00  0.00000000000E+00  0.45593999997E+02  0.45594000000E+02  0.51100000000E-03 0.  1.
         11   -1    0    0    0    0 -0.00000000000E+00 -0.00000000000E+00 -0.45593999997E+02  0.45594000000E+02  0.51100000000E-03 0. -1.
    9900012    2    1    2    0    0  0.39681796644E+02  0.12459821673E+02  0.12399042926E+02  0.47787211914E+02  0.19999730399E+02 0.  0.
         12    1    1    2    0    0 -0.39681796644E+02 -0.12459821673E+02 -0.12399042926E+02  0.43400788086E+02  0.00000000000E+00 0. -1.
         11    1    3    3    0    0  0.44568822187E+01 -0.10396884524E+00 -0.22054348575E+01  0.49737864655E+01  0.51100000000E-03 0. -1.
        -11    1    3    3    0    0  0.16691551871E+02  0.10892350280E+02  0.13692583387E+01  0.19978139732E+02  0.51100000000E-03 0.  1.
        -12    1    3    3    0    0  0.18533362554E+02  0.16714402388E+01  0.13235219444E+02  0.22835285717E+02  0.00000000000E+00 0.  1.
</event>
<event>
 7    1  0.2328615E-009  0.4778727E+02  0.7816164E-02  0.1312668E+00
        -11   -1    0    0    0    0  0.00000000000E+00  0.00000000000E+00  0.45593999997E+02  0.45594000000E+02  0.51100000000E-03 0. -1.
         11   -1    0    0    0    0 -0.00000000000E+00 -0.00000000000E+00 -0.45593999997E+02  0.45594000000E+02  0.51100000000E-03 0.  1.
    9900012    2    1    2    0    0  0.24432647724E+02 -0.33212070687E+02 -0.13550907102E+02  0.47787274230E+02  0.20000014523E+02 0.  0.
         12    1    1    2    0    0 -0.24432647724E+02  0.33212070687E+02  0.13550907102E+02  0.43400725770E+02  0.00000000000E+00 0. -1.
         11    1    3    3    0    0 -0.74723934244E-01 -0.27543065129E+00  0.21465783612E+01  0.21654663774E+01  0.51100000000E-03 0. -1.
        -11    1    3    3    0    0  0.19079498747E+01 -0.34083253153E+01  0.20591853683E+01  0.44155632508E+01  0.51100000000E-03 0.  1.
        -12    1    3    3    0    0  0.22599421783E+02 -0.29528314720E+02 -0.17756670831E+02  0.41206244602E+02  0.00000000000E+00 0.  1.
</event>
<event>
 7    1  0.2328615E-009  0.4778727E+02  0.7816164E-02  0.1312668E+00
        -11   -1    0    0    0    0  0.00000000000E+00  0.00000000000E+00  0.45593999997E+02  0.45594000000E+02  0.51100000000E-03 0.  1.
         11   -1    0    0    0    0 -0.00000000000E+00 -0.00000000000E+00 -0.45593999997E+02  0.45594000000E+02  0.51100000000E-03 0. -1.
    9900012    2    1    2    0    0 -0.30004177189E+02 -0.21889488043E+02  0.22454908705E+02  0.47787271198E+02  0.20000000699E+02 0.  0.
         12    1    1    2    0    0  0.30004177189E+02  0.21889488043E+02 -0.22454908705E+02  0.43400728802E+02  0.00000000000E+00 0. -1.
         11    1    3    3    0    0 -0.76454644678E+01 -0.41251885923E+01  0.68938613682E-01  0.86876383813E+01  0.51100000000E-03 0.  1.
        -11    1    3    3    0    0 -0.10370012464E+02 -0.91520326457E+01  0.20668887880E+01  0.13984594724E+02  0.51100000000E-03 0. -1.
        -12    1    3    3    0    0 -0.11988700257E+02 -0.86122668050E+01  0.20319081304E+02  0.25115038093E+02  0.00000000000E+00 0.  1.
</event>
<event>
 7    1  0.2328615E-009  0.4778727E+02  0.7816164E-02  0.1312668E+00
        -11   -1    0    0    0    0  0.00000000000E+00  0.00000000000E+00  0.45593999997E+02  0.45594000000E+02  0.51100000000E-03 0. -1.
         11   -1    0    0    0    0 -0.00000000000E+00 -0.00000000000E+00 -0.45593999997E+02  0.45594000000E+02  0.51100000000E-03 0.  1.
    9900012    2    1    2    0    0 -0.42485267257E+02  0.54714886458E+00 -0.88501994788E+01  0.47787270322E+02  0.19999996704E+02 0.  0.
         12    1    1    2    0    0  0.42485267257E+02 -0.54714886458E+00  0.88501994788E+01  0.43400729678E+02  0.00000000000E+00 0. -1.
         11    1    3    3    0    0 -0.14678729708E+02  0.12526159560E+01  0.23616383008E+01  0.14920170519E+02  0.51100000000E-03 0. -1.
        -11    1    3    3    0    0 -0.14514405375E+02 -0.62765820358E+01 -0.24547251868E+01  0.16002784803E+02  0.51100000000E-03 0.  1.
         12    1    3    3    0    0 -0.13292132174E+02  0.55711149444E+01 -0.87571125928E+01  0.16864315000E+02  0.00000000000E+00 0. -1.
</event>
<event>
 7    1  0.2328615E-009  0.4778729E+02  0.7816164E-02  0.1312668E+00
        -11   -1    0    0    0    0  0.00000000000E+00  0.00000000000E+00  0.45593999997E+02  0.45594000000E+02  0.51100000000E-03 0.  1.
         11   -1    0    0    0    0 -0.00000000000E+00 -0.00000000000E+00 -0.45593999997E+02  0.45594000000E+02  0.51100000000E-03 0. -1.
    9900012    2    1    2    0    0  0.34274548374E+02  0.33830267660E+01  0.26408947125E+02  0.47787285437E+02  0.20000065621E+02 0.  0.
         12    1    1    2    0    0 -0.34274548374E+02 -0.33830267660E+01 -0.26408947125E+02  0.43400714563E+02  0.00000000000E+00 0. -1.
         11    1    3    3    0    0  0.79166092282E+01 -0.31531203172E+01  0.59623194133E+01  0.10400198193E+02  0.51100000000E-03 0. -1.
        -11    1    3    3    0    0  0.22586309987E+02 -0.34724491667E+00  0.18749990891E+02  0.29356841392E+02  0.51100000000E-03 0.  1.
         12    1    3    3    0    0  0.37716291588E+01  0.68833919999E+01  0.16966368206E+01  0.80302458516E+01  0.00000000000E+00 0. -1.
</event>
<event>
 7    1  0.2328615E-009  0.4778728E+02  0.7816164E-02  0.1312668E+00
        -11   -1    0    0    0    0  0.00000000000E+00  0.00000000000E+00  0.45593999997E+02  0.45594000000E+02  0.51100000000E-03 0.  1.
         11   -1    0    0    0    0 -0.00000000000E+00 -0.00000000000E+00 -0.45593999997E+02  0.45594000000E+02  0.51100000000E-03 0. -1.
    9900012    2    1    2    0    0  0.37049390401E+02  0.20671729239E+02  0.91457730994E+01  0.47787275531E+02  0.20000020457E+02 0.  0.
         12    1    1    2    0    0 -0.37049390401E+02 -0.20671729239E+02 -0.91457730994E+01  0.43400724469E+02  0.00000000000E+00 0. -1.
         11    1    3    3    0    0  0.37311737169E+01  0.60823704658E+01  0.52510882283E+01  0.88595042543E+01  0.51100000000E-03 0. -1.
        -11    1    3    3    0    0  0.22934278941E+02  0.16113676607E+02  0.46208198861E+01  0.28407458545E+02  0.51100000000E-03 0.  1.
         12    1    3    3    0    0  0.10383937743E+02 -0.15243178332E+01 -0.72613501502E+00  0.10520312732E+02  0.00000000000E+00 0. -1.
</event>
<event>
 7    1  0.2328615E-009  0.4778727E+02  0.7816164E-02  0.1312668E+00
        -11   -1    0    0    0    0  0.00000000000E+00  0.00000000000E+00  0.45593999997E+02  0.45594000000E+02  0.51100000000E-03 0.  1.
         11   -1    0    0    0    0 -0.00000000000E+00 -0.00000000000E+00 -0.45593999997E+02  0.45594000000E+02  0.51100000000E-03 0. -1.
    9900012    2    1    2    0    0  0.26994860334E+01 -0.29679975212E+02  0.31550516470E+02  0.47787271401E+02  0.20000001625E+02 0.  0.
         12    1    1    2    0    0 -0.26994860334E+01  0.29679975212E+02 -0.31550516470E+02  0.43400728599E+02  0.00000000000E+00 0. -1.
         11    1    3    3    0    0 -0.12914346007E+01 -0.73889635162E+01  0.40379503138E+01  0.85187809086E+01  0.51100000000E-03 0. -1.
        -11    1    3    3    0    0  0.19530161192E+01  0.10948256340E+01 -0.89997071544E+00  0.24130608531E+01  0.51100000000E-03 0.  1.
        -12    1    3    3    0    0  0.20379045148E+01 -0.23385837330E+02  0.28412536872E+02  0.36855429639E+02  0.00000000000E+00 0.  1.
</event>
<event>
 7    1  0.2328615E-009  0.4778727E+02  0.7816164E-02  0.1312668E+00
        -11   -1    0    0    0    0  0.00000000000E+00  0.00000000000E+00  0.45593999997E+02  0.45594000000E+02  0.51100000000E-03 0. -1.
         11   -1    0    0    0    0 -0.00000000000E+00 -0.00000000000E+00 -0.45593999997E+02  0.45594000000E+02  0.51100000000E-03 0.  1.
    9900012    2    1    2    0    0  0.41754819021E+02 -0.11223572125E+02 -0.37669483575E+01  0.47787269792E+02  0.19999994288E+02 0.  0.
         12    1    1    2    0    0 -0.41754819021E+02  0.11223572125E+02  0.37669483575E+01  0.43400730208E+02  0.00000000000E+00 0. -1.
         11    1    3    3    0    0  0.60477574380E+01 -0.10814019571E+01  0.22777595054E+01  0.65523269796E+01  0.51100000000E-03 0. -1.
        -11    1    3    3    0    0  0.32748433971E+02 -0.35773741426E+01 -0.77336255005E+01  0.33838831199E+02  0.51100000000E-03 0.  1.
        -12    1    3    3    0    0  0.29586276119E+01 -0.65647960253E+01  0.16889176377E+01  0.73961116126E+01  0.00000000000E+00 0.  1.
</event>
<event>
 7    1  0.2328615E-009  0.4778727E+02  0.7816164E-02  0.1312668E+00
        -11   -1    0    0    0    0  0.00000000000E+00  0.00000000000E+00  0.45593999997E+02  0.45594000000E+02  0.51100000000E-03 0.  1.
         11   -1    0    0    0    0 -0.00000000000E+00 -0.00000000000E+00 -0.45593999997E+02  0.45594000000E+02  0.51100000000E-03 0. -1.
    9900012    2    1    2    0    0  0.34888915477E+02  0.20222049658E+02  0.16045412430E+02  0.47787274481E+02  0.20000015669E+02 0.  0.
         12    1    1    2    0    0 -0.34888915477E+02 -0.20222049658E+02 -0.16045412430E+02  0.43400725519E+02  0.00000000000E+00 0. -1.
         11    1    3    3    0    0  0.11303978061E+02  0.11361470347E+02  0.45696982171E+01  0.16665685420E+02  0.51100000000E-03 0. -1.
        -11    1    3    3    0    0 -0.53883828251E+00  0.31082313088E+01 -0.10669538393E+01  0.33301410361E+01  0.51100000000E-03 0.  1.
        -12    1    3    3    0    0  0.24123775698E+02  0.57523480026E+01  0.12542668052E+02  0.27791448025E+02  0.00000000000E+00 0.  1.
</event>
<event>
 7    1  0.2328615E-009  0.4778726E+02  0.7816164E-02  0.1312668E+00
        -11   -1    0    0    0    0  0.00000000000E+00  0.00000000000E+00  0.45593999997E+02  0.45594000000E+02  0.51100000000E-03 0.  1.
         11   -1    0    0    0    0 -0.00000000000E+00 -0.00000000000E+00 -0.45593999997E+02  0.45594000000E+02  0.51100000000E-03 0. -1.
    9900012    2    1    2    0    0 -0.39407044864E+02 -0.95551719209E+01  0.15472803359E+02  0.47787261076E+02  0.19999954548E+02 0.  0.
         12    1    1    2    0    0  0.39407044864E+02  0.95551719209E+01 -0.15472803359E+02  0.43400738924E+02  0.00000000000E+00 0. -1.
         11    1    3    3    0    0 -0.12429220972E+01  0.24219254673E+01 -0.79413473116E+00  0.28357060040E+01  0.51100000000E-03 0. -1.
        -11    1    3    3    0    0 -0.15463311568E+02 -0.29063898541E+00  0.17081478067E+01  0.15560084989E+02  0.51100000000E-03 0.  1.
        -12    1    3    3    0    0 -0.22700811200E+02 -0.11686458403E+02  0.14558790284E+02  0.29391470083E+02  0.00000000000E+00 0.  1.
</event>
<event>
 7    1  0.2328615E-009  0.4778727E+02  0.7816164E-02  0.1312668E+00
        -11   -1    0    0    0    0  0.00000000000E+00  0.00000000000E+00  0.45593999997E+02  0.45594000000E+02  0.51100000000E-03 0. -1.
         11   -1    0    0    0    0 -0.00000000000E+00 -0.00000000000E+00 -0.45593999997E+02  0.45594000000E+02  0.51100000000E-03 0.  1.
    9900012    2    1    2    0    0  0.15675286212E+02 -0.39079333782E+02 -0.10522089052E+02  0.47787270920E+02  0.19999999434E+02 0.  0.
         12    1    1    2    0    0 -0.15675286212E+02  0.39079333782E+02  0.10522089052E+02  0.43400729080E+02  0.00000000000E+00 0. -1.
         11    1    3    3    0    0  0.11378009079E+02 -0.28461588300E+02 -0.11235405098E+02  0.32645909807E+02  0.51100000000E-03 0.  1.
        -11    1    3    3    0    0  0.62096424320E+01 -0.11380014321E+02  0.12199820962E+01  0.13021241940E+02  0.51100000000E-03 0. -1.
        -12    1    3    3    0    0 -0.19123652993E+01  0.76226883954E+00 -0.50666605010E+00  0.21201191730E+01  0.00000000000E+00 0.  1.
</event>
<event>
 7    1  0.2328615E-009  0.4778727E+02  0.7816164E-02  0.1312668E+00
        -11   -1    0    0    0    0  0.00000000000E+00  0.00000000000E+00  0.45593999997E+02  0.45594000000E+02  0.51100000000E-03 0.  1.
         11   -1    0    0    0    0 -0.00000000000E+00 -0.00000000000E+00 -0.45593999997E+02  0.45594000000E+02  0.51100000000E-03 0. -1.
    9900012    2    1    2    0    0  0.11968621187E+02 -0.40752658074E+02 -0.89216831074E+01  0.47787268870E+02  0.19999990085E+02 0.  0.
         12    1    1    2    0    0 -0.11968621187E+02  0.40752658074E+02  0.89216831074E+01  0.43400731130E+02  0.00000000000E+00 0. -1.
         11    1    3    3    0    0  0.33836020203E+01 -0.35232789630E+01  0.28626337950E+01  0.56618839434E+01  0.51100000000E-03 0. -1.
        -11    1    3    3    0    0  0.11118835531E+02 -0.18877988473E+02 -0.68268976185E+01  0.22948060565E+02  0.51100000000E-03 0.  1.
        -12    1    3    3    0    0 -0.25338163645E+01 -0.18351390638E+02 -0.49574192839E+01  0.19177324361E+02  0.00000000000E+00 0.  1.
</event>
<event>
 7    1  0.2328615E-009  0.4778727E+02  0.7816164E-02  0.1312668E+00
        -11   -1    0    0    0    0  0.00000000000E+00  0.00000000000E+00  0.45593999997E+02  0.45594000000E+02  0.51100000000E-03 0.  1.
         11   -1    0    0    0    0 -0.00000000000E+00 -0.00000000000E+00 -0.45593999997E+02  0.45594000000E+02  0.51100000000E-03 0. -1.
    9900012    2    1    2    0    0  0.37930400006E+01 -0.35951119679E+02  0.24015684593E+02  0.47787271145E+02  0.20000000459E+02 0.  0.
         12    1    1    2    0    0 -0.37930400006E+01  0.35951119679E+02 -0.24015684593E+02  0.43400728855E+02  0.00000000000E+00 0. -1.
         11    1    3    3    0    0  0.30261169131E+01 -0.13404086932E+02  0.51615355024E+01  0.14678841203E+02  0.51100000000E-03 0. -1.
        -11    1    3    3    0    0  0.44245570083E+01 -0.18712040879E+02  0.76122913473E+01  0.20680042514E+02  0.51100000000E-03 0.  1.
         12    1    3    3    0    0 -0.36576339208E+01 -0.38349918680E+01  0.11241857744E+02  0.12428387428E+02  0.00000000000E+00 0. -1.
</event>
<event>
 7    1  0.2328615E-009  0.4778728E+02  0.7816164E-02  0.1312668E+00
        -11   -1    0    0    0    0  0.00000000000E+00  0.00000000000E+00  0.45593999997E+02  0.45594000000E+02  0.51100000000E-03 0.  1.
         11   -1    0    0    0    0 -0.00000000000E+00 -0.00000000000E+00 -0.45593999997E+02  0.45594000000E+02  0.51100000000E-03 0. -1.
    9900012    2    1    2    0    0 -0.47646345867E+01 -0.65570612445E+01  0.42637135681E+02  0.47787284176E+02  0.20000059873E+02 0.  0.
         12    1    1    2    0    0  0.47646345867E+01  0.65570612445E+01 -0.42637135681E+02  0.43400715824E+02  0.00000000000E+00 0. -1.
         11    1    3    3    0    0 -0.18748513357E+01  0.18049238602E+01  0.13694844468E+02  0.13939927652E+02  0.51100000000E-03 0. -1.
        -11    1    3    3    0    0 -0.67392964289E+01  0.12132134221E+01  0.82281980858E+01  0.10704823547E+02  0.51100000000E-03 0.  1.
         12    1    3    3    0    0  0.38495131779E+01 -0.95751985268E+01  0.20714093127E+02  0.23142532978E+02  0.00000000000E+00 0. -1.
</event>
<event>
 7    1  0.2328615E-009  0.4778727E+02  0.7816164E-02  0.1312668E+00
        -11   -1    0    0    0    0  0.00000000000E+00  0.00000000000E+00  0.45593999997E+02  0.45594000000E+02  0.51100000000E-03 0. -1.
         11   -1    0    0    0    0 -0.00000000000E+00 -0.00000000000E+00 -0.45593999997E+02  0.45594000000E+02  0.51100000000E-03 0.  1.
    9900012    2    1    2    0    0  0.11337487271E+02  0.40001454134E+02 -0.12448619154E+02  0.47787273402E+02  0.20000010747E+02 0.  0.
         12    1    1    2    0    0 -0.11337487271E+02 -0.40001454134E+02  0.12448619154E+02  0.43400726598E+02  0.00000000000E+00 0. -1.
         11    1    3    3    0    0  0.91553742077E+01  0.41234270460E+02 -0.10270716527E+02  0.43469225384E+02  0.51100000000E-03 0. -1.
        -11    1    3    3    0    0  0.14009795286E+01  0.64609501584E+00 -0.15539038560E+01  0.21897031452E+01  0.51100000000E-03 0.  1.
         12    1    3    3    0    0  0.78113353420E+00 -0.18789113421E+01 -0.62399877187E+00  0.21283448726E+01  0.00000000000E+00 0. -1.
</event>
<event>
 7    1  0.2328615E-009  0.4778727E+02  0.7816164E-02  0.1312668E+00
        -11   -1    0    0    0    0  0.00000000000E+00  0.00000000000E+00  0.45593999997E+02  0.45594000000E+02  0.51100000000E-03 0. -1.
         11   -1    0    0    0    0 -0.00000000000E+00 -0.00000000000E+00 -0.45593999997E+02  0.45594000000E+02  0.51100000000E-03 0.  1.
    9900012    2    1    2    0    0  0.25894325574E+02  0.34809790310E+02  0.11771621415E+01  0.47787270639E+02  0.19999998152E+02 0.  0.
         12    1    1    2    0    0 -0.25894325574E+02 -0.34809790310E+02 -0.11771621415E+01  0.43400729361E+02  0.00000000000E+00 0. -1.
         11    1    3    3    0    0  0.68225343882E+01  0.53237170262E+01 -0.24147791515E+01  0.89844363800E+01  0.51100000000E-03 0. -1.
        -11    1    3    3    0    0  0.87386823125E+01  0.18693149383E+02 -0.54443453930E+01  0.21341023861E+02  0.51100000000E-03 0.  1.
        -12    1    3    3    0    0  0.10333108873E+02  0.10792923901E+02  0.90362866861E+01  0.17461810398E+02  0.00000000000E+00 0.  1.
</event>
<event>
 7    1  0.2328615E-009  0.4778730E+02  0.7816164E-02  0.1312668E+00
        -11   -1    0    0    0    0  0.00000000000E+00  0.00000000000E+00  0.45593999997E+02  0.45594000000E+02  0.51100000000E-03 0.  1.
         11   -1    0    0    0    0 -0.00000000000E+00 -0.00000000000E+00 -0.45593999997E+02  0.45594000000E+02  0.51100000000E-03 0. -1.
    9900012    2    1    2    0    0 -0.32840437510E+02  0.12490965166E+02  0.25477478108E+02  0.47787303723E+02  0.20000148993E+02 0.  0.
         12    1    1    2    0    0  0.32840437510E+02 -0.12490965166E+02 -0.25477478108E+02  0.43400696277E+02  0.00000000000E+00 0. -1.
         11    1    3    3    0    0  0.62488363859E+00  0.42615536572E+01  0.25099286800E+01  0.49850838884E+01  0.51100000000E-03 0. -1.
        -11    1    3    3    0    0 -0.62740083856E+01 -0.95463454183E+00  0.86512198515E+01  0.10729310952E+02  0.51100000000E-03 0.  1.
         12    1    3    3    0    0 -0.27191312763E+02  0.91840460510E+01  0.14316329576E+02  0.32072908882E+02  0.00000000000E+00 0. -1.
</event>
<event>
 7    1  0.2328615E-009  0.4778727E+02  0.7816164E-02  0.1312668E+00
        -11   -1    0    0    0    0  0.00000000000E+00  0.00000000000E+00  0.45593999997E+02  0.45594000000E+02  0.51100000000E-03 0.  1.
         11   -1    0    0    0    0 -0.00000000000E+00 -0.00000000000E+00 -0.45593999997E+02  0.45594000000E+02  0.51100000000E-03 0. -1.
    9900012    2    1    2    0    0 -0.24772224882E+02 -0.32877337797E+02  0.13749206782E+02  0.47787272433E+02  0.20000006329E+02 0.  0.
         12    1    1    2    0    0  0.24772224882E+02  0.32877337797E+02 -0.13749206782E+02  0.43400727567E+02  0.00000000000E+00 0. -1.
         11    1    3    3    0    0 -0.21023191271E+00 -0.18842826420E+01  0.43482302937E+01  0.47436089089E+01  0.51100000000E-03 0. -1.
        -11    1    3    3    0    0 -0.49548546753E+01 -0.15740538430E+02  0.75106231090E+01  0.18130763764E+02  0.51100000000E-03 0.  1.
        -12    1    3    3    0    0 -0.19607138294E+02 -0.15252516725E+02  0.18903533797E+01  0.24912899759E+02  0.00000000000E+00 0.  1.
</event>
<event>
 7    1  0.2328615E-009  0.4778727E+02  0.7816164E-02  0.1312668E+00
        -11   -1    0    0    0    0  0.00000000000E+00  0.00000000000E+00  0.45593999997E+02  0.45594000000E+02  0.51100000000E-03 0. -1.
         11   -1    0    0    0    0 -0.00000000000E+00 -0.00000000000E+00 -0.45593999997E+02  0.45594000000E+02  0.51100000000E-03 0.  1.
    9900012    2    1    2    0    0  0.65049735140E+01 -0.22391929780E+02 -0.36604780936E+02  0.47787272044E+02  0.20000004560E+02 0.  0.
         12    1    1    2    0    0 -0.65049735140E+01  0.22391929780E+02  0.36604780936E+02  0.43400727956E+02  0.00000000000E+00 0. -1.
         11    1    3    3    0    0  0.54345816541E+01 -0.98620242280E+01 -0.92130574896E+01  0.14549042175E+02  0.51100000000E-03 0. -1.
        -11    1    3    3    0    0  0.63447611415E+01 -0.11070281855E+02 -0.15006307272E+02  0.19697624031E+02  0.51100000000E-03 0.  1.
        -12    1    3    3    0    0 -0.52743692816E+01 -0.14596236973E+01 -0.12385416175E+02  0.13540605838E+02  0.00000000000E+00 0.  1.
</event>
<event>
 7    1  0.2328615E-009  0.4778726E+02  0.7816164E-02  0.1312668E+00
        -11   -1    0    0    0    0  0.00000000000E+00  0.00000000000E+00  0.45593999997E+02  0.45594000000E+02  0.51100000000E-03 0.  1.
         11   -1    0    0    0    0 -0.00000000000E+00 -0.00000000000E+00 -0.45593999997E+02  0.45594000000E+02  0.51100000000E-03 0. -1.
    9900012    2    1    2    0    0 -0.35822355675E+02  0.18923371861E+02  0.15565625578E+02  0.47787264196E+02  0.19999968776E+02 0.  0.
         12    1    1    2    0    0  0.35822355675E+02 -0.18923371861E+02 -0.15565625578E+02  0.43400735804E+02  0.00000000000E+00 0. -1.
         11    1    3    3    0    0 -0.15303321431E+02  0.13655801774E+02  0.46216062738E+01  0.21024552640E+02  0.51100000000E-03 0. -1.
        -11    1    3    3    0    0 -0.18368559785E+02  0.87309308058E+01  0.88571582375E+01  0.22182930231E+02  0.51100000000E-03 0.  1.
         12    1    3    3    0    0 -0.21504744588E+01 -0.34633607195E+01  0.20868610670E+01  0.45797813249E+01  0.00000000000E+00 0. -1.
</event>
<event>
 7    1  0.2328615E-009  0.4778724E+02  0.7816164E-02  0.1312668E+00
        -11   -1    0    0    0    0  0.00000000000E+00  0.00000000000E+00  0.45593999997E+02  0.45594000000E+02  0.51100000000E-03 0.  1.
         11   -1    0    0    0    0 -0.00000000000E+00 -0.00000000000E+00 -0.45593999997E+02  0.45594000000E+02  0.51100000000E-03 0. -1.
    9900012    2    1    2    0    0 -0.28953567608E+02  0.21620573920E+02  0.24038882887E+02  0.47787237515E+02  0.19999847125E+02 0.  0.
         12    1    1    2    0    0  0.28953567608E+02 -0.21620573920E+02 -0.24038882887E+02  0.43400762485E+02  0.00000000000E+00 0. -1.
         11    1    3    3    0    0 -0.35281058852E+01 -0.21122405463E+01 -0.61929766663E-01  0.41125328959E+01  0.51100000000E-03 0. -1.
        -11    1    3    3    0    0 -0.91714954740E+01  0.36822464349E+01  0.10794712842E+02  0.14635610463E+02  0.51100000000E-03 0.  1.
        -12    1    3    3    0    0 -0.16253966249E+02  0.20050568031E+02  0.13306099812E+02  0.29039094156E+02  0.00000000000E+00 0.  1.
</event>
<event>
 7    1  0.2328615E-009  0.4778727E+02  0.7816164E-02  0.1312668E+00
        -11   -1    0    0    0    0  0.00000000000E+00  0.00000000000E+00  0.45593999997E+02  0.45594000000E+02  0.51100000000E-03 0.  1.
         11   -1    0    0    0    0 -0.00000000000E+00 -0.00000000000E+00 -0.45593999997E+02  0.45594000000E+02  0.51100000000E-03 0. -1.
    9900012    2    1    2    0    0 -0.12710622902E+00  0.12908965520E+02  0.41436290536E+02  0.47787265903E+02  0.19999976559E+02 0.  0.
         12    1    1    2    0    0  0.12710622902E+00 -0.12908965520E+02 -0.41436290536E+02  0.43400734097E+02  0.00000000000E+00 0. -1.
         11    1    3    3    0    0 -0.19146360771E+01  0.19852739940E+01  0.19046407537E+01  0.33518354376E+01  0.51100000000E-03 0. -1.
        -11    1    3    3    0    0  0.29031633687E+01  0.85682921193E+01  0.40616929308E+02  0.41612245001E+02  0.51100000000E-03 0.  1.
        -12    1    3    3    0    0 -0.11156335206E+01  0.23553994064E+01 -0.10852795258E+01  0.28231854642E+01  0.00000000000E+00 0.  1.
</event>
<event>
 7    1  0.2328615E-009  0.4778726E+02  0.7816164E-02  0.1312668E+00
        -11   -1    0    0    0    0  0.00000000000E+00  0.00000000000E+00  0.45593999997E+02  0.45594000000E+02  0.51100000000E-03 0. -1.
         11   -1    0    0    0    0 -0.00000000000E+00 -0.00000000000E+00 -0.45593999997E+02  0.45594000000E+02  0.51100000000E-03 0.  1.
    9900012    2    1    2    0    0  0.13857676732E+02  0.41128892510E+02 -0.53442809948E-01  0.47787264296E+02  0.19999969230E+02 0.  0.
         12    1    1    2    0    0 -0.13857676732E+02 -0.41128892510E+02  0.53442809948E-01  0.43400735704E+02  0.00000000000E+00 0. -1.
         11    1    3    3    0    0  0.38082350235E+01  0.57619794405E+01  0.31519473024E+01  0.75919584512E+01  0.51100000000E-03 0. -1.
        -11    1    3    3    0    0  0.82665423876E+01  0.17368449446E+02  0.56628435696E+01  0.20051597362E+02  0.51100000000E-03 0.  1.
         12    1    3    3    0    0  0.17828993209E+01  0.17998463624E+02 -0.88682336819E+01  0.20143708483E+02  0.00000000000E+00 0. -1.
</event>
<event>
 7    1  0.2328615E-009  0.4778727E+02  0.7816164E-02  0.1312668E+00
        -11   -1    0    0    0    0  0.00000000000E+00  0.00000000000E+00  0.45593999997E+02  0.45594000000E+02  0.51100000000E-03 0. -1.
         11   -1    0    0    0    0 -0.00000000000E+00 -0.00000000000E+00 -0.45593999997E+02  0.45594000000E+02  0.51100000000E-03 0.  1.
    9900012    2    1    2    0    0  0.23064810773E+02 -0.10418653350E+02 -0.35257477576E+02  0.47787267763E+02  0.19999985040E+02 0.  0.
         12    1    1    2    0    0 -0.23064810773E+02  0.10418653350E+02  0.35257477576E+02  0.43400732237E+02  0.00000000000E+00 0. -1.
         11    1    3    3    0    0  0.13887909342E+02 -0.81819389692E+01 -0.11080802625E+02  0.19560223370E+02  0.51100000000E-03 0. -1.
        -11    1    3    3    0    0 -0.37567516920E+00 -0.41433578226E+01 -0.37688073752E+01  0.56135955653E+01  0.51100000000E-03 0.  1.
         12    1    3    3    0    0  0.95525766001E+01  0.19066434418E+01 -0.20407867576E+02  0.22613448828E+02  0.00000000000E+00 0. -1.
</event>
<event>
 7    1  0.2328615E-009  0.4778727E+02  0.7816164E-02  0.1312668E+00
        -11   -1    0    0    0    0  0.00000000000E+00  0.00000000000E+00  0.45593999997E+02  0.45594000000E+02  0.51100000000E-03 0.  1.
         11   -1    0    0    0    0 -0.00000000000E+00 -0.00000000000E+00 -0.45593999997E+02  0.45594000000E+02  0.51100000000E-03 0. -1.
    9900012    2    1    2    0    0 -0.21943727658E+02  0.88138732070E+01  0.36392468786E+02  0.47787270412E+02  0.19999997116E+02 0.  0.
         12    1    1    2    0    0  0.21943727658E+02 -0.88138732070E+01 -0.36392468786E+02  0.43400729588E+02  0.00000000000E+00 0. -1.
         11    1    3    3    0    0  0.76405838567E+00 -0.12823171312E+01 -0.57908514038E+00  0.16010816040E+01  0.51100000000E-03 0. -1.
        -11    1    3    3    0    0  0.35165008113E+00 -0.22023214938E+00  0.68978605419E+01  0.69103285230E+01  0.51100000000E-03 0.  1.
         12    1    3    3    0    0 -0.23059436125E+02  0.10316422488E+02  0.30073693385E+02  0.39275860285E+02  0.00000000000E+00 0. -1.
</event>
<event>
 7    1  0.2328615E-009  0.4778727E+02  0.7816164E-02  0.1312668E+00
        -11   -1    0    0    0    0  0.00000000000E+00  0.00000000000E+00  0.45593999997E+02  0.45594000000E+02  0.51100000000E-03 0.  1.
         11   -1    0    0    0    0 -0.00000000000E+00 -0.00000000000E+00 -0.45593999997E+02  0.45594000000E+02  0.51100000000E-03 0. -1.
    9900012    2    1    2    0    0  0.33923859284E+02  0.50658313351E+01  0.26591964785E+02  0.47787268820E+02  0.19999989858E+02 0.  0.
         12    1    1    2    0    0 -0.33923859284E+02 -0.50658313351E+01 -0.26591964785E+02  0.43400731180E+02  0.00000000000E+00 0. -1.
         11    1    3    3    0    0  0.24879660711E+01  0.15365622152E+01 -0.20233072331E+01  0.35559486826E+01  0.51100000000E-03 0. -1.
        -11    1    3    3    0    0  0.15898261466E+02 -0.36462498219E+01  0.16924037561E+02  0.23504742139E+02  0.51100000000E-03 0.  1.
         12    1    3    3    0    0  0.15537631747E+02  0.71755189417E+01  0.11691234458E+02  0.20726577999E+02  0.00000000000E+00 0. -1.
</event>
<event>
 7    1  0.2328615E-009  0.4778727E+02  0.7816164E-02  0.1312668E+00
        -11   -1    0    0    0    0  0.00000000000E+00  0.00000000000E+00  0.45593999997E+02  0.45594000000E+02  0.51100000000E-03 0. -1.
         11   -1    0    0    0    0 -0.00000000000E+00 -0.00000000000E+00 -0.45593999997E+02  0.45594000000E+02  0.51100000000E-03 0.  1.
    9900012    2    1    2    0    0 -0.11409511519E+02  0.40949313276E+02 -0.87521380340E+01  0.47787272690E+02  0.20000007501E+02 0.  0.
         12    1    1    2    0    0  0.11409511519E+02 -0.40949313276E+02  0.87521380340E+01  0.43400727310E+02  0.00000000000E+00 0. -1.
         11    1    3    3    0    0  0.28350772524E+01  0.16414995903E+02 -0.26657950481E+01  0.16869979758E+02  0.51100000000E-03 0. -1.
        -11    1    3    3    0    0 -0.31583974071E+01  0.13206126511E+02  0.87277200279E+00  0.13606578661E+02  0.51100000000E-03 0.  1.
        -12    1    3    3    0    0 -0.11086191364E+02  0.11328190862E+02 -0.69591149887E+01  0.17310714271E+02  0.00000000000E+00 0.  1.
</event>
<event>
 7    1  0.2328615E-009  0.4778727E+02  0.7816164E-02  0.1312668E+00
        -11   -1    0    0    0    0  0.00000000000E+00  0.00000000000E+00  0.45593999997E+02  0.45594000000E+02  0.51100000000E-03 0.  1.
         11   -1    0    0    0    0 -0.00000000000E+00 -0.00000000000E+00 -0.45593999997E+02  0.45594000000E+02  0.51100000000E-03 0. -1.
    9900012    2    1    2    0    0  0.39788680375E+02  0.14018714180E+02  0.10196072532E+02  0.47787270417E+02  0.19999997141E+02 0.  0.
         12    1    1    2    0    0 -0.39788680375E+02 -0.14018714180E+02 -0.10196072532E+02  0.43400729583E+02  0.00000000000E+00 0. -1.
         11    1    3    3    0    0  0.19550221009E+02  0.10058262447E+02  0.14794292892E+01  0.22035618808E+02  0.51100000000E-03 0. -1.
        -11    1    3    3    0    0  0.19315949029E+02  0.13758069351E+01  0.32512236716E+01  0.19635915747E+02  0.51100000000E-03 0.  1.
        -12    1    3    3    0    0  0.92251033699E+00  0.25846447975E+01  0.54654195713E+01  0.61157358627E+01  0.00000000000E+00 0.  1.
</event>
<event>
 7    1  0.2328615E-009  0.4778727E+02  0.7816164E-02  0.1312668E+00
        -11   -1    0    0    0    0  0.00000000000E+00  0.00000000000E+00  0.45593999997E+02  0.45594000000E+02  0.51100000000E-03 0.  1.
         11   -1    0    0    0    0 -0.00000000000E+00 -0.00000000000E+00 -0.45593999997E+02  0.45594000000E+02  0.51100000000E-03 0. -1.
    9900012    2    1    2    0    0 -0.64463874441E+01 -0.41655805551E+02  0.10337363750E+02  0.47787272627E+02  0.20000007216E+02 0.  0.
         12    1    1    2    0    0  0.64463874441E+01  0.41655805551E+02 -0.10337363750E+02  0.43400727373E+02  0.00000000000E+00 0. -1.
         11    1    3    3    0    0  0.41526089302E+01 -0.10053236186E+01  0.68786033647E+00  0.43275846161E+01  0.51100000000E-03 0. -1.
        -11    1    3    3    0    0 -0.63559849295E+00 -0.12432796283E+02  0.27106254087E+01  0.12740718160E+02  0.51100000000E-03 0.  1.
         12    1    3    3    0    0 -0.99633978814E+01 -0.28217685650E+02  0.69388780051E+01  0.30718969851E+02  0.00000000000E+00 0. -1.
</event>
<event>
 7    1  0.2328615E-009  0.4778727E+02  0.7816164E-02  0.1312668E+00
        -11   -1    0    0    0    0  0.00000000000E+00  0.00000000000E+00  0.45593999997E+02  0.45594000000E+02  0.51100000000E-03 0.  1.
         11   -1    0    0    0    0 -0.00000000000E+00 -0.00000000000E+00 -0.45593999997E+02  0.45594000000E+02  0.51100000000E-03 0. -1.
    9900012    2    1    2    0    0 -0.82124118792E+01 -0.70807624390E+00  0.42610771857E+02  0.47787274671E+02  0.20000016536E+02 0.  0.
         12    1    1    2    0    0  0.82124118792E+01  0.70807624390E+00 -0.42610771857E+02  0.43400725329E+02  0.00000000000E+00 0. -1.
         11    1    3    3    0    0 -0.78721465183E+01 -0.22211970919E+01  0.78055789594E+01  0.11306258023E+02  0.51100000000E-03 0. -1.
        -11    1    3    3    0    0 -0.47899246079E+01 -0.19633318352E+01  0.19199778011E+02  0.19885409867E+02  0.51100000000E-03 0.  1.
         12    1    3    3    0    0  0.44496592470E+01  0.34764526832E+01  0.15605414887E+02  0.16595606782E+02  0.00000000000E+00 0. -1.
</event>
<event>
 7    1  0.2328615E-009  0.4778727E+02  0.7816164E-02  0.1312668E+00
        -11   -1    0    0    0    0  0.00000000000E+00  0.00000000000E+00  0.45593999997E+02  0.45594000000E+02  0.51100000000E-03 0.  1.
         11   -1    0    0    0    0 -0.00000000000E+00 -0.00000000000E+00 -0.45593999997E+02  0.45594000000E+02  0.51100000000E-03 0. -1.
    9900012    2    1    2    0    0 -0.57557262085E+01  0.18378440300E+02  0.38893799985E+02  0.47787272710E+02  0.20000007594E+02 0.  0.
         12    1    1    2    0    0  0.57557262085E+01 -0.18378440300E+02 -0.38893799985E+02  0.43400727290E+02  0.00000000000E+00 0. -1.
         11    1    3    3    0    0  0.32362217443E+01  0.24837366073E+01  0.99724276783E+01  0.10774571582E+02  0.51100000000E-03 0. -1.
        -11    1    3    3    0    0  0.32523703077E+01  0.47396827827E+01  0.36915357983E+01  0.68315402589E+01  0.51100000000E-03 0.  1.
        -12    1    3    3    0    0 -0.12244318261E+02  0.11155020910E+02  0.25229836508E+02  0.30181160869E+02  0.00000000000E+00 0.  1.
</event>
<event>
 7    1  0.2328615E-009  0.4778728E+02  0.7816164E-02  0.1312668E+00
        -11   -1    0    0    0    0  0.00000000000E+00  0.00000000000E+00  0.45593999997E+02  0.45594000000E+02  0.51100000000E-03 0.  1.
         11   -1    0    0    0    0 -0.00000000000E+00 -0.00000000000E+00 -0.45593999997E+02  0.45594000000E+02  0.51100000000E-03 0. -1.
    9900012    2    1    2    0    0 -0.93328881669E+01  0.81040293064E+01  0.41603422708E+02  0.47787275656E+02  0.20000021026E+02 0.  0.
         12    1    1    2    0    0  0.93328881669E+01 -0.81040293064E+01 -0.41603422708E+02  0.43400724344E+02  0.00000000000E+00 0. -1.
         11    1    3    3    0    0  0.86396919850E+00 -0.12669054180E+01  0.51932754194E+01  0.54149424704E+01  0.51100000000E-03 0. -1.
        -11    1    3    3    0    0 -0.84439674418E+01  0.81765005358E+01  0.37964647184E+02  0.39742548776E+02  0.51100000000E-03 0.  1.
         12    1    3    3    0    0 -0.17528899236E+01  0.11944341886E+01 -0.15544998952E+01  0.26297844093E+01  0.00000000000E+00 0. -1.
</event>
<event>
 7    1  0.2328615E-009  0.4778728E+02  0.7816164E-02  0.1312668E+00
        -11   -1    0    0    0    0  0.00000000000E+00  0.00000000000E+00  0.45593999997E+02  0.45594000000E+02  0.51100000000E-03 0. -1.
         11   -1    0    0    0    0 -0.00000000000E+00 -0.00000000000E+00 -0.45593999997E+02  0.45594000000E+02  0.51100000000E-03 0.  1.
    9900012    2    1    2    0    0 -0.28021386582E+02 -0.24255937195E+02 -0.22584822180E+02  0.47787276641E+02  0.20000025518E+02 0.  0.
         12    1    1    2    0    0  0.28021386582E+02  0.24255937195E+02  0.22584822180E+02  0.43400723359E+02  0.00000000000E+00 0. -1.
         11    1    3    3    0    0 -0.68150151135E+01 -0.39442017745E+01 -0.10628376217E+02  0.13227378421E+02  0.51100000000E-03 0. -1.
        -11    1    3    3    0    0 -0.69825208938E+01 -0.12098839077E+02 -0.11557397456E+02  0.18130387234E+02  0.51100000000E-03 0.  1.
         12    1    3    3    0    0 -0.14223850575E+02 -0.82128963429E+01 -0.39904850727E+00  0.16429510985E+02  0.00000000000E+00 0. -1.
</event>
<event>
 7    1  0.2328615E-009  0.4778726E+02  0.7816164E-02  0.1312668E+00
        -11   -1    0    0    0    0  0.00000000000E+00  0.00000000000E+00  0.45593999997E+02  0.45594000000E+02  0.51100000000E-03 0.  1.
         11   -1    0    0    0    0 -0.00000000000E+00 -0.00000000000E+00 -0.45593999997E+02  0.45594000000E+02  0.51100000000E-03 0. -1.
    9900012    2    1    2    0    0  0.15677594753E+02 -0.28058397484E+02  0.29164415860E+02  0.47787264993E+02  0.19999972411E+02 0.  0.
         12    1    1    2    0    0 -0.15677594753E+02  0.28058397484E+02 -0.29164415860E+02  0.43400735007E+02  0.00000000000E+00 0. -1.
         11    1    3    3    0    0 -0.32078084401E+01 -0.24187584869E+01  0.21396208895E+01  0.45517475126E+01  0.51100000000E-03 0. -1.
        -11    1    3    3    0    0  0.19323917482E+01 -0.11385726848E+02  0.10403343309E+02  0.15543438037E+02  0.51100000000E-03 0.  1.
         12    1    3    3    0    0  0.16953011445E+02 -0.14253912150E+02  0.16621451662E+02  0.27692079444E+02  0.00000000000E+00 0. -1.
</event>
<event>
 7    1  0.2328615E-009  0.4778727E+02  0.7816164E-02  0.1312668E+00
        -11   -1    0    0    0    0  0.00000000000E+00  0.00000000000E+00  0.45593999997E+02  0.45594000000E+02  0.51100000000E-03 0. -1.
         11   -1    0    0    0    0 -0.00000000000E+00 -0.00000000000E+00 -0.45593999997E+02  0.45594000000E+02  0.51100000000E-03 0.  1.
    9900012    2    1    2    0    0 -0.38599409776E+02 -0.19697015744E+02 -0.23950560619E+01  0.47787272382E+02  0.20000006097E+02 0.  0.
         12    1    1    2    0    0  0.38599409776E+02  0.19697015744E+02  0.23950560619E+01  0.43400727618E+02  0.00000000000E+00 0. -1.
         11    1    3    3    0    0 -0.14528465906E+02 -0.35576246631E+01 -0.36862505535E+01  0.15405241259E+02  0.51100000000E-03 0. -1.
        -11    1    3    3    0    0 -0.13167576321E+02 -0.20227274205E+01  0.48795157922E+01  0.14187535622E+02  0.51100000000E-03 0.  1.
        -12    1    3    3    0    0 -0.10903367549E+02 -0.14116663660E+02 -0.35883213006E+01  0.18194495501E+02  0.00000000000E+00 0.  1.
</event>
<event>
 7    1  0.2328615E-009  0.4778727E+02  0.7816164E-02  0.1312668E+00
        -11   -1    0    0    0    0  0.00000000000E+00  0.00000000000E+00  0.45593999997E+02  0.45594000000E+02  0.51100000000E-03 0.  1.
         11   -1    0    0    0    0 -0.00000000000E+00 -0.00000000000E+00 -0.45593999997E+02  0.45594000000E+02  0.51100000000E-03 0. -1.
    9900012    2    1    2    0    0  0.40242614873E+01 -0.35137481987E+02  0.25155236903E+02  0.47787271152E+02  0.20000000492E+02 0.  0.
         12    1    1    2    0    0 -0.40242614873E+01  0.35137481987E+02 -0.25155236903E+02  0.43400728848E+02  0.00000000000E+00 0. -1.
         11    1    3    3    0    0 -0.78902341183E+00 -0.10187121717E+02 -0.14757607938E+01  0.10323656184E+02  0.51100000000E-03 0. -1.
        -11    1    3    3    0    0  0.36376731614E-01 -0.10117400612E+02  0.65791113808E+01  0.12068464080E+02  0.51100000000E-03 0.  1.
        -12    1    3    3    0    0  0.47769081675E+01 -0.14832959657E+02  0.20051886316E+02  0.25395150889E+02  0.00000000000E+00 0.  1.
</event>
<event>
 7    1  0.2328615E-009  0.4778727E+02  0.7816164E-02  0.1312668E+00
        -11   -1    0    0    0    0  0.00000000000E+00  0.00000000000E+00  0.45593999997E+02  0.45594000000E+02  0.51100000000E-03 0.  1.
         11   -1    0    0    0    0 -0.00000000000E+00 -0.00000000000E+00 -0.45593999997E+02  0.45594000000E+02  0.51100000000E-03 0. -1.
    9900012    2    1    2    0    0  0.17154078800E+02 -0.35569585471E+02  0.18004602258E+02  0.47787268064E+02  0.19999986413E+02 0.  0.
         12    1    1    2    0    0 -0.17154078800E+02  0.35569585471E+02 -0.18004602258E+02  0.43400731936E+02  0.00000000000E+00 0. -1.
         11    1    3    3    0    0  0.54430566581E+01 -0.41399204976E+01 -0.47040711893E+00  0.68547130231E+01  0.51100000000E-03 0. -1.
        -11    1    3    3    0    0  0.10084090724E+02 -0.88888904322E+01  0.10167278807E+02  0.16854519199E+02  0.51100000000E-03 0.  1.
        -12    1    3    3    0    0  0.16269314176E+01 -0.22540774542E+02  0.83077305703E+01  0.24078035842E+02  0.00000000000E+00 0.  1.
</event>
<event>
 7    1  0.2328615E-009  0.4778727E+02  0.7816164E-02  0.1312668E+00
        -11   -1    0    0    0    0  0.00000000000E+00  0.00000000000E+00  0.45593999997E+02  0.45594000000E+02  0.51100000000E-03 0.  1.
         11   -1    0    0    0    0 -0.00000000000E+00 -0.00000000000E+00 -0.45593999997E+02  0.45594000000E+02  0.51100000000E-03 0. -1.
    9900012    2    1    2    0    0  0.10980835898E+02 -0.41353180065E+02  0.72772883420E+01  0.47787272078E+02  0.20000004713E+02 0.  0.
         12    1    1    2    0    0 -0.10980835898E+02  0.41353180065E+02 -0.72772883420E+01  0.43400727922E+02  0.00000000000E+00 0. -1.
         11    1    3    3    0    0 -0.20146390758E+01 -0.15942739915E+02  0.32501829357E+01  0.16394920432E+02  0.51100000000E-03 0. -1.
        -11    1    3    3    0    0  0.45290441975E+01 -0.20505284663E+02  0.54524739306E+00  0.21006576005E+02  0.51100000000E-03 0.  1.
        -12    1    3    3    0    0  0.84664307765E+01 -0.49051554870E+01  0.34818580133E+01  0.10385775641E+02  0.00000000000E+00 0.  1.
</event>
<event>
 7    1  0.2328615E-009  0.4778728E+02  0.7816164E-02  0.1312668E+00
        -11   -1    0    0    0    0  0.00000000000E+00  0.00000000000E+00  0.45593999997E+02  0.45594000000E+02  0.51100000000E-03 0.  1.
         11   -1    0    0    0    0 -0.00000000000E+00 -0.00000000000E+00 -0.45593999997E+02  0.45594000000E+02  0.51100000000E-03 0. -1.
    9900012    2    1    2    0    0 -0.31624588163E+02  0.29780820466E+01  0.29574301389E+02  0.47787275907E+02  0.20000022172E+02 0.  0.
         12    1    1    2    0    0  0.31624588163E+02 -0.29780820466E+01 -0.29574301389E+02  0.43400724093E+02  0.00000000000E+00 0. -1.
         11    1    3    3    0    0 -0.11156731666E+02 -0.61398016742E+01  0.12873037837E+02  0.18107593144E+02  0.51100000000E-03 0. -1.
        -11    1    3    3    0    0 -0.14035837954E+02  0.20068925419E+01  0.13482297666E+02  0.19565395865E+02  0.51100000000E-03 0.  1.
         12    1    3    3    0    0 -0.64320185422E+01  0.71109911789E+01  0.32189658862E+01  0.10114286898E+02  0.00000000000E+00 0. -1.
</event>
<event>
 7    1  0.2328615E-009  0.4778727E+02  0.7816164E-02  0.1312668E+00
        -11   -1    0    0    0    0  0.00000000000E+00  0.00000000000E+00  0.45593999997E+02  0.45594000000E+02  0.51100000000E-03 0. -1.
         11   -1    0    0    0    0 -0.00000000000E+00 -0.00000000000E+00 -0.45593999997E+02  0.45594000000E+02  0.51100000000E-03 0.  1.
    9900012    2    1    2    0    0  0.28325151084E+02  0.10646151655E+02 -0.31112198468E+02  0.47787267029E+02  0.19999981691E+02 0.  0.
         12    1    1    2    0    0 -0.28325151084E+02 -0.10646151655E+02  0.31112198468E+02  0.43400732971E+02  0.00000000000E+00 0. -1.
         11    1    3    3    0    0  0.15818279117E+02  0.78430769863E+01 -0.20788709304E+02  0.27274571410E+02  0.51100000000E-03 0. -1.
        -11    1    3    3    0    0  0.92035052819E+00  0.32484032929E+01 -0.80053010212E+01  0.86881536445E+01  0.51100000000E-03 0.  1.
         12    1    3    3    0    0  0.11586521439E+02 -0.44532862459E+00 -0.23181881425E+01  0.11824541974E+02  0.00000000000E+00 0. -1.
</event>
<event>
 7    1  0.2328615E-009  0.4778727E+02  0.7816164E-02  0.1312668E+00
        -11   -1    0    0    0    0  0.00000000000E+00  0.00000000000E+00  0.45593999997E+02  0.45594000000E+02  0.51100000000E-03 0.  1.
         11   -1    0    0    0    0 -0.00000000000E+00 -0.00000000000E+00 -0.45593999997E+02  0.45594000000E+02  0.51100000000E-03 0. -1.
    9900012    2    1    2    0    0  0.26633121049E+02 -0.51272341442E+01  0.33882319232E+02  0.47787271627E+02  0.20000002656E+02 0.  0.
         12    1    1    2    0    0 -0.26633121049E+02  0.51272341442E+01 -0.33882319232E+02  0.43400728373E+02  0.00000000000E+00 0. -1.
         11    1    3    3    0    0  0.14117905398E+02  0.24538236378E+01  0.20134679916E+02  0.24713191595E+02  0.51100000000E-03 0. -1.
        -11    1    3    3    0    0  0.73243273008E+01  0.57159577767E+00  0.10624343244E+02  0.12917010558E+02  0.51100000000E-03 0.  1.
         12    1    3    3    0    0  0.51908883502E+01 -0.81526535597E+01  0.31232960727E+01  0.10157069473E+02  0.00000000000E+00 0. -1.
</event>
<event>
 7    1  0.2328615E-009  0.4778727E+02  0.7816164E-02  0.1312668E+00
        -11   -1    0    0    0    0  0.00000000000E+00  0.00000000000E+00  0.45593999997E+02  0.45594000000E+02  0.51100000000E-03 0. -1.
         11   -1    0    0    0    0 -0.00000000000E+00 -0.00000000000E+00 -0.45593999997E+02  0.45594000000E+02  0.51100000000E-03 0.  1.
    9900012    2    1    2    0    0 -0.23473761365E+02 -0.20163532364E+02 -0.30430871613E+02  0.47787268933E+02  0.19999990374E+02 0.  0.
         12    1    1    2    0    0  0.23473761365E+02  0.20163532364E+02  0.30430871613E+02  0.43400731067E+02  0.00000000000E+00 0. -1.
         11    1    3    3    0    0 -0.72809121754E+01 -0.57417813496E+01 -0.17276237932E+01  0.94320951758E+01  0.51100000000E-03 0. -1.
        -11    1    3    3    0    0 -0.14383184103E+02 -0.55272829173E+01 -0.12746518249E+02  0.19997514074E+02  0.51100000000E-03 0.  1.
         12    1    3    3    0    0 -0.18096650858E+01 -0.88944680971E+01 -0.15956729571E+02  0.18357659683E+02  0.00000000000E+00 0. -1.
</event>
<event>
 7    1  0.3365510E-009  0.4778728E+02  0.7816164E-02  0.1312668E+00
        -11   -1    0    0    0    0  0.00000000000E+00  0.00000000000E+00  0.45593999997E+02  0.45594000000E+02  0.51100000000E-03 0. -1.
         11   -1    0    0    0    0 -0.00000000000E+00 -0.00000000000E+00 -0.45593999997E+02  0.45594000000E+02  0.51100000000E-03 0.  1.
    9900012    2    1    2    0    0  0.32545904234E+02  0.70489009727E+01 -0.27833427395E+02  0.47787279178E+02  0.20000037083E+02 0.  0.
         12    1    1    2    0    0 -0.32545904234E+02 -0.70489009727E+01  0.27833427395E+02  0.43400720822E+02  0.00000000000E+00 0. -1.
         11    1    3    3    0    0  0.18167252157E+01  0.15423246791E+01  0.19919757960E+01  0.31059980293E+01  0.51100000000E-03 0. -1.
        -11    1    3    3    0    0  0.13698677978E+02 -0.28949968298E+01 -0.98448017739E+01  0.17115925544E+02  0.51100000000E-03 0.  1.
        -12    1    3    3    0    0  0.17030501041E+02  0.84015731234E+01 -0.19980601417E+02  0.27565355605E+02  0.00000000000E+00 0.  1.
</event>
<event>
 7    1  0.2328615E-009  0.4778728E+02  0.7816164E-02  0.1312668E+00
        -11   -1    0    0    0    0  0.00000000000E+00  0.00000000000E+00  0.45593999997E+02  0.45594000000E+02  0.51100000000E-03 0.  1.
         11   -1    0    0    0    0 -0.00000000000E+00 -0.00000000000E+00 -0.45593999997E+02  0.45594000000E+02  0.51100000000E-03 0. -1.
    9900012    2    1    2    0    0 -0.16113365120E+02 -0.23452741472E+02  0.32771192852E+02  0.47787277668E+02  0.20000030199E+02 0.  0.
         12    1    1    2    0    0  0.16113365120E+02  0.23452741472E+02 -0.32771192852E+02  0.43400722332E+02  0.00000000000E+00 0. -1.
         11    1    3    3    0    0 -0.76093387561E+01 -0.49863385752E+01  0.12409142769E+02  0.15386761622E+02  0.51100000000E-03 0. -1.
        -11    1    3    3    0    0 -0.89479355610E+01 -0.13050598989E+02  0.21649851860E+02  0.26816035699E+02  0.51100000000E-03 0.  1.
        -12    1    3    3    0    0  0.44390919677E+00 -0.54158039071E+01 -0.12878017768E+01  0.55844803475E+01  0.00000000000E+00 0.  1.
</event>
<event>
 7    1  0.2328615E-009  0.4778727E+02  0.7816164E-02  0.1312668E+00
        -11   -1    0    0    0    0  0.00000000000E+00  0.00000000000E+00  0.45593999997E+02  0.45594000000E+02  0.51100000000E-03 0. -1.
         11   -1    0    0    0    0 -0.00000000000E+00 -0.00000000000E+00 -0.45593999997E+02  0.45594000000E+02  0.51100000000E-03 0.  1.
    9900012    2    1    2    0    0 -0.28441444108E+02  0.10089423173E+02 -0.31191519892E+02  0.47787272862E+02  0.20000008286E+02 0.  0.
         12    1    1    2    0    0  0.28441444108E+02 -0.10089423173E+02  0.31191519892E+02  0.43400727138E+02  0.00000000000E+00 0. -1.
         11    1    3    3    0    0 -0.25631705125E+01  0.26660639201E+01  0.35792789288E+00  0.37156227661E+01  0.51100000000E-03 0. -1.
        -11    1    3    3    0    0 -0.51480191885E+01 -0.42436140870E+00  0.40556976587E+00  0.51813773522E+01  0.51100000000E-03 0.  1.
        -12    1    3    3    0    0 -0.20730254407E+02  0.78477206621E+01 -0.31955017551E+02  0.38890272744E+02  0.00000000000E+00 0.  1.
</event>
<event>
 7    1  0.2328615E-009  0.4778727E+02  0.7816164E-02  0.1312668E+00
        -11   -1    0    0    0    0  0.00000000000E+00  0.00000000000E+00  0.45593999997E+02  0.45594000000E+02  0.51100000000E-03 0.  1.
         11   -1    0    0    0    0 -0.00000000000E+00 -0.00000000000E+00 -0.45593999997E+02  0.45594000000E+02  0.51100000000E-03 0. -1.
    9900012    2    1    2    0    0  0.59290999623E+01  0.36609428581E+01  0.42837677878E+02  0.47787269880E+02  0.19999994689E+02 0.  0.
         12    1    1    2    0    0 -0.59290999623E+01 -0.36609428581E+01 -0.42837677878E+02  0.43400730120E+02  0.00000000000E+00 0. -1.
         11    1    3    3    0    0  0.94388513894E+01 -0.38916304553E+00  0.35525705898E+02  0.36760293025E+02  0.51100000000E-03 0. -1.
        -11    1    3    3    0    0 -0.34008244418E+01  0.28313185919E+00  0.62345814166E+01  0.71074451271E+01  0.51100000000E-03 0.  1.
         12    1    3    3    0    0 -0.10892698530E+00  0.37669740444E+01  0.10773905636E+01  0.39195317279E+01  0.00000000000E+00 0. -1.
</event>
<event>
 7    1  0.2328615E-009  0.4778729E+02  0.7816164E-02  0.1312668E+00
        -11   -1    0    0    0    0  0.00000000000E+00  0.00000000000E+00  0.45593999997E+02  0.45594000000E+02  0.51100000000E-03 0. -1.
         11   -1    0    0    0    0 -0.00000000000E+00 -0.00000000000E+00 -0.45593999997E+02  0.45594000000E+02  0.51100000000E-03 0.  1.
    9900012    2    1    2    0    0 -0.23800588550E+02 -0.35431972604E+02 -0.78567803497E+01  0.47787289229E+02  0.20000082911E+02 0.  0.
         12    1    1    2    0    0  0.23800588550E+02  0.35431972604E+02  0.78567803497E+01  0.43400710771E+02  0.00000000000E+00 0. -1.
         11    1    3    3    0    0 -0.82644596600E+01 -0.12893262174E+02  0.29007045733E+01  0.15586904447E+02  0.51100000000E-03 0. -1.
        -11    1    3    3    0    0 -0.15330030818E+02 -0.22961656074E+02 -0.70924422271E+01  0.28505266733E+02  0.51100000000E-03 0.  1.
        -12    1    3    3    0    0 -0.20609807226E+00  0.42294564364E+00 -0.36650426959E+01  0.36951180489E+01  0.00000000000E+00 0.  1.
</event>
<event>
 7    1  0.2328615E-009  0.4778727E+02  0.7816164E-02  0.1312668E+00
        -11   -1    0    0    0    0  0.00000000000E+00  0.00000000000E+00  0.45593999997E+02  0.45594000000E+02  0.51100000000E-03 0.  1.
         11   -1    0    0    0    0 -0.00000000000E+00 -0.00000000000E+00 -0.45593999997E+02  0.45594000000E+02  0.51100000000E-03 0. -1.
    9900012    2    1    2    0    0  0.10362763703E+02 -0.18292676639E+02  0.37968599471E+02  0.47787269177E+02  0.19999991486E+02 0.  0.
         12    1    1    2    0    0 -0.10362763703E+02  0.18292676639E+02 -0.37968599471E+02  0.43400730823E+02  0.00000000000E+00 0. -1.
         11    1    3    3    0    0 -0.62765368010E+00 -0.52900682475E+01  0.12655212732E+02  0.13730738536E+02  0.51100000000E-03 0. -1.
        -11    1    3    3    0    0  0.28618701476E+01  0.18252166978E+01  0.12184485151E+02  0.12648454269E+02  0.51100000000E-03 0.  1.
        -12    1    3    3    0    0  0.81285472359E+01 -0.14827825089E+02  0.13128901589E+02  0.21408076372E+02  0.00000000000E+00 0.  1.
</event>
<event>
 7    1  0.2328615E-009  0.4778727E+02  0.7816164E-02  0.1312668E+00
        -11   -1    0    0    0    0  0.00000000000E+00  0.00000000000E+00  0.45593999997E+02  0.45594000000E+02  0.51100000000E-03 0. -1.
         11   -1    0    0    0    0 -0.00000000000E+00 -0.00000000000E+00 -0.45593999997E+02  0.45594000000E+02  0.51100000000E-03 0.  1.
    9900012    2    1    2    0    0  0.20188686882E+02  0.31349561839E+01 -0.38291150685E+02  0.47787271330E+02  0.20000001302E+02 0.  0.
         12    1    1    2    0    0 -0.20188686882E+02 -0.31349561839E+01  0.38291150685E+02  0.43400728670E+02  0.00000000000E+00 0. -1.
         11    1    3    3    0    0  0.82626073665E+00 -0.28085064639E+01 -0.28569100717E+01  0.40905196224E+01  0.51100000000E-03 0. -1.
        -11    1    3    3    0    0  0.46780882075E+01  0.17180963154E+01 -0.24260263255E+02  0.24766847553E+02  0.51100000000E-03 0.  1.
         12    1    3    3    0    0  0.14684337938E+02  0.42253663324E+01 -0.11173977358E+02  0.18929904155E+02  0.00000000000E+00 0. -1.
</event>
<event>
 7    1  0.2328615E-009  0.4778727E+02  0.7816164E-02  0.1312668E+00
        -11   -1    0    0    0    0  0.00000000000E+00  0.00000000000E+00  0.45593999997E+02  0.45594000000E+02  0.51100000000E-03 0. -1.
         11   -1    0    0    0    0 -0.00000000000E+00 -0.00000000000E+00 -0.45593999997E+02  0.45594000000E+02  0.51100000000E-03 0.  1.
    9900012    2    1    2    0    0 -0.13983111275E+02  0.34980820336E+02 -0.21550828721E+02  0.47787269466E+02  0.19999992804E+02 0.  0.
         12    1    1    2    0    0  0.13983111275E+02 -0.34980820336E+02  0.21550828721E+02  0.43400730534E+02  0.00000000000E+00 0. -1.
         11    1    3    3    0    0 -0.13176586479E+01  0.97223735409E+01 -0.62603277455E+01  0.11638405188E+02  0.51100000000E-03 0. -1.
        -11    1    3    3    0    0 -0.56560365233E+01  0.10233842601E+02 -0.15686414273E+02  0.19564914428E+02  0.51100000000E-03 0.  1.
         12    1    3    3    0    0 -0.70094161041E+01  0.15024604194E+02  0.39591329822E+00  0.16583949851E+02  0.00000000000E+00 0. -1.
</event>
<event>
 7    1  0.2328615E-009  0.4778727E+02  0.7816164E-02  0.1312668E+00
        -11   -1    0    0    0    0  0.00000000000E+00  0.00000000000E+00  0.45593999997E+02  0.45594000000E+02  0.51100000000E-03 0. -1.
         11   -1    0    0    0    0 -0.00000000000E+00 -0.00000000000E+00 -0.45593999997E+02  0.45594000000E+02  0.51100000000E-03 0.  1.
    9900012    2    1    2    0    0 -0.36303317552E+01 -0.42533555673E+02 -0.78320321652E+01  0.47787269653E+02  0.19999993656E+02 0.  0.
         12    1    1    2    0    0  0.36303317552E+01  0.42533555673E+02  0.78320321652E+01  0.43400730347E+02  0.00000000000E+00 0. -1.
         11    1    3    3    0    0  0.34499224772E+01 -0.10276147186E+02 -0.41304875792E+01  0.11600090258E+02  0.51100000000E-03 0. -1.
        -11    1    3    3    0    0 -0.30844636806E+01 -0.15642152325E+02 -0.89840343461E+01  0.18300374831E+02  0.51100000000E-03 0.  1.
        -12    1    3    3    0    0 -0.39957905518E+01 -0.16615256162E+02  0.52824897602E+01  0.17886804565E+02  0.00000000000E+00 0.  1.
</event>
<event>
 7    1  0.2328615E-009  0.4778728E+02  0.7816164E-02  0.1312668E+00
        -11   -1    0    0    0    0  0.00000000000E+00  0.00000000000E+00  0.45593999997E+02  0.45594000000E+02  0.51100000000E-03 0.  1.
         11   -1    0    0    0    0 -0.00000000000E+00 -0.00000000000E+00 -0.45593999997E+02  0.45594000000E+02  0.51100000000E-03 0. -1.
    9900012    2    1    2    0    0  0.27582564296E+02  0.22210717220E+01  0.33434889290E+02  0.47787276106E+02  0.20000023076E+02 0.  0.
         12    1    1    2    0    0 -0.27582564296E+02 -0.22210717220E+01 -0.33434889290E+02  0.43400723894E+02  0.00000000000E+00 0. -1.
         11    1    3    3    0    0  0.66626949740E+01 -0.35812069430E+01  0.36375409953E+01  0.83933457119E+01  0.51100000000E-03 0. -1.
        -11    1    3    3    0    0  0.66259065525E+01 -0.17233709312E+01  0.18376423490E+02  0.19610343841E+02  0.51100000000E-03 0.  1.
         12    1    3    3    0    0  0.14293962770E+02  0.75256495962E+01  0.11420924804E+02  0.19783586553E+02  0.00000000000E+00 0. -1.
</event>
<event>
 7    1  0.2328615E-009  0.4778727E+02  0.7816164E-02  0.1312668E+00
        -11   -1    0    0    0    0  0.00000000000E+00  0.00000000000E+00  0.45593999997E+02  0.45594000000E+02  0.51100000000E-03 0.  1.
         11   -1    0    0    0    0 -0.00000000000E+00 -0.00000000000E+00 -0.45593999997E+02  0.45594000000E+02  0.51100000000E-03 0. -1.
    9900012    2    1    2    0    0  0.19497321902E+02  0.37634947675E+02  0.93321383213E+01  0.47787266672E+02  0.19999980062E+02 0.  0.
         12    1    1    2    0    0 -0.19497321902E+02 -0.37634947675E+02 -0.93321383213E+01  0.43400733328E+02  0.00000000000E+00 0. -1.
         11    1    3    3    0    0  0.11043226427E+02  0.18837547022E+02 -0.26786011916E+01  0.21999566640E+02  0.51100000000E-03 0. -1.
        -11    1    3    3    0    0  0.82773746592E+01  0.17765766176E+02  0.72247819951E+01  0.20888629783E+02  0.51100000000E-03 0.  1.
        -12    1    3    3    0    0  0.17672081535E+00  0.10316344761E+01  0.47859575179E+01  0.48990702487E+01  0.00000000000E+00 0.  1.
</event>
<event>
 7    1  0.2328615E-009  0.4778728E+02  0.7816164E-02  0.1312668E+00
        -11   -1    0    0    0    0  0.00000000000E+00  0.00000000000E+00  0.45593999997E+02  0.45594000000E+02  0.51100000000E-03 0.  1.
         11   -1    0    0    0    0 -0.00000000000E+00 -0.00000000000E+00 -0.45593999997E+02  0.45594000000E+02  0.51100000000E-03 0. -1.
    9900012    2    1    2    0    0 -0.32585617324E+02 -0.26374777707E+02  0.11232604066E+02  0.47787277084E+02  0.20000027538E+02 0.  0.
         12    1    1    2    0    0  0.32585617324E+02  0.26374777707E+02 -0.11232604066E+02  0.43400722916E+02  0.00000000000E+00 0. -1.
         11    1    3    3    0    0 -0.12722877211E+02 -0.15344890661E+02  0.59542209652E+01  0.20803605973E+02  0.51100000000E-03 0. -1.
        -11    1    3    3    0    0 -0.17055856104E+02 -0.13270932064E+02  0.73632884821E+01  0.22830634744E+02  0.51100000000E-03 0.  1.
         12    1    3    3    0    0 -0.28068840091E+01  0.22410450179E+01 -0.20849053818E+01  0.41530363668E+01  0.00000000000E+00 0. -1.
</event>
<event>
 7    1  0.2328615E-009  0.4778728E+02  0.7816164E-02  0.1312668E+00
        -11   -1    0    0    0    0  0.00000000000E+00  0.00000000000E+00  0.45593999997E+02  0.45594000000E+02  0.51100000000E-03 0.  1.
         11   -1    0    0    0    0 -0.00000000000E+00 -0.00000000000E+00 -0.45593999997E+02  0.45594000000E+02  0.51100000000E-03 0. -1.
    9900012    2    1    2    0    0 -0.27923148678E+01  0.88229227905E+01  0.42402613017E+02  0.47787279043E+02  0.20000036471E+02 0.  0.
         12    1    1    2    0    0  0.27923148678E+01 -0.88229227905E+01 -0.42402613017E+02  0.43400720957E+02  0.00000000000E+00 0. -1.
         11    1    3    3    0    0  0.58603106387E+00 -0.25613204701E+01  0.76495400714E+01  0.80882172649E+01  0.51100000000E-03 0.  1.
        -11    1    3    3    0    0  0.24616886343E+00 -0.23258629870E+01  0.16091917882E+02  0.16260998097E+02  0.51100000000E-03 0. -1.
         12    1    3    3    0    0 -0.36245147951E+01  0.13710106248E+02  0.18661155064E+02  0.23438063681E+02  0.00000000000E+00 0. -1.
</event>
<event>
 7    1  0.2328615E-009  0.4778728E+02  0.7816164E-02  0.1312668E+00
        -11   -1    0    0    0    0  0.00000000000E+00  0.00000000000E+00  0.45593999997E+02  0.45594000000E+02  0.51100000000E-03 0.  1.
         11   -1    0    0    0    0 -0.00000000000E+00 -0.00000000000E+00 -0.45593999997E+02  0.45594000000E+02  0.51100000000E-03 0. -1.
    9900012    2    1    2    0    0 -0.50520547267E+01  0.21425551992E+00  0.43105147331E+02  0.47787275480E+02  0.20000020225E+02 0.  0.
         12    1    1    2    0    0  0.50520547267E+01 -0.21425551992E+00 -0.43105147331E+02  0.43400724520E+02  0.00000000000E+00 0. -1.
         11    1    3    3    0    0 -0.85014505340E+01  0.51393638688E+01  0.29480316133E+02  0.31109110590E+02  0.51100000000E-03 0. -1.
        -11    1    3    3    0    0  0.34726936633E-01  0.21517524340E+00  0.89085022021E+01  0.89111681665E+01  0.51100000000E-03 0.  1.
         12    1    3    3    0    0  0.34146688707E+01 -0.51402835923E+01  0.47163289963E+01  0.77669967238E+01  0.00000000000E+00 0. -1.
</event>
<event>
 7    1  0.2328615E-009  0.4778727E+02  0.7816164E-02  0.1312668E+00
        -11   -1    0    0    0    0  0.00000000000E+00  0.00000000000E+00  0.45593999997E+02  0.45594000000E+02  0.51100000000E-03 0. -1.
         11   -1    0    0    0    0 -0.00000000000E+00 -0.00000000000E+00 -0.45593999997E+02  0.45594000000E+02  0.51100000000E-03 0.  1.
    9900012    2    1    2    0    0  0.41577233727E+02  0.10126533336E+02  0.72394918995E+01  0.47787270920E+02  0.19999999430E+02 0.  0.
         12    1    1    2    0    0 -0.41577233727E+02 -0.10126533336E+02 -0.72394918995E+01  0.43400729080E+02  0.00000000000E+00 0. -1.
         11    1    3    3    0    0  0.14114663175E+02  0.70391555735E+01  0.87364282361E+01  0.18030491017E+02  0.51100000000E-03 0. -1.
        -11    1    3    3    0    0  0.12844327248E+02  0.16390840905E+01  0.47522039688E+01  0.13792997569E+02  0.51100000000E-03 0.  1.
         12    1    3    3    0    0  0.14618243303E+02  0.14482936720E+01 -0.62491403054E+01  0.15963782333E+02  0.00000000000E+00 0. -1.
</event>
<event>
 7    1  0.2328615E-009  0.4778727E+02  0.7816164E-02  0.1312668E+00
        -11   -1    0    0    0    0  0.00000000000E+00  0.00000000000E+00  0.45593999997E+02  0.45594000000E+02  0.51100000000E-03 0. -1.
         11   -1    0    0    0    0 -0.00000000000E+00 -0.00000000000E+00 -0.45593999997E+02  0.45594000000E+02  0.51100000000E-03 0.  1.
    9900012    2    1    2    0    0 -0.27603941004E+02 -0.21151332214E+02 -0.25966647185E+02  0.47787272132E+02  0.20000004959E+02 0.  0.
         12    1    1    2    0    0  0.27603941004E+02  0.21151332214E+02  0.25966647185E+02  0.43400727868E+02  0.00000000000E+00 0. -1.
         11    1    3    3    0    0 -0.11479334140E+02 -0.28835946883E+01 -0.92503015071E+01  0.15021927601E+02  0.51100000000E-03 0. -1.
        -11    1    3    3    0    0 -0.13773100633E+02 -0.14601788293E+02 -0.19178759739E+02  0.27762120736E+02  0.51100000000E-03 0.  1.
         12    1    3    3    0    0 -0.23515062312E+01 -0.36659492328E+01  0.24624140603E+01  0.50032237944E+01  0.00000000000E+00 0. -1.
</event>
<event>
 7    1  0.2328615E-009  0.4778727E+02  0.7816164E-02  0.1312668E+00
        -11   -1    0    0    0    0  0.00000000000E+00  0.00000000000E+00  0.45593999997E+02  0.45594000000E+02  0.51100000000E-03 0.  1.
         11   -1    0    0    0    0 -0.00000000000E+00 -0.00000000000E+00 -0.45593999997E+02  0.45594000000E+02  0.51100000000E-03 0. -1.
    9900012    2    1    2    0    0  0.26390997158E+02  0.75862051782E+01  0.33609342041E+02  0.47787272905E+02  0.20000008481E+02 0.  0.
         12    1    1    2    0    0 -0.26390997158E+02 -0.75862051782E+01 -0.33609342041E+02  0.43400727095E+02  0.00000000000E+00 0. -1.
         11    1    3    3    0    0  0.79766661461E+01  0.78624938252E+00  0.22391072940E+01  0.83221987860E+01  0.51100000000E-03 0. -1.
        -11    1    3    3    0    0  0.19097847922E+02  0.48635919704E+01  0.20630091619E+02  0.28530387354E+02  0.51100000000E-03 0.  1.
        -12    1    3    3    0    0 -0.68351691019E+00  0.19363638253E+01  0.10740143128E+02  0.10934686765E+02  0.00000000000E+00 0.  1.
</event>
<event>
 7    1  0.2328615E-009  0.4778727E+02  0.7816164E-02  0.1312668E+00
        -11   -1    0    0    0    0  0.00000000000E+00  0.00000000000E+00  0.45593999997E+02  0.45594000000E+02  0.51100000000E-03 0. -1.
         11   -1    0    0    0    0 -0.00000000000E+00 -0.00000000000E+00 -0.45593999997E+02  0.45594000000E+02  0.51100000000E-03 0.  1.
    9900012    2    1    2    0    0 -0.10989337454E+02  0.32472987888E+02 -0.26615090205E+02  0.47787268362E+02  0.19999987772E+02 0.  0.
         12    1    1    2    0    0  0.10989337454E+02 -0.32472987888E+02  0.26615090205E+02  0.43400731638E+02  0.00000000000E+00 0. -1.
         11    1    3    3    0    0 -0.21438032580E+01  0.48476234844E+01 -0.84754212010E+01  0.99964048862E+01  0.51100000000E-03 0. -1.
        -11    1    3    3    0    0 -0.65380866775E+01  0.81557618811E+01 -0.14460308420E+02  0.17842745000E+02  0.51100000000E-03 0.  1.
        -12    1    3    3    0    0 -0.23074475188E+01  0.19469602523E+02 -0.36793605838E+01  0.19948118476E+02  0.00000000000E+00 0.  1.
</event>
<event>
 7    1  0.2328615E-009  0.4778727E+02  0.7816164E-02  0.1312668E+00
        -11   -1    0    0    0    0  0.00000000000E+00  0.00000000000E+00  0.45593999997E+02  0.45594000000E+02  0.51100000000E-03 0.  1.
         11   -1    0    0    0    0 -0.00000000000E+00 -0.00000000000E+00 -0.45593999997E+02  0.45594000000E+02  0.51100000000E-03 0. -1.
    9900012    2    1    2    0    0  0.17010450439E+01 -0.96905465485E+01  0.42270826429E+02  0.47787274042E+02  0.20000013669E+02 0.  0.
         12    1    1    2    0    0 -0.17010450439E+01  0.96905465485E+01 -0.42270826429E+02  0.43400725958E+02  0.00000000000E+00 0. -1.
         11    1    3    3    0    0  0.27986312126E+00  0.30050794002E+01  0.27769369542E+01  0.41012442839E+01  0.51100000000E-03 0. -1.
        -11    1    3    3    0    0 -0.10733440747E+01 -0.11942683023E+02  0.39282459450E+02  0.41071783088E+02  0.51100000000E-03 0.  1.
         12    1    3    3    0    0  0.24945259973E+01 -0.75294292526E+00  0.21143002500E+00  0.26142466707E+01  0.00000000000E+00 0. -1.
</event>
<event>
 7    1  0.2328615E-009  0.4778728E+02  0.7816164E-02  0.1312668E+00
        -11   -1    0    0    0    0  0.00000000000E+00  0.00000000000E+00  0.45593999997E+02  0.45594000000E+02  0.51100000000E-03 0.  1.
         11   -1    0    0    0    0 -0.00000000000E+00 -0.00000000000E+00 -0.45593999997E+02  0.45594000000E+02  0.51100000000E-03 0. -1.
    9900012    2    1    2    0    0 -0.15871624381E+02  0.59875196391E+01  0.39948267279E+02  0.47787275231E+02  0.20000019088E+02 0.  0.
         12    1    1    2    0    0  0.15871624381E+02 -0.59875196391E+01 -0.39948267279E+02  0.43400724769E+02  0.00000000000E+00 0. -1.
         11    1    3    3    0    0 -0.84252357401E+01  0.72353412792E+01  0.19123825544E+02  0.22114598445E+02  0.51100000000E-03 0. -1.
        -11    1    3    3    0    0 -0.47527304249E+01  0.29097604603E+01  0.15678393141E+01  0.57890649335E+01  0.51100000000E-03 0.  1.
        -12    1    3    3    0    0 -0.26936582158E+01 -0.41575821003E+01  0.19256602420E+02  0.19883611852E+02  0.00000000000E+00 0.  1.
</event>
<event>
 7    1  0.2328615E-009  0.4778726E+02  0.7816164E-02  0.1312668E+00
        -11   -1    0    0    0    0  0.00000000000E+00  0.00000000000E+00  0.45593999997E+02  0.45594000000E+02  0.51100000000E-03 0.  1.
         11   -1    0    0    0    0 -0.00000000000E+00 -0.00000000000E+00 -0.45593999997E+02  0.45594000000E+02  0.51100000000E-03 0. -1.
    9900012    2    1    2    0    0 -0.16475810117E+02  0.29499921476E+01  0.40043339772E+02  0.47787264605E+02  0.19999970641E+02 0.  0.
         12    1    1    2    0    0  0.16475810117E+02 -0.29499921476E+01 -0.40043339772E+02  0.43400735395E+02  0.00000000000E+00 0. -1.
         11    1    3    3    0    0  0.30639217665E+01  0.28185526330E+01  0.11150467594E+02  0.11902301599E+02  0.51100000000E-03 0. -1.
        -11    1    3    3    0    0  0.25378824976E+00  0.14147951469E+01  0.16907115505E+01  0.22191348746E+01  0.51100000000E-03 0.  1.
        -12    1    3    3    0    0 -0.19793520134E+02 -0.12833556322E+01  0.27202160628E+02  0.33665828131E+02  0.00000000000E+00 0.  1.
</event>
<event>
 7    1  0.2328615E-009  0.4778727E+02  0.7816164E-02  0.1312668E+00
        -11   -1    0    0    0    0  0.00000000000E+00  0.00000000000E+00  0.45593999997E+02  0.45594000000E+02  0.51100000000E-03 0.  1.
         11   -1    0    0    0    0 -0.00000000000E+00 -0.00000000000E+00 -0.45593999997E+02  0.45594000000E+02  0.51100000000E-03 0. -1.
    9900012    2    1    2    0    0 -0.28179731570E+02  0.35800531593E-01 -0.33007947292E+02  0.47787272616E+02  0.20000007164E+02 0.  0.
         12    1    1    2    0    0  0.28179731570E+02 -0.35800531593E-01  0.33007947292E+02  0.43400727384E+02  0.00000000000E+00 0. -1.
         11    1    3    3    0    0 -0.48318895787E+01  0.57920904746E+01 -0.61094144828E+01  0.97067200717E+01  0.51100000000E-03 0. -1.
        -11    1    3    3    0    0 -0.14530463530E+01 -0.51376088148E+00 -0.95088235902E+01  0.96329133847E+01  0.51100000000E-03 0.  1.
        -12    1    3    3    0    0 -0.21894795638E+02 -0.52425290615E+01 -0.17389709219E+02  0.28447639159E+02  0.00000000000E+00 0.  1.
</event>
<event>
 7    1  0.2328615E-009  0.4778726E+02  0.7816164E-02  0.1312668E+00
        -11   -1    0    0    0    0  0.00000000000E+00  0.00000000000E+00  0.45593999997E+02  0.45594000000E+02  0.51100000000E-03 0.  1.
         11   -1    0    0    0    0 -0.00000000000E+00 -0.00000000000E+00 -0.45593999997E+02  0.45594000000E+02  0.51100000000E-03 0. -1.
    9900012    2    1    2    0    0  0.41618782664E+02 -0.77377148889E+01  0.95722987630E+01  0.47787260309E+02  0.19999951052E+02 0.  0.
         12    1    1    2    0    0 -0.41618782664E+02  0.77377148889E+01 -0.95722987630E+01  0.43400739691E+02  0.00000000000E+00 0. -1.
         11    1    3    3    0    0  0.20222438686E+02 -0.69530476023E+01 -0.45324273369E+01  0.21859432637E+02  0.51100000000E-03 0. -1.
        -11    1    3    3    0    0  0.40638913665E+01 -0.99879084677E+00  0.13158844941E+01  0.43868380933E+01  0.51100000000E-03 0.  1.
         12    1    3    3    0    0  0.17332452611E+02  0.21412356012E+00  0.12788841606E+02  0.21540989579E+02  0.00000000000E+00 0. -1.
</event>
<event>
 7    1  0.2433638E-009  0.4778727E+02  0.7816164E-02  0.1312668E+00
        -11   -1    0    0    0    0  0.00000000000E+00  0.00000000000E+00  0.45593999997E+02  0.45594000000E+02  0.51100000000E-03 0. -1.
         11   -1    0    0    0    0 -0.00000000000E+00 -0.00000000000E+00 -0.45593999997E+02  0.45594000000E+02  0.51100000000E-03 0.  1.
    9900012    2    1    2    0    0  0.32548331739E+02  0.40958788881E+00 -0.28706471797E+02  0.47787272077E+02  0.20000004708E+02 0.  0.
         12    1    1    2    0    0 -0.32548331739E+02 -0.40958788881E+00  0.28706471797E+02  0.43400727923E+02  0.00000000000E+00 0. -1.
         11    1    3    3    0    0 -0.10355119704E+01 -0.98957618775E+00  0.11024631662E+01  0.18074765189E+01  0.51100000000E-03 0. -1.
        -11    1    3    3    0    0  0.13015705894E+02 -0.16983292757E+01 -0.62046529803E+01  0.14518630828E+02  0.51100000000E-03 0.  1.
        -12    1    3    3    0    0  0.20568137815E+02  0.30974933523E+01 -0.23604281983E+02  0.31461164730E+02  0.00000000000E+00 0.  1.
</event>
<event>
 7    1  0.2328615E-009  0.4778727E+02  0.7816164E-02  0.1312668E+00
        -11   -1    0    0    0    0  0.00000000000E+00  0.00000000000E+00  0.45593999997E+02  0.45594000000E+02  0.51100000000E-03 0. -1.
         11   -1    0    0    0    0 -0.00000000000E+00 -0.00000000000E+00 -0.45593999997E+02  0.45594000000E+02  0.51100000000E-03 0.  1.
    9900012    2    1    2    0    0 -0.30330872494E+02  0.40850355244E+01 -0.30772941487E+02  0.47787271098E+02  0.20000000243E+02 0.  0.
         12    1    1    2    0    0  0.30330872494E+02 -0.40850355244E+01  0.30772941487E+02  0.43400728902E+02  0.00000000000E+00 0. -1.
         11    1    3    3    0    0 -0.31150408901E+01 -0.32500315957E+01 -0.64021317957E+00  0.45470933899E+01  0.51100000000E-03 0. -1.
        -11    1    3    3    0    0 -0.12582130233E+02  0.53785142694E+01 -0.59815409089E+01  0.14933762046E+02  0.51100000000E-03 0.  1.
         12    1    3    3    0    0 -0.14633701372E+02  0.19565528507E+01 -0.24151187398E+02  0.28306415662E+02  0.00000000000E+00 0. -1.
</event>
<event>
 7    1  0.2478505E-009  0.4778727E+02  0.7816164E-02  0.1312668E+00
        -11   -1    0    0    0    0  0.00000000000E+00  0.00000000000E+00  0.45593999997E+02  0.45594000000E+02  0.51100000000E-03 0. -1.
         11   -1    0    0    0    0 -0.00000000000E+00 -0.00000000000E+00 -0.45593999997E+02  0.45594000000E+02  0.51100000000E-03 0.  1.
    9900012    2    1    2    0    0  0.74677897773E+01 -0.19426139540E+02 -0.38085174720E+02  0.47787270570E+02  0.19999997838E+02 0.  0.
         12    1    1    2    0    0 -0.74677897773E+01  0.19426139540E+02  0.38085174720E+02  0.43400729430E+02  0.00000000000E+00 0. -1.
         11    1    3    3    0    0  0.88172358135E+00 -0.88492152415E+00  0.15379764499E+01  0.19813869888E+01  0.51100000000E-03 0. -1.
        -11    1    3    3    0    0  0.50078527499E+01 -0.21606215885E+01 -0.47005237332E+01  0.72001248907E+01  0.51100000000E-03 0.  1.
        -12    1    3    3    0    0  0.15782134460E+01 -0.16380596427E+02 -0.34922627437E+02  0.38605758691E+02  0.00000000000E+00 0.  1.
</event>
<event>
 7    1  0.2328615E-009  0.4778727E+02  0.7816164E-02  0.1312668E+00
        -11   -1    0    0    0    0  0.00000000000E+00  0.00000000000E+00  0.45593999997E+02  0.45594000000E+02  0.51100000000E-03 0. -1.
         11   -1    0    0    0    0 -0.00000000000E+00 -0.00000000000E+00 -0.45593999997E+02  0.45594000000E+02  0.51100000000E-03 0.  1.
    9900012    2    1    2    0    0  0.22866034980E+02 -0.92107410402E+01 -0.35720163770E+02  0.47787269523E+02  0.19999993062E+02 0.  0.
         12    1    1    2    0    0 -0.22866034980E+02  0.92107410402E+01  0.35720163770E+02  0.43400730477E+02  0.00000000000E+00 0. -1.
         11    1    3    3    0    0  0.50515987231E+01  0.10555112894E+01 -0.11511339490E+02  0.12615216640E+02  0.51100000000E-03 0. -1.
        -11    1    3    3    0    0  0.75697671905E+01 -0.80758683019E+01 -0.21759919543E+02  0.24413420960E+02  0.51100000000E-03 0.  1.
         12    1    3    3    0    0  0.10244669066E+02 -0.21903840276E+01 -0.24489047362E+01  0.10758631924E+02  0.00000000000E+00 0. -1.
</event>
<event>
 7    1  0.2328615E-009  0.4778725E+02  0.7816164E-02  0.1312668E+00
        -11   -1    0    0    0    0  0.00000000000E+00  0.00000000000E+00  0.45593999997E+02  0.45594000000E+02  0.51100000000E-03 0. -1.
         11   -1    0    0    0    0 -0.00000000000E+00 -0.00000000000E+00 -0.45593999997E+02  0.45594000000E+02  0.51100000000E-03 0.  1.
    9900012    2    1    2    0    0 -0.28639333508E+02  0.31919915444E+02 -0.66732652282E+01  0.47787252373E+02  0.19999914871E+02 0.  0.
         12    1    1    2    0    0  0.28639333508E+02 -0.31919915444E+02  0.66732652282E+01  0.43400747627E+02  0.00000000000E+00 0. -1.
         11    1    3    3    0    0 -0.13893435520E+02  0.12914899267E+02 -0.92111798710E+00  0.18991330450E+02  0.51100000000E-03 0.  1.
        -11    1    3    3    0    0 -0.16125941001E+02  0.12044210340E+02 -0.80127008511E+00  0.20143262146E+02  0.51100000000E-03 0. -1.
         12    1    3    3    0    0  0.13800430128E+01  0.69608058367E+01 -0.49508771560E+01  0.86526597776E+01  0.00000000000E+00 0. -1.
</event>
<event>
 7    1  0.2328615E-009  0.4778727E+02  0.7816164E-02  0.1312668E+00
        -11   -1    0    0    0    0  0.00000000000E+00  0.00000000000E+00  0.45593999997E+02  0.45594000000E+02  0.51100000000E-03 0.  1.
         11   -1    0    0    0    0 -0.00000000000E+00 -0.00000000000E+00 -0.45593999997E+02  0.45594000000E+02  0.51100000000E-03 0. -1.
    9900012    2    1    2    0    0  0.26287825894E+01  0.41126954000E+02  0.13611990873E+02  0.47787272601E+02  0.20000007098E+02 0.  0.
         12    1    1    2    0    0 -0.26287825894E+01 -0.41126954000E+02 -0.13611990873E+02  0.43400727399E+02  0.00000000000E+00 0. -1.
         11    1    3    3    0    0  0.78470204462E+00  0.11740592850E+02  0.11088782908E+02  0.16168437908E+02  0.51100000000E-03 0. -1.
        -11    1    3    3    0    0  0.13784842603E+01 -0.56878460066E+00  0.57007726455E+00  0.15964720876E+01  0.51100000000E-03 0.  1.
        -12    1    3    3    0    0  0.46559628449E+00  0.29955145751E+02  0.19531307007E+01  0.30022362605E+02  0.00000000000E+00 0.  1.
</event>
<event>
 7    1  0.2328615E-009  0.4778727E+02  0.7816164E-02  0.1312668E+00
        -11   -1    0    0    0    0  0.00000000000E+00  0.00000000000E+00  0.45593999997E+02  0.45594000000E+02  0.51100000000E-03 0.  1.
         11   -1    0    0    0    0 -0.00000000000E+00 -0.00000000000E+00 -0.45593999997E+02  0.45594000000E+02  0.51100000000E-03 0. -1.
    9900012    2    1    2    0    0  0.14085518300E+02 -0.32120195227E+01  0.40925594388E+02  0.47787272228E+02  0.20000005396E+02 0.  0.
         12    1    1    2    0    0 -0.14085518300E+02  0.32120195227E+01 -0.40925594388E+02  0.43400727772E+02  0.00000000000E+00 0. -1.
         11    1    3    3    0    0  0.44284878139E+01  0.14218904401E+01  0.26511001079E+01  0.53536537789E+01  0.51100000000E-03 0. -1.
        -11    1    3    3    0    0  0.23942993159E+01  0.54125204116E+01  0.12893001646E+02  0.14186526641E+02  0.51100000000E-03 0.  1.
         12    1    3    3    0    0  0.72627311698E+01 -0.10046430374E+02  0.25381492634E+02  0.28247091808E+02  0.00000000000E+00 0. -1.
</event>
<event>
 7    1  0.2328615E-009  0.4778726E+02  0.7816164E-02  0.1312668E+00
        -11   -1    0    0    0    0  0.00000000000E+00  0.00000000000E+00  0.45593999997E+02  0.45594000000E+02  0.51100000000E-03 0.  1.
         11   -1    0    0    0    0 -0.00000000000E+00 -0.00000000000E+00 -0.45593999997E+02  0.45594000000E+02  0.51100000000E-03 0. -1.
    9900012    2    1    2    0    0  0.38513160122E+02 -0.19083489646E+02 -0.60150577394E+01  0.47787262688E+02  0.19999961900E+02 0.  0.
         12    1    1    2    0    0 -0.38513160122E+02  0.19083489646E+02  0.60150577394E+01  0.43400737312E+02  0.00000000000E+00 0. -1.
         11    1    3    3    0    0  0.10682256630E+02 -0.49529436417E+00 -0.28425025587E+01  0.11065068652E+02  0.51100000000E-03 0. -1.
        -11    1    3    3    0    0  0.19600508249E+02 -0.85980959335E+01 -0.80821857660E+01  0.22878568669E+02  0.51100000000E-03 0.  1.
         12    1    3    3    0    0  0.82303952426E+01 -0.99900993481E+01  0.49096305853E+01  0.13843625368E+02  0.00000000000E+00 0. -1.
</event>
<event>
 7    1  0.2328615E-009  0.4778728E+02  0.7816164E-02  0.1312668E+00
        -11   -1    0    0    0    0  0.00000000000E+00  0.00000000000E+00  0.45593999997E+02  0.45594000000E+02  0.51100000000E-03 0.  1.
         11   -1    0    0    0    0 -0.00000000000E+00 -0.00000000000E+00 -0.45593999997E+02  0.45594000000E+02  0.51100000000E-03 0. -1.
    9900012    2    1    2    0    0  0.17364048333E+02 -0.37815109411E+02  0.12334088644E+02  0.47787280916E+02  0.20000045010E+02 0.  0.
         12    1    1    2    0    0 -0.17364048333E+02  0.37815109411E+02 -0.12334088644E+02  0.43400719084E+02  0.00000000000E+00 0. -1.
         11    1    3    3    0    0  0.72282941805E+01 -0.99381214150E+01  0.96942044933E+01  0.15652223326E+02  0.51100000000E-03 0. -1.
        -11    1    3    3    0    0  0.11729198769E+02 -0.19575141658E+02  0.49935309931E+01  0.23360128996E+02  0.51100000000E-03 0.  1.
         12    1    3    3    0    0 -0.15934446169E+01 -0.83018463385E+01 -0.23536468425E+01  0.87749285942E+01  0.00000000000E+00 0. -1.
</event>
<event>
 7    1  0.2328615E-009  0.4778727E+02  0.7816164E-02  0.1312668E+00
        -11   -1    0    0    0    0  0.00000000000E+00  0.00000000000E+00  0.45593999997E+02  0.45594000000E+02  0.51100000000E-03 0. -1.
         11   -1    0    0    0    0 -0.00000000000E+00 -0.00000000000E+00 -0.45593999997E+02  0.45594000000E+02  0.51100000000E-03 0.  1.
    9900012    2    1    2    0    0  0.11598497228E+02 -0.41314376920E+02 -0.64977222255E+01  0.47787271062E+02  0.20000000079E+02 0.  0.
         12    1    1    2    0    0 -0.11598497228E+02  0.41314376920E+02  0.64977222255E+01  0.43400728938E+02  0.00000000000E+00 0. -1.
         11    1    3    3    0    0  0.12562368433E+01 -0.81930641983E+01  0.56189707391E+01  0.10013853623E+02  0.51100000000E-03 0. -1.
        -11    1    3    3    0    0 -0.66139437278E+00 -0.11358859345E+02 -0.33810110283E+01  0.11869808927E+02  0.51100000000E-03 0.  1.
         12    1    3    3    0    0  0.11003654758E+02 -0.21762453377E+02 -0.87356819363E+01  0.25903608511E+02  0.00000000000E+00 0. -1.
</event>
<event>
 7    1  0.2952730E-009  0.4778727E+02  0.7816164E-02  0.1312668E+00
        -11   -1    0    0    0    0  0.00000000000E+00  0.00000000000E+00  0.45593999997E+02  0.45594000000E+02  0.51100000000E-03 0. -1.
         11   -1    0    0    0    0 -0.00000000000E+00 -0.00000000000E+00 -0.45593999997E+02  0.45594000000E+02  0.51100000000E-03 0.  1.
    9900012    2    1    2    0    0  0.64280155626E+01  0.64203719501E+01 -0.42439164721E+02  0.47787271178E+02  0.20000000610E+02 0.  0.
         12    1    1    2    0    0 -0.64280155626E+01 -0.64203719501E+01  0.42439164721E+02  0.43400728822E+02  0.00000000000E+00 0. -1.
         11    1    3    3    0    0  0.29490209290E+01 -0.89027024584E+00 -0.68990588903E-01  0.30812441501E+01  0.51100000000E-03 0. -1.
        -11    1    3    3    0    0 -0.21240398820E+01  0.30258047556E+01 -0.31508776639E+01  0.48574756976E+01  0.51100000000E-03 0.  1.
        -12    1    3    3    0    0  0.56030345156E+01  0.42848374404E+01 -0.39219296468E+02  0.39848551330E+02  0.00000000000E+00 0.  1.
</event>
<event>
 7    1  0.2328615E-009  0.4778727E+02  0.7816164E-02  0.1312668E+00
        -11   -1    0    0    0    0  0.00000000000E+00  0.00000000000E+00  0.45593999997E+02  0.45594000000E+02  0.51100000000E-03 0.  1.
         11   -1    0    0    0    0 -0.00000000000E+00 -0.00000000000E+00 -0.45593999997E+02  0.45594000000E+02  0.51100000000E-03 0. -1.
    9900012    2    1    2    0    0  0.19436331558E+02  0.31853883663E+02  0.22162639870E+02  0.47787268499E+02  0.19999988393E+02 0.  0.
         12    1    1    2    0    0 -0.19436331558E+02 -0.31853883663E+02 -0.22162639870E+02  0.43400731501E+02  0.00000000000E+00 0. -1.
         11    1    3    3    0    0 -0.49296371225E+00  0.27323762746E+00  0.48072294226E+01  0.48401577459E+01  0.51100000000E-03 0. -1.
        -11    1    3    3    0    0  0.28538444573E+01  0.46066958734E+01 -0.18080007944E+01  0.57127000788E+01  0.51100000000E-03 0.  1.
        -12    1    3    3    0    0  0.17075450813E+02  0.26973950162E+02  0.19163411242E+02  0.37234410674E+02  0.00000000000E+00 0.  1.
</event>
<event>
 7    1  0.2328615E-009  0.4778727E+02  0.7816164E-02  0.1312668E+00
        -11   -1    0    0    0    0  0.00000000000E+00  0.00000000000E+00  0.45593999997E+02  0.45594000000E+02  0.51100000000E-03 0.  1.
         11   -1    0    0    0    0 -0.00000000000E+00 -0.00000000000E+00 -0.45593999997E+02  0.45594000000E+02  0.51100000000E-03 0. -1.
    9900012    2    1    2    0    0 -0.11602354920E+02  0.18547759072E+02  0.37483189827E+02  0.47787268141E+02  0.19999986762E+02 0.  0.
         12    1    1    2    0    0  0.11602354920E+02 -0.18547759072E+02 -0.37483189827E+02  0.43400731859E+02  0.00000000000E+00 0. -1.
         11    1    3    3    0    0 -0.33554972395E+01  0.88194181432E+01  0.10240737808E+02  0.13925308227E+02  0.51100000000E-03 0.  1.
        -11    1    3    3    0    0  0.20443545734E+00  0.32700899698E+01  0.21550807675E+02  0.21798453936E+02  0.51100000000E-03 0. -1.
         12    1    3    3    0    0 -0.84512931375E+01  0.64582509590E+01  0.56916443440E+01  0.12063505978E+02  0.00000000000E+00 0. -1.
</event>
<event>
 7    1  0.2328615E-009  0.4778726E+02  0.7816164E-02  0.1312668E+00
        -11   -1    0    0    0    0  0.00000000000E+00  0.00000000000E+00  0.45593999997E+02  0.45594000000E+02  0.51100000000E-03 0.  1.
         11   -1    0    0    0    0 -0.00000000000E+00 -0.00000000000E+00 -0.45593999997E+02  0.45594000000E+02  0.51100000000E-03 0. -1.
    9900012    2    1    2    0    0  0.25214903439E+02 -0.20996113144E+02  0.28407671136E+02  0.47787263809E+02  0.19999967008E+02 0.  0.
         12    1    1    2    0    0 -0.25214903439E+02  0.20996113144E+02 -0.28407671136E+02  0.43400736191E+02  0.00000000000E+00 0. -1.
         11    1    3    3    0    0  0.15653853358E+02 -0.70009944402E+01  0.13011289210E+02  0.21525582345E+02  0.51100000000E-03 0. -1.
        -11    1    3    3    0    0  0.51304216416E+01 -0.11924244450E+02  0.35686569908E+01  0.13462694563E+02  0.51100000000E-03 0.  1.
         12    1    3    3    0    0  0.44306284389E+01 -0.20708742545E+01  0.11827724936E+02  0.12798986901E+02  0.00000000000E+00 0. -1.
</event>
<event>
 7    1  0.2328615E-009  0.4778727E+02  0.7816164E-02  0.1312668E+00
        -11   -1    0    0    0    0  0.00000000000E+00  0.00000000000E+00  0.45593999997E+02  0.45594000000E+02  0.51100000000E-03 0.  1.
         11   -1    0    0    0    0 -0.00000000000E+00 -0.00000000000E+00 -0.45593999997E+02  0.45594000000E+02  0.51100000000E-03 0. -1.
    9900012    2    1    2    0    0 -0.36898590627E+02  0.18374723278E+02  0.13582582087E+02  0.47787274407E+02  0.20000015332E+02 0.  0.
         12    1    1    2    0    0  0.36898590627E+02 -0.18374723278E+02 -0.13582582087E+02  0.43400725593E+02  0.00000000000E+00 0. -1.
         11    1    3    3    0    0 -0.93399752492E+01 -0.11874790100E+00 -0.11077788659E+01  0.94061901425E+01  0.51100000000E-03 0. -1.
        -11    1    3    3    0    0 -0.59231579837E+00  0.51391861865E+01  0.36354764389E+01  0.63228760753E+01  0.51100000000E-03 0.  1.
        -12    1    3    3    0    0 -0.26966299580E+02  0.13354284993E+02  0.11054884514E+02  0.32058208189E+02  0.00000000000E+00 0.  1.
</event>
<event>
 7    1  0.2328615E-009  0.4778727E+02  0.7816164E-02  0.1312668E+00
        -11   -1    0    0    0    0  0.00000000000E+00  0.00000000000E+00  0.45593999997E+02  0.45594000000E+02  0.51100000000E-03 0.  1.
         11   -1    0    0    0    0 -0.00000000000E+00 -0.00000000000E+00 -0.45593999997E+02  0.45594000000E+02  0.51100000000E-03 0. -1.
    9900012    2    1    2    0    0 -0.91625021759E+01 -0.55941525354E+01  0.42052077405E+02  0.47787271864E+02  0.20000003735E+02 0.  0.
         12    1    1    2    0    0  0.91625021759E+01  0.55941525354E+01 -0.42052077405E+02  0.43400728136E+02  0.00000000000E+00 0. -1.
         11    1    3    3    0    0 -0.25413295928E+01  0.32993662713E+01  0.43900673399E+01  0.60511871068E+01  0.51100000000E-03 0. -1.
        -11    1    3    3    0    0 -0.79353977162E+01  0.87858806136E+00  0.19479435083E+02  0.21052098359E+02  0.51100000000E-03 0.  1.
        -12    1    3    3    0    0  0.13142251331E+01 -0.97721068681E+01  0.18182574982E+02  0.20683986398E+02  0.00000000000E+00 0.  1.
</event>
<event>
 7    1  0.2328615E-009  0.4778727E+02  0.7816164E-02  0.1312668E+00
        -11   -1    0    0    0    0  0.00000000000E+00  0.00000000000E+00  0.45593999997E+02  0.45594000000E+02  0.51100000000E-03 0. -1.
         11   -1    0    0    0    0 -0.00000000000E+00 -0.00000000000E+00 -0.45593999997E+02  0.45594000000E+02  0.51100000000E-03 0.  1.
    9900012    2    1    2    0    0 -0.25754210549E+02  0.25979678334E+02 -0.23353812045E+02  0.47787267467E+02  0.19999983691E+02 0.  0.
         12    1    1    2    0    0  0.25754210549E+02 -0.25979678334E+02  0.23353812045E+02  0.43400732533E+02  0.00000000000E+00 0. -1.
         11    1    3    3    0    0 -0.16399175417E+02  0.12642490299E+02 -0.16228714229E+02  0.26308490666E+02  0.51100000000E-03 0. -1.
        -11    1    3    3    0    0 -0.48924422059E+01  0.22616615453E+00 -0.57618785666E+01  0.75621681246E+01  0.51100000000E-03 0.  1.
        -12    1    3    3    0    0 -0.44625929263E+01  0.13111021880E+02 -0.13632192500E+01  0.13916608677E+02  0.00000000000E+00 0.  1.
</event>
<event>
 7    1  0.2328615E-009  0.4778727E+02  0.7816164E-02  0.1312668E+00
        -11   -1    0    0    0    0  0.00000000000E+00  0.00000000000E+00  0.45593999997E+02  0.45594000000E+02  0.51100000000E-03 0. -1.
         11   -1    0    0    0    0 -0.00000000000E+00 -0.00000000000E+00 -0.45593999997E+02  0.45594000000E+02  0.51100000000E-03 0.  1.
    9900012    2    1    2    0    0  0.36393331843E+02  0.21797406532E+02  0.91663360911E+01  0.47787271302E+02  0.20000001176E+02 0.  0.
         12    1    1    2    0    0 -0.36393331843E+02 -0.21797406532E+02 -0.91663360911E+01  0.43400728698E+02  0.00000000000E+00 0. -1.
         11    1    3    3    0    0  0.11443858891E+01  0.88493093021E-01  0.14989164926E+01  0.18879091619E+01  0.51100000000E-03 0. -1.
        -11    1    3    3    0    0  0.26006255751E+02  0.15586093470E+02 -0.30589018826E+01  0.30473078756E+02  0.51100000000E-03 0.  1.
        -12    1    3    3    0    0  0.92426902027E+01  0.61228199689E+01  0.10726321481E+02  0.15426283385E+02  0.00000000000E+00 0.  1.
</event>
<event>
 7    1  0.2328615E-009  0.4778727E+02  0.7816164E-02  0.1312668E+00
        -11   -1    0    0    0    0  0.00000000000E+00  0.00000000000E+00  0.45593999997E+02  0.45594000000E+02  0.51100000000E-03 0.  1.
         11   -1    0    0    0    0 -0.00000000000E+00 -0.00000000000E+00 -0.45593999997E+02  0.45594000000E+02  0.51100000000E-03 0. -1.
    9900012    2    1    2    0    0 -0.24805379814E+02  0.14560341474E+02  0.32500967907E+02  0.47787270439E+02  0.19999997239E+02 0.  0.
         12    1    1    2    0    0  0.24805379814E+02 -0.14560341474E+02 -0.32500967907E+02  0.43400729561E+02  0.00000000000E+00 0. -1.
         11    1    3    3    0    0 -0.62931853074E+01  0.10026253773E+01  0.14956450368E+01  0.65457156444E+01  0.51100000000E-03 0. -1.
        -11    1    3    3    0    0 -0.10063139878E+01  0.63793200017E+01  0.22878668424E+01  0.68514762260E+01  0.51100000000E-03 0.  1.
         12    1    3    3    0    0 -0.17505880519E+02  0.71783960951E+01  0.28717456028E+02  0.34390078568E+02  0.00000000000E+00 0. -1.
</event>
<event>
 7    1  0.2328615E-009  0.4778728E+02  0.7816164E-02  0.1312668E+00
        -11   -1    0    0    0    0  0.00000000000E+00  0.00000000000E+00  0.45593999997E+02  0.45594000000E+02  0.51100000000E-03 0.  1.
         11   -1    0    0    0    0 -0.00000000000E+00 -0.00000000000E+00 -0.45593999997E+02  0.45594000000E+02  0.51100000000E-03 0. -1.
    9900012    2    1    2    0    0 -0.20277446890E+02  0.36336433223E+02 -0.12333356096E+02  0.47787275302E+02  0.20000019413E+02 0.  0.
         12    1    1    2    0    0  0.20277446890E+02 -0.36336433223E+02  0.12333356096E+02  0.43400724698E+02  0.00000000000E+00 0. -1.
         11    1    3    3    0    0 -0.16528461476E+01  0.33220401899E+01  0.11754731181E+01  0.38922472588E+01  0.51100000000E-03 0. -1.
        -11    1    3    3    0    0 -0.12455034893E+02  0.62070394659E+01 -0.72186904285E+01  0.15676885051E+02  0.51100000000E-03 0.  1.
         12    1    3    3    0    0 -0.61695658488E+01  0.26807353567E+02 -0.62901387852E+01  0.28218142993E+02  0.00000000000E+00 0. -1.
</event>
<event>
 7    1  0.2328615E-009  0.4778729E+02  0.7816164E-02  0.1312668E+00
        -11   -1    0    0    0    0  0.00000000000E+00  0.00000000000E+00  0.45593999997E+02  0.45594000000E+02  0.51100000000E-03 0.  1.
         11   -1    0    0    0    0 -0.00000000000E+00 -0.00000000000E+00 -0.45593999997E+02  0.45594000000E+02  0.51100000000E-03 0. -1.
    9900012    2    1    2    0    0 -0.21752289920E+02  0.24735523682E+02  0.28259743295E+02  0.47787293327E+02  0.20000101597E+02 0.  0.
         12    1    1    2    0    0  0.21752289920E+02 -0.24735523682E+02 -0.28259743295E+02  0.43400706673E+02  0.00000000000E+00 0. -1.
         11    1    3    3    0    0 -0.19333064948E+00 -0.56010311383E+00  0.58553961748E-01  0.59541671601E+00  0.51100000000E-03 0. -1.
        -11    1    3    3    0    0 -0.55877289812E+01  0.14213862258E+02  0.22011214661E+02  0.26790859758E+02  0.51100000000E-03 0.  1.
         12    1    3    3    0    0 -0.15971230289E+02  0.11081764537E+02  0.61899746726E+01  0.20401016854E+02  0.00000000000E+00 0. -1.
</event>
<event>
 7    1  0.2328615E-009  0.4778726E+02  0.7816164E-02  0.1312668E+00
        -11   -1    0    0    0    0  0.00000000000E+00  0.00000000000E+00  0.45593999997E+02  0.45594000000E+02  0.51100000000E-03 0.  1.
         11   -1    0    0    0    0 -0.00000000000E+00 -0.00000000000E+00 -0.45593999997E+02  0.45594000000E+02  0.51100000000E-03 0. -1.
    9900012    2    1    2    0    0 -0.33290204841E+01  0.31977809967E+02  0.29154103957E+02  0.47787257090E+02  0.19999936375E+02 0.  0.
         12    1    1    2    0    0  0.33290204841E+01 -0.31977809967E+02 -0.29154103957E+02  0.43400742910E+02  0.00000000000E+00 0. -1.
         11    1    3    3    0    0 -0.41302547204E+00  0.84805349382E+01  0.10284080779E+02  0.13336130646E+02  0.51100000000E-03 0. -1.
        -11    1    3    3    0    0 -0.59375883573E+01  0.17720084972E+02  0.20490643623E+02  0.27733064080E+02  0.51100000000E-03 0.  1.
         12    1    3    3    0    0  0.30215933452E+01  0.57771900568E+01 -0.16206204456E+01  0.67180623639E+01  0.00000000000E+00 0. -1.
</event>
<event>
 7    1  0.2328615E-009  0.4778727E+02  0.7816164E-02  0.1312668E+00
        -11   -1    0    0    0    0  0.00000000000E+00  0.00000000000E+00  0.45593999997E+02  0.45594000000E+02  0.51100000000E-03 0. -1.
         11   -1    0    0    0    0 -0.00000000000E+00 -0.00000000000E+00 -0.45593999997E+02  0.45594000000E+02  0.51100000000E-03 0.  1.
    9900012    2    1    2    0    0  0.27167331586E+02  0.29833288444E+02 -0.15985428872E+02  0.47787274877E+02  0.20000017476E+02 0.  0.
         12    1    1    2    0    0 -0.27167331586E+02 -0.29833288444E+02  0.15985428872E+02  0.43400725123E+02  0.00000000000E+00 0. -1.
         11    1    3    3    0    0  0.14384308596E+02  0.75671922248E+01 -0.25520111224E+01  0.16452461609E+02  0.51100000000E-03 0. -1.
        -11    1    3    3    0    0  0.74926844245E+01  0.96721567425E+01 -0.84128642965E-01  0.12235113969E+02  0.51100000000E-03 0.  1.
         12    1    3    3    0    0  0.52903385658E+01  0.12593939477E+02 -0.13349289107E+02  0.19099699300E+02  0.00000000000E+00 0. -1.
</event>
<event>
 7    1  0.2328615E-009  0.4778727E+02  0.7816164E-02  0.1312668E+00
        -11   -1    0    0    0    0  0.00000000000E+00  0.00000000000E+00  0.45593999997E+02  0.45594000000E+02  0.51100000000E-03 0. -1.
         11   -1    0    0    0    0 -0.00000000000E+00 -0.00000000000E+00 -0.45593999997E+02  0.45594000000E+02  0.51100000000E-03 0.  1.
    9900012    2    1    2    0    0  0.22986808240E+02 -0.12171061284E+02 -0.34743274575E+02  0.47787271733E+02  0.20000003141E+02 0.  0.
         12    1    1    2    0    0 -0.22986808240E+02  0.12171061284E+02  0.34743274575E+02  0.43400728267E+02  0.00000000000E+00 0. -1.
         11    1    3    3    0    0  0.83738557292E+01 -0.51337677093E+01 -0.25323501811E+02  0.27161678426E+02  0.51100000000E-03 0. -1.
        -11    1    3    3    0    0  0.69455255744E+01  0.76747349988E+00 -0.58612723173E+01  0.91205183250E+01  0.51100000000E-03 0.  1.
        -12    1    3    3    0    0  0.76674269367E+01 -0.78047670748E+01 -0.35585004467E+01  0.11505074982E+02  0.00000000000E+00 0.  1.
</event>
<event>
 7    1  0.2328615E-009  0.4778727E+02  0.7816164E-02  0.1312668E+00
        -11   -1    0    0    0    0  0.00000000000E+00  0.00000000000E+00  0.45593999997E+02  0.45594000000E+02  0.51100000000E-03 0.  1.
         11   -1    0    0    0    0 -0.00000000000E+00 -0.00000000000E+00 -0.45593999997E+02  0.45594000000E+02  0.51100000000E-03 0. -1.
    9900012    2    1    2    0    0 -0.13526238022E+02  0.39397723340E+02  0.12185387005E+02  0.47787269869E+02  0.19999994641E+02 0.  0.
         12    1    1    2    0    0  0.13526238022E+02 -0.39397723340E+02 -0.12185387005E+02  0.43400730131E+02  0.00000000000E+00 0. -1.
         11    1    3    3    0    0  0.72590166557E+00  0.53780807132E+01  0.50788753914E+01  0.74327424877E+01  0.51100000000E-03 0. -1.
        -11    1    3    3    0    0  0.28877741867E+01  0.43312026498E+01  0.24686614998E+01  0.57613232863E+01  0.51100000000E-03 0.  1.
        -12    1    3    3    0    0 -0.17139913874E+02  0.29688439977E+02  0.46378501142E+01  0.34593204095E+02  0.00000000000E+00 0.  1.
</event>
<event>
 7    1  0.2328615E-009  0.4778727E+02  0.7816164E-02  0.1312668E+00
        -11   -1    0    0    0    0  0.00000000000E+00  0.00000000000E+00  0.45593999997E+02  0.45594000000E+02  0.51100000000E-03 0. -1.
         11   -1    0    0    0    0 -0.00000000000E+00 -0.00000000000E+00 -0.45593999997E+02  0.45594000000E+02  0.51100000000E-03 0.  1.
    9900012    2    1    2    0    0  0.29755705491E+02  0.28093271501E+02 -0.14456455469E+02  0.47787273997E+02  0.20000013460E+02 0.  0.
         12    1    1    2    0    0 -0.29755705491E+02 -0.28093271501E+02  0.14456455469E+02  0.43400726003E+02  0.00000000000E+00 0. -1.
         11    1    3    3    0    0  0.12485728474E+02  0.93486440901E+01 -0.97609587201E+01  0.18400186881E+02  0.51100000000E-03 0. -1.
        -11    1    3    3    0    0  0.12593956922E+02  0.11450609073E+02 -0.94866556976E+01  0.19486426960E+02  0.51100000000E-03 0.  1.
         12    1    3    3    0    0  0.46760200950E+01  0.72940183381E+01  0.47911589486E+01  0.99006601556E+01  0.00000000000E+00 0. -1.
</event>
<event>
 7    1  0.2328615E-009  0.4778727E+02  0.7816164E-02  0.1312668E+00
        -11   -1    0    0    0    0  0.00000000000E+00  0.00000000000E+00  0.45593999997E+02  0.45594000000E+02  0.51100000000E-03 0. -1.
         11   -1    0    0    0    0 -0.00000000000E+00 -0.00000000000E+00 -0.45593999997E+02  0.45594000000E+02  0.51100000000E-03 0.  1.
    9900012    2    1    2    0    0  0.81717967951E-01  0.54781411922E+01 -0.43053530988E+02  0.47787271443E+02  0.20000001815E+02 0.  0.
         12    1    1    2    0    0 -0.81717967951E-01 -0.54781411922E+01  0.43053530988E+02  0.43400728557E+02  0.00000000000E+00 0. -1.
         11    1    3    3    0    0  0.35675325349E+01  0.67499149343E+01 -0.20167150060E+02  0.21563918517E+02  0.51100000000E-03 0. -1.
        -11    1    3    3    0    0  0.10621131312E+01  0.31543711551E+01 -0.17748942918E+02  0.18058325412E+02  0.51100000000E-03 0.  1.
         12    1    3    3    0    0 -0.45479276982E+01 -0.44261448972E+01 -0.51374380103E+01  0.81650275143E+01  0.00000000000E+00 0. -1.
</event>
<event>
 7    1  0.2328615E-009  0.4778727E+02  0.7816164E-02  0.1312668E+00
        -11   -1    0    0    0    0  0.00000000000E+00  0.00000000000E+00  0.45593999997E+02  0.45594000000E+02  0.51100000000E-03 0.  1.
         11   -1    0    0    0    0 -0.00000000000E+00 -0.00000000000E+00 -0.45593999997E+02  0.45594000000E+02  0.51100000000E-03 0. -1.
    9900012    2    1    2    0    0  0.13847861599E+02 -0.16447094607E+02  0.37700834392E+02  0.47787272982E+02  0.20000008835E+02 0.  0.
         12    1    1    2    0    0 -0.13847861599E+02  0.16447094607E+02 -0.37700834392E+02  0.43400727018E+02  0.00000000000E+00 0. -1.
         11    1    3    3    0    0  0.39051215442E+01 -0.99905244364E+01  0.13752993847E+02  0.17441484822E+02  0.51100000000E-03 0.  1.
        -11    1    3    3    0    0  0.12790602682E+02 -0.73394246705E+01  0.22794811821E+02  0.27149035299E+02  0.51100000000E-03 0. -1.
        -12    1    3    3    0    0 -0.28478626279E+01  0.88285449992E+00  0.11530287244E+01  0.31967528611E+01  0.00000000000E+00 0.  1.
</event>
<event>
 7    1  0.2328615E-009  0.4778727E+02  0.7816164E-02  0.1312668E+00
        -11   -1    0    0    0    0  0.00000000000E+00  0.00000000000E+00  0.45593999997E+02  0.45594000000E+02  0.51100000000E-03 0.  1.
         11   -1    0    0    0    0 -0.00000000000E+00 -0.00000000000E+00 -0.45593999997E+02  0.45594000000E+02  0.51100000000E-03 0. -1.
    9900012    2    1    2    0    0  0.53741902706E+01 -0.32680116124E+02  0.28049085011E+02  0.47787273267E+02  0.20000010136E+02 0.  0.
         12    1    1    2    0    0 -0.53741902706E+01  0.32680116124E+02 -0.28049085011E+02  0.43400726733E+02  0.00000000000E+00 0. -1.
         11    1    3    3    0    0 -0.22351908002E+01 -0.18522789773E+01  0.36841008411E+01  0.46903746750E+01  0.51100000000E-03 0. -1.
        -11    1    3    3    0    0 -0.45263309558E+01 -0.11918722227E+02  0.60618691991E+01  0.14117006407E+02  0.51100000000E-03 0.  1.
         12    1    3    3    0    0  0.12135712027E+02 -0.18909114920E+02  0.18303114971E+02  0.28979892186E+02  0.00000000000E+00 0. -1.
</event>
<event>
 7    1  0.2328615E-009  0.4778726E+02  0.7816164E-02  0.1312668E+00
        -11   -1    0    0    0    0  0.00000000000E+00  0.00000000000E+00  0.45593999997E+02  0.45594000000E+02  0.51100000000E-03 0. -1.
         11   -1    0    0    0    0 -0.00000000000E+00 -0.00000000000E+00 -0.45593999997E+02  0.45594000000E+02  0.51100000000E-03 0.  1.
    9900012    2    1    2    0    0  0.13667500345E+02  0.11712545020E+02 -0.39492280625E+02  0.47787256856E+02  0.19999935308E+02 0.  0.
         12    1    1    2    0    0 -0.13667500345E+02 -0.11712545020E+02  0.39492280625E+02  0.43400743144E+02  0.00000000000E+00 0. -1.
         11    1    3    3    0    0  0.20910983409E+00  0.42405430792E+01 -0.13031424370E+02  0.13705617604E+02  0.51100000000E-03 0. -1.
        -11    1    3    3    0    0  0.65653537222E+01  0.10985574347E+02 -0.21068800318E+02  0.24651187808E+02  0.51100000000E-03 0.  1.
        -12    1    3    3    0    0  0.68930367886E+01 -0.35135724060E+01 -0.53920559371E+01  0.94304514446E+01  0.00000000000E+00 0.  1.
</event>
<event>
 7    1  0.2328615E-009  0.4778727E+02  0.7816164E-02  0.1312668E+00
        -11   -1    0    0    0    0  0.00000000000E+00  0.00000000000E+00  0.45593999997E+02  0.45594000000E+02  0.51100000000E-03 0.  1.
         11   -1    0    0    0    0 -0.00000000000E+00 -0.00000000000E+00 -0.45593999997E+02  0.45594000000E+02  0.51100000000E-03 0. -1.
    9900012    2    1    2    0    0 -0.39146760851E+02  0.46340195694E+01  0.18157111435E+02  0.47787265926E+02  0.19999976664E+02 0.  0.
         12    1    1    2    0    0  0.39146760851E+02 -0.46340195694E+01 -0.18157111435E+02  0.43400734074E+02  0.00000000000E+00 0. -1.
         11    1    3    3    0    0 -0.52554325419E+01 -0.38742286026E+01 -0.36141395694E+00  0.65391007621E+01  0.51100000000E-03 0. -1.
        -11    1    3    3    0    0 -0.11118392750E+02 -0.12297033090E+01  0.10150646583E+02  0.15105179704E+02  0.51100000000E-03 0.  1.
         12    1    3    3    0    0 -0.22772935558E+02  0.97379514810E+01  0.83678788085E+01  0.26142985460E+02  0.00000000000E+00 0. -1.
</event>
<event>
 7    1  0.2328615E-009  0.4778726E+02  0.7816164E-02  0.1312668E+00
        -11   -1    0    0    0    0  0.00000000000E+00  0.00000000000E+00  0.45593999997E+02  0.45594000000E+02  0.51100000000E-03 0.  1.
         11   -1    0    0    0    0 -0.00000000000E+00 -0.00000000000E+00 -0.45593999997E+02  0.45594000000E+02  0.51100000000E-03 0. -1.
    9900012    2    1    2    0    0  0.27821771503E+02 -0.33274921877E+02  0.15337551771E+01  0.47787264978E+02  0.19999972341E+02 0.  0.
         12    1    1    2    0    0 -0.27821771503E+02  0.33274921877E+02 -0.15337551771E+01  0.43400735022E+02  0.00000000000E+00 0. -1.
         11    1    3    3    0    0  0.11553557251E+01 -0.10523087458E+02  0.71094741056E+00  0.10610167905E+02  0.51100000000E-03 0. -1.
        -11    1    3    3    0    0  0.10822077850E+02 -0.17199398245E+02  0.14845570832E+01  0.20374998870E+02  0.51100000000E-03 0.  1.
         12    1    3    3    0    0  0.15844337928E+02 -0.55524361743E+01 -0.66174931665E+00  0.16802098203E+02  0.00000000000E+00 0. -1.
</event>
<event>
 7    1  0.2328615E-009  0.4778727E+02  0.7816164E-02  0.1312668E+00
        -11   -1    0    0    0    0  0.00000000000E+00  0.00000000000E+00  0.45593999997E+02  0.45594000000E+02  0.51100000000E-03 0. -1.
         11   -1    0    0    0    0 -0.00000000000E+00 -0.00000000000E+00 -0.45593999997E+02  0.45594000000E+02  0.51100000000E-03 0.  1.
    9900012    2    1    2    0    0 -0.75100695534E+01  0.31509084009E+02 -0.28885978022E+02  0.47787271365E+02  0.20000001460E+02 0.  0.
         12    1    1    2    0    0  0.75100695534E+01 -0.31509084009E+02  0.28885978022E+02  0.43400728635E+02  0.00000000000E+00 0. -1.
         11    1    3    3    0    0  0.45256038075E+01  0.11090861402E+02 -0.33219717564E+01  0.12430759956E+02  0.51100000000E-03 0.  1.
        -11    1    3    3    0    0 -0.15451454187E+01  0.42735129452E+01 -0.21051788689E+01  0.50082098187E+01  0.51100000000E-03 0. -1.
         12    1    3    3    0    0 -0.10490527942E+02  0.16144709662E+02 -0.23458827397E+02  0.30348301590E+02  0.00000000000E+00 0. -1.
</event>
<event>
 7    1  0.2328615E-009  0.4778727E+02  0.7816164E-02  0.1312668E+00
        -11   -1    0    0    0    0  0.00000000000E+00  0.00000000000E+00  0.45593999997E+02  0.45594000000E+02  0.51100000000E-03 0. -1.
         11   -1    0    0    0    0 -0.00000000000E+00 -0.00000000000E+00 -0.45593999997E+02  0.45594000000E+02  0.51100000000E-03 0.  1.
    9900012    2    1    2    0    0 -0.16096488124E+02  0.10543379084E+02 -0.38901974931E+02  0.47787269293E+02  0.19999992013E+02 0.  0.
         12    1    1    2    0    0  0.16096488124E+02 -0.10543379084E+02  0.38901974931E+02  0.43400730707E+02  0.00000000000E+00 0. -1.
         11    1    3    3    0    0 -0.33919099511E+00  0.19500713372E+01 -0.65741357186E+01  0.68656455967E+01  0.51100000000E-03 0.  1.
        -11    1    3    3    0    0 -0.12114182400E+02  0.21925817581E+01 -0.62165163783E+01  0.13791515730E+02  0.51100000000E-03 0. -1.
         12    1    3    3    0    0 -0.36431147282E+01  0.64007259893E+01 -0.26111322834E+02  0.27130107966E+02  0.00000000000E+00 0. -1.
</event>
<event>
 7    1  0.2328615E-009  0.4778727E+02  0.7816164E-02  0.1312668E+00
        -11   -1    0    0    0    0  0.00000000000E+00  0.00000000000E+00  0.45593999997E+02  0.45594000000E+02  0.51100000000E-03 0.  1.
         11   -1    0    0    0    0 -0.00000000000E+00 -0.00000000000E+00 -0.45593999997E+02  0.45594000000E+02  0.51100000000E-03 0. -1.
    9900012    2    1    2    0    0  0.26427176649E+01 -0.92359844992E+01  0.42324177591E+02  0.47787269879E+02  0.19999994685E+02 0.  0.
         12    1    1    2    0    0 -0.26427176649E+01  0.92359844992E+01 -0.42324177591E+02  0.43400730121E+02  0.00000000000E+00 0. -1.
         11    1    3    3    0    0  0.59570607351E+01 -0.32749021827E+01  0.72577727943E+01  0.99441853916E+01  0.51100000000E-03 0. -1.
        -11    1    3    3    0    0  0.42132473769E+01 -0.44904685126E+01  0.11287490782E+02  0.12857807330E+02  0.51100000000E-03 0.  1.
         12    1    3    3    0    0 -0.75275904471E+01 -0.14706138038E+01  0.23778914014E+02  0.24985277157E+02  0.00000000000E+00 0. -1.
</event>
<event>
 7    1  0.2328615E-009  0.4778727E+02  0.7816164E-02  0.1312668E+00
        -11   -1    0    0    0    0  0.00000000000E+00  0.00000000000E+00  0.45593999997E+02  0.45594000000E+02  0.51100000000E-03 0. -1.
         11   -1    0    0    0    0 -0.00000000000E+00 -0.00000000000E+00 -0.45593999997E+02  0.45594000000E+02  0.51100000000E-03 0.  1.
    9900012    2    1    2    0    0  0.20077461111E+02 -0.13400456921E+02 -0.36068636595E+02  0.47787271479E+02  0.20000001981E+02 0.  0.
         12    1    1    2    0    0 -0.20077461111E+02  0.13400456921E+02  0.36068636595E+02  0.43400728521E+02  0.00000000000E+00 0. -1.
         11    1    3    3    0    0  0.94704304275E+01 -0.49963440465E+01 -0.23128741013E+02  0.25487078440E+02  0.51100000000E-03 0. -1.
        -11    1    3    3    0    0  0.12021453420E+02 -0.10068974727E+02 -0.98574447104E+01  0.18522116803E+02  0.51100000000E-03 0.  1.
         12    1    3    3    0    0 -0.14144227367E+01  0.16648618527E+01 -0.30824508712E+01  0.37780762354E+01  0.00000000000E+00 0. -1.
</event>
<event>
 7    1  0.2328615E-009  0.4778727E+02  0.7816164E-02  0.1312668E+00
        -11   -1    0    0    0    0  0.00000000000E+00  0.00000000000E+00  0.45593999997E+02  0.45594000000E+02  0.51100000000E-03 0. -1.
         11   -1    0    0    0    0 -0.00000000000E+00 -0.00000000000E+00 -0.45593999997E+02  0.45594000000E+02  0.51100000000E-03 0.  1.
    9900012    2    1    2    0    0 -0.33904550679E+02  0.92955596784E+01 -0.25449904196E+02  0.47787267172E+02  0.19999982343E+02 0.  0.
         12    1    1    2    0    0  0.33904550679E+02 -0.92955596784E+01  0.25449904196E+02  0.43400732828E+02  0.00000000000E+00 0. -1.
         11    1    3    3    0    0 -0.11009640921E+02 -0.25316307317E+01 -0.83384394734E+01  0.14041044138E+02  0.51100000000E-03 0. -1.
        -11    1    3    3    0    0 -0.24207515094E+02  0.88299652751E+01 -0.15766630853E+02  0.30208586900E+02  0.51100000000E-03 0.  1.
        -12    1    3    3    0    0  0.13126053365E+01  0.29972251350E+01 -0.13448338692E+01  0.35376361338E+01  0.00000000000E+00 0.  1.
</event>
<event>
 7    1  0.2328615E-009  0.4778727E+02  0.7816164E-02  0.1312668E+00
        -11   -1    0    0    0    0  0.00000000000E+00  0.00000000000E+00  0.45593999997E+02  0.45594000000E+02  0.51100000000E-03 0.  1.
         11   -1    0    0    0    0 -0.00000000000E+00 -0.00000000000E+00 -0.45593999997E+02  0.45594000000E+02  0.51100000000E-03 0. -1.
    9900012    2    1    2    0    0  0.13763899812E+02  0.27447234081E+02  0.30672910624E+02  0.47787273706E+02  0.20000012134E+02 0.  0.
         12    1    1    2    0    0 -0.13763899812E+02 -0.27447234081E+02 -0.30672910624E+02  0.43400726294E+02  0.00000000000E+00 0. -1.
         11    1    3    3    0    0  0.68034432902E+01  0.14684987554E+02  0.11960644833E+02  0.20124431052E+02  0.51100000000E-03 0. -1.
        -11    1    3    3    0    0  0.79200606943E+01  0.13190400324E+02  0.20474612469E+02  0.25611008924E+02  0.51100000000E-03 0.  1.
         12    1    3    3    0    0 -0.95960417217E+00 -0.42815379730E+00 -0.17623466780E+01  0.20518337298E+01  0.00000000000E+00 0. -1.
</event>
<event>
 7    1  0.2328615E-009  0.4778727E+02  0.7816164E-02  0.1312668E+00
        -11   -1    0    0    0    0  0.00000000000E+00  0.00000000000E+00  0.45593999997E+02  0.45594000000E+02  0.51100000000E-03 0.  1.
         11   -1    0    0    0    0 -0.00000000000E+00 -0.00000000000E+00 -0.45593999997E+02  0.45594000000E+02  0.51100000000E-03 0. -1.
    9900012    2    1    2    0    0  0.57790056251E+01  0.17520765471E+02  0.39284212623E+02  0.47787268554E+02  0.19999988644E+02 0.  0.
         12    1    1    2    0    0 -0.57790056251E+01 -0.17520765471E+02 -0.39284212623E+02  0.43400731446E+02  0.00000000000E+00 0. -1.
         11    1    3    3    0    0 -0.29328590053E+01  0.14475386753E+02  0.25545735391E+02  0.29508017225E+02  0.51100000000E-03 0. -1.
        -11    1    3    3    0    0 -0.81248559063E+00 -0.13286933535E+01  0.14449936165E+01  0.21245153978E+01  0.51100000000E-03 0.  1.
        -12    1    3    3    0    0  0.95243502211E+01  0.43740720710E+01  0.12293483615E+02  0.16154735931E+02  0.00000000000E+00 0.  1.
</event>
<event>
 7    1  0.2328615E-009  0.4778727E+02  0.7816164E-02  0.1312668E+00
        -11   -1    0    0    0    0  0.00000000000E+00  0.00000000000E+00  0.45593999997E+02  0.45594000000E+02  0.51100000000E-03 0.  1.
         11   -1    0    0    0    0 -0.00000000000E+00 -0.00000000000E+00 -0.45593999997E+02  0.45594000000E+02  0.51100000000E-03 0. -1.
    9900012    2    1    2    0    0  0.23038777571E+02  0.15078851432E+02  0.33547968972E+02  0.47787271267E+02  0.20000001014E+02 0.  0.
         12    1    1    2    0    0 -0.23038777571E+02 -0.15078851432E+02 -0.33547968972E+02  0.43400728733E+02  0.00000000000E+00 0. -1.
         11    1    3    3    0    0  0.49045922341E+01  0.50044474051E+01  0.14208832555E+02  0.15842677856E+02  0.51100000000E-03 0. -1.
        -11    1    3    3    0    0  0.17245082644E+02  0.12169725273E+02  0.20470299097E+02  0.29402860983E+02  0.51100000000E-03 0.  1.
         12    1    3    3    0    0  0.88910269267E+00 -0.20953212463E+01 -0.11311626807E+01  0.25417324276E+01  0.00000000000E+00 0. -1.
</event>
<event>
 7    1  0.2328615E-009  0.4778728E+02  0.7816164E-02  0.1312668E+00
        -11   -1    0    0    0    0  0.00000000000E+00  0.00000000000E+00  0.45593999997E+02  0.45594000000E+02  0.51100000000E-03 0.  1.
         11   -1    0    0    0    0 -0.00000000000E+00 -0.00000000000E+00 -0.45593999997E+02  0.45594000000E+02  0.51100000000E-03 0. -1.
    9900012    2    1    2    0    0 -0.38239133720E+01  0.32321396041E+02  0.28711107024E+02  0.47787278553E+02  0.20000034237E+02 0.  0.
         12    1    1    2    0    0  0.38239133720E+01 -0.32321396041E+02 -0.28711107024E+02  0.43400721447E+02  0.00000000000E+00 0. -1.
         11    1    3    3    0    0 -0.55993304041E+01  0.11213799972E+02  0.17270863740E+02  0.21339740986E+02  0.51100000000E-03 0. -1.
        -11    1    3    3    0    0 -0.45315419972E+01  0.99261325640E+01  0.40782234919E+01  0.11648814861E+02  0.51100000000E-03 0.  1.
         12    1    3    3    0    0  0.63069590293E+01  0.11181463505E+02  0.73620197928E+01  0.14798722706E+02  0.00000000000E+00 0. -1.
</event>
<event>
 7    1  0.2328615E-009  0.4778726E+02  0.7816164E-02  0.1312668E+00
        -11   -1    0    0    0    0  0.00000000000E+00  0.00000000000E+00  0.45593999997E+02  0.45594000000E+02  0.51100000000E-03 0.  1.
         11   -1    0    0    0    0 -0.00000000000E+00 -0.00000000000E+00 -0.45593999997E+02  0.45594000000E+02  0.51100000000E-03 0. -1.
    9900012    2    1    2    0    0 -0.34376584214E+02 -0.33277787969E+01  0.26283078492E+02  0.47787264188E+02  0.19999968741E+02 0.  0.
         12    1    1    2    0    0  0.34376584214E+02  0.33277787969E+01 -0.26283078492E+02  0.43400735812E+02  0.00000000000E+00 0. -1.
         11    1    3    3    0    0 -0.12194752481E+02 -0.52367267262E+01  0.89135915620E+01  0.15987101353E+02  0.51100000000E-03 0. -1.
        -11    1    3    3    0    0 -0.14094062678E+02 -0.39383735441E+00  0.18558843247E+02  0.23307260104E+02  0.51100000000E-03 0.  1.
         12    1    3    3    0    0 -0.80877690553E+01  0.23027852837E+01 -0.11893563169E+01  0.84929027313E+01  0.00000000000E+00 0. -1.
</event>
<event>
 7    1  0.2328615E-009  0.4778727E+02  0.7816164E-02  0.1312668E+00
        -11   -1    0    0    0    0  0.00000000000E+00  0.00000000000E+00  0.45593999997E+02  0.45594000000E+02  0.51100000000E-03 0.  1.
         11   -1    0    0    0    0 -0.00000000000E+00 -0.00000000000E+00 -0.45593999997E+02  0.45594000000E+02  0.51100000000E-03 0. -1.
    9900012    2    1    2    0    0  0.34949030231E+02 -0.22781710710E+02  0.11965866397E+02  0.47787274020E+02  0.20000013567E+02 0.  0.
         12    1    1    2    0    0 -0.34949030231E+02  0.22781710710E+02 -0.11965866397E+02  0.43400725980E+02  0.00000000000E+00 0. -1.
         11    1    3    3    0    0  0.15648162904E+01 -0.48461669332E+01  0.40262299385E+00  0.51084331750E+01  0.51100000000E-03 0.  1.
        -11    1    3    3    0    0  0.65114104527E+01  0.26574937540E+01  0.45636034745E+00  0.70476240084E+01  0.51100000000E-03 0. -1.
         12    1    3    3    0    0  0.26872803488E+02 -0.20593037530E+02  0.11106883056E+02  0.35631216837E+02  0.00000000000E+00 0. -1.
</event>
<event>
 7    1  0.2328615E-009  0.4778727E+02  0.7816164E-02  0.1312668E+00
        -11   -1    0    0    0    0  0.00000000000E+00  0.00000000000E+00  0.45593999997E+02  0.45594000000E+02  0.51100000000E-03 0.  1.
         11   -1    0    0    0    0 -0.00000000000E+00 -0.00000000000E+00 -0.45593999997E+02  0.45594000000E+02  0.51100000000E-03 0. -1.
    9900012    2    1    2    0    0 -0.24545107829E+01  0.40815410777E+02  0.14549934318E+02  0.47787274560E+02  0.20000016028E+02 0.  0.
         12    1    1    2    0    0  0.24545107829E+01 -0.40815410777E+02 -0.14549934318E+02  0.43400725440E+02  0.00000000000E+00 0. -1.
         11    1    3    3    0    0 -0.20469105822E+01  0.15877345351E+02  0.73579951295E+00  0.16025646305E+02  0.51100000000E-03 0. -1.
        -11    1    3    3    0    0 -0.27309316933E+01  0.13672471720E+02  0.20701883467E+00  0.13944078597E+02  0.51100000000E-03 0.  1.
         12    1    3    3    0    0  0.23233314925E+01  0.11265593706E+02  0.13607115970E+02  0.17817549658E+02  0.00000000000E+00 0. -1.
</event>
<event>
 7    1  0.2328615E-009  0.4778724E+02  0.7816164E-02  0.1312668E+00
        -11   -1    0    0    0    0  0.00000000000E+00  0.00000000000E+00  0.45593999997E+02  0.45594000000E+02  0.51100000000E-03 0. -1.
         11   -1    0    0    0    0 -0.00000000000E+00 -0.00000000000E+00 -0.45593999997E+02  0.45594000000E+02  0.51100000000E-03 0.  1.
    9900012    2    1    2    0    0 -0.68700785661E+01 -0.25247613089E+02 -0.34626371454E+02  0.47787244865E+02  0.19999880636E+02 0.  0.
         12    1    1    2    0    0  0.68700785661E+01  0.25247613089E+02  0.34626371454E+02  0.43400755135E+02  0.00000000000E+00 0. -1.
         11    1    3    3    0    0 -0.50556780369E+01 -0.14317673411E+02 -0.19611746941E+02  0.24802747240E+02  0.51100000000E-03 0.  1.
        -11    1    3    3    0    0 -0.72586770512E+00 -0.14022519228E+02 -0.11248942117E+02  0.17991571039E+02  0.51100000000E-03 0. -1.
         12    1    3    3    0    0 -0.10885328241E+01  0.30925795500E+01 -0.37656823967E+01  0.49929265861E+01  0.00000000000E+00 0. -1.
</event>
<event>
 7    1  0.2328615E-009  0.4778727E+02  0.7816164E-02  0.1312668E+00
        -11   -1    0    0    0    0  0.00000000000E+00  0.00000000000E+00  0.45593999997E+02  0.45594000000E+02  0.51100000000E-03 0.  1.
         11   -1    0    0    0    0 -0.00000000000E+00 -0.00000000000E+00 -0.45593999997E+02  0.45594000000E+02  0.51100000000E-03 0. -1.
    9900012    2    1    2    0    0  0.42892048201E+02 -0.49719480010E+01  0.43789409768E+01  0.47787272012E+02  0.20000004411E+02 0.  0.
         12    1    1    2    0    0 -0.42892048201E+02  0.49719480010E+01 -0.43789409768E+01  0.43400727988E+02  0.00000000000E+00 0. -1.
         11    1    3    3    0    0  0.25426634080E+02  0.21205505372E+01  0.69792807166E+01  0.26452236481E+02  0.51100000000E-03 0.  1.
        -11    1    3    3    0    0  0.27366976585E+01  0.19758727860E+01  0.12775367557E+01  0.36091117694E+01  0.51100000000E-03 0. -1.
        -12    1    3    3    0    0  0.14728716462E+02 -0.90683713242E+01 -0.38778764954E+01  0.17725923762E+02  0.00000000000E+00 0.  1.
</event>
<event>
 7    1  0.2328615E-009  0.4778727E+02  0.7816164E-02  0.1312668E+00
        -11   -1    0    0    0    0  0.00000000000E+00  0.00000000000E+00  0.45593999997E+02  0.45594000000E+02  0.51100000000E-03 0.  1.
         11   -1    0    0    0    0 -0.00000000000E+00 -0.00000000000E+00 -0.45593999997E+02  0.45594000000E+02  0.51100000000E-03 0. -1.
    9900012    2    1    2    0    0 -0.12846425740E+02  0.29997557439E+02  0.28613621181E+02  0.47787269319E+02  0.19999992133E+02 0.  0.
         12    1    1    2    0    0  0.12846425740E+02 -0.29997557439E+02 -0.28613621181E+02  0.43400730681E+02  0.00000000000E+00 0. -1.
         11    1    3    3    0    0 -0.36034540682E+01  0.16399370080E+02  0.21814733687E+02  0.27528291381E+02  0.51100000000E-03 0. -1.
        -11    1    3    3    0    0 -0.82310593148E+01  0.87674972081E+01  0.88325258390E+01  0.14920886626E+02  0.51100000000E-03 0.  1.
         12    1    3    3    0    0 -0.10119123567E+01  0.48306901503E+01 -0.20336383448E+01  0.53380913128E+01  0.00000000000E+00 0. -1.
</event>
<event>
 7    1  0.2328615E-009  0.4778727E+02  0.7816164E-02  0.1312668E+00
        -11   -1    0    0    0    0  0.00000000000E+00  0.00000000000E+00  0.45593999997E+02  0.45594000000E+02  0.51100000000E-03 0.  1.
         11   -1    0    0    0    0 -0.00000000000E+00 -0.00000000000E+00 -0.45593999997E+02  0.45594000000E+02  0.51100000000E-03 0. -1.
    9900012    2    1    2    0    0  0.16120615096E+02  0.38271545946E+01  0.40113612152E+02  0.47787271627E+02  0.20000002657E+02 0.  0.
         12    1    1    2    0    0 -0.16120615096E+02 -0.38271545946E+01 -0.40113612152E+02  0.43400728373E+02  0.00000000000E+00 0. -1.
         11    1    3    3    0    0  0.10392997577E+01  0.11814238975E+01  0.85130319395E+00  0.17890287312E+01  0.51100000000E-03 0. -1.
        -11    1    3    3    0    0  0.36022311901E+00  0.19036616858E+01  0.26295124658E+02  0.26366404183E+02  0.51100000000E-03 0.  1.
         12    1    3    3    0    0  0.14721092220E+02  0.74206901125E+00  0.12967184301E+02  0.19631838713E+02  0.00000000000E+00 0. -1.
</event>
<event>
 7    1  0.2328615E-009  0.4778722E+02  0.7816164E-02  0.1312668E+00
        -11   -1    0    0    0    0  0.00000000000E+00  0.00000000000E+00  0.45593999997E+02  0.45594000000E+02  0.51100000000E-03 0.  1.
         11   -1    0    0    0    0 -0.00000000000E+00 -0.00000000000E+00 -0.45593999997E+02  0.45594000000E+02  0.51100000000E-03 0. -1.
    9900012    2    1    2    0    0  0.15723976554E+02  0.18471717145E+02  0.35988603036E+02  0.47787224415E+02  0.19999787395E+02 0.  0.
         12    1    1    2    0    0 -0.15723976554E+02 -0.18471717145E+02 -0.35988603036E+02  0.43400775585E+02  0.00000000000E+00 0. -1.
         11    1    3    3    0    0 -0.38939195648E+00  0.78795429374E+01  0.17507411574E+01  0.80810839532E+01  0.51100000000E-03 0. -1.
        -11    1    3    3    0    0  0.38802918279E+01 -0.51093272387E-01  0.60675884543E+01  0.72024235576E+01  0.51100000000E-03 0.  1.
         12    1    3    3    0    0  0.12233076682E+02  0.10643267480E+02  0.28170273424E+02  0.32503716904E+02  0.00000000000E+00 0. -1.
</event>
<event>
 7    1  0.2328615E-009  0.4778727E+02  0.7816164E-02  0.1312668E+00
        -11   -1    0    0    0    0  0.00000000000E+00  0.00000000000E+00  0.45593999997E+02  0.45594000000E+02  0.51100000000E-03 0. -1.
         11   -1    0    0    0    0 -0.00000000000E+00 -0.00000000000E+00 -0.45593999997E+02  0.45594000000E+02  0.51100000000E-03 0.  1.
    9900012    2    1    2    0    0  0.62394780003E+01  0.79975761439E+01 -0.42198705580E+02  0.47787273480E+02  0.20000011104E+02 0.  0.
         12    1    1    2    0    0 -0.62394780003E+01 -0.79975761439E+01  0.42198705580E+02  0.43400726520E+02  0.00000000000E+00 0. -1.
         11    1    3    3    0    0 -0.33119804185E+01  0.91217424961E+01 -0.16235727787E+02  0.18914921557E+02  0.51100000000E-03 0. -1.
        -11    1    3    3    0    0  0.28589685441E+01  0.18728392956E+01 -0.16761250138E+02  0.17106160721E+02  0.51100000000E-03 0.  1.
        -12    1    3    3    0    0  0.66924898746E+01 -0.29970056478E+01 -0.92017276543E+01  0.11766191202E+02  0.00000000000E+00 0.  1.
</event>
<event>
 7    1  0.2328615E-009  0.4778727E+02  0.7816164E-02  0.1312668E+00
        -11   -1    0    0    0    0  0.00000000000E+00  0.00000000000E+00  0.45593999997E+02  0.45594000000E+02  0.51100000000E-03 0.  1.
         11   -1    0    0    0    0 -0.00000000000E+00 -0.00000000000E+00 -0.45593999997E+02  0.45594000000E+02  0.51100000000E-03 0. -1.
    9900012    2    1    2    0    0  0.10073328671E+02  0.41887224289E+02 -0.52547157012E+01  0.47787267906E+02  0.19999985692E+02 0.  0.
         12    1    1    2    0    0 -0.10073328671E+02 -0.41887224289E+02  0.52547157012E+01  0.43400732094E+02  0.00000000000E+00 0. -1.
         11    1    3    3    0    0 -0.29622581297E+01  0.41337873394E+01 -0.17285686111E+01  0.53713239243E+01  0.51100000000E-03 0. -1.
        -11    1    3    3    0    0 -0.18390660577E+01  0.13205317218E+02 -0.31983385980E+01  0.13711015164E+02  0.51100000000E-03 0.  1.
        -12    1    3    3    0    0  0.14874652858E+02  0.24548119732E+02 -0.32780849215E+00  0.28704928818E+02  0.00000000000E+00 0.  1.
</event>
<event>
 7    1  0.2431840E-009  0.4778727E+02  0.7816164E-02  0.1312668E+00
        -11   -1    0    0    0    0  0.00000000000E+00  0.00000000000E+00  0.45593999997E+02  0.45594000000E+02  0.51100000000E-03 0.  1.
         11   -1    0    0    0    0 -0.00000000000E+00 -0.00000000000E+00 -0.45593999997E+02  0.45594000000E+02  0.51100000000E-03 0. -1.
    9900012    2    1    2    0    0 -0.33593854259E+02 -0.15111358714E+02  0.22950449385E+02  0.47787270362E+02  0.19999996887E+02 0.  0.
         12    1    1    2    0    0  0.33593854259E+02  0.15111358714E+02 -0.22950449385E+02  0.43400729638E+02  0.00000000000E+00 0. -1.
         11    1    3    3    0    0 -0.12883378016E+02 -0.76101595512E+01  0.25666619480E+01  0.15181690002E+02  0.51100000000E-03 0.  1.
        -11    1    3    3    0    0  0.15360598070E+01 -0.30865498374E+00 -0.30631657479E-01  0.15670629181E+01  0.51100000000E-03 0. -1.
        -12    1    3    3    0    0 -0.22246536051E+02 -0.71925441788E+01  0.20414419095E+02  0.31038517442E+02  0.00000000000E+00 0.  1.
</event>
<event>
 7    1  0.2328615E-009  0.4778727E+02  0.7816164E-02  0.1312668E+00
        -11   -1    0    0    0    0  0.00000000000E+00  0.00000000000E+00  0.45593999997E+02  0.45594000000E+02  0.51100000000E-03 0.  1.
         11   -1    0    0    0    0 -0.00000000000E+00 -0.00000000000E+00 -0.45593999997E+02  0.45594000000E+02  0.51100000000E-03 0. -1.
    9900012    2    1    2    0    0  0.37601837292E+02  0.20397893837E+02  0.73246819702E+01  0.47787271818E+02  0.20000003527E+02 0.  0.
         12    1    1    2    0    0 -0.37601837292E+02 -0.20397893837E+02 -0.73246819702E+01  0.43400728182E+02  0.00000000000E+00 0. -1.
         11    1    3    3    0    0  0.86932647955E+01 -0.13678114925E+01 -0.11922501388E+01  0.88806093113E+01  0.51100000000E-03 0. -1.
        -11    1    3    3    0    0  0.13905205995E+02  0.39271135662E+01  0.13080044361E+01  0.14508199426E+02  0.51100000000E-03 0.  1.
        -12    1    3    3    0    0  0.15003366501E+02  0.17838591764E+02  0.72089276729E+01  0.24398463080E+02  0.00000000000E+00 0.  1.
</event>
<event>
 7    1  0.2328615E-009  0.4778728E+02  0.7816164E-02  0.1312668E+00
        -11   -1    0    0    0    0  0.00000000000E+00  0.00000000000E+00  0.45593999997E+02  0.45594000000E+02  0.51100000000E-03 0. -1.
         11   -1    0    0    0    0 -0.00000000000E+00 -0.00000000000E+00 -0.45593999997E+02  0.45594000000E+02  0.51100000000E-03 0.  1.
    9900012    2    1    2    0    0  0.26733415681E+02 -0.64133223726E+01 -0.33582979493E+02  0.47787277316E+02  0.20000028596E+02 0.  0.
         12    1    1    2    0    0 -0.26733415681E+02  0.64133223726E+01  0.33582979493E+02  0.43400722684E+02  0.00000000000E+00 0. -1.
         11    1    3    3    0    0  0.10204559400E+01  0.16836525176E+01 -0.45033360197E+01  0.49148806388E+01  0.51100000000E-03 0. -1.
        -11    1    3    3    0    0  0.79706680949E+01 -0.10455110482E+02 -0.87805718696E+01  0.15809469558E+02  0.51100000000E-03 0.  1.
         12    1    3    3    0    0  0.17742291646E+02  0.23581355919E+01 -0.20299071604E+02  0.27062927120E+02  0.00000000000E+00 0. -1.
</event>
<event>
 7    1  0.2328615E-009  0.4778727E+02  0.7816164E-02  0.1312668E+00
        -11   -1    0    0    0    0  0.00000000000E+00  0.00000000000E+00  0.45593999997E+02  0.45594000000E+02  0.51100000000E-03 0.  1.
         11   -1    0    0    0    0 -0.00000000000E+00 -0.00000000000E+00 -0.45593999997E+02  0.45594000000E+02  0.51100000000E-03 0. -1.
    9900012    2    1    2    0    0  0.32033047712E+02  0.11404806705E+01  0.29261006304E+02  0.47787270377E+02  0.19999996956E+02 0.  0.
         12    1    1    2    0    0 -0.32033047712E+02 -0.11404806705E+01 -0.29261006304E+02  0.43400729623E+02  0.00000000000E+00 0. -1.
         11    1    3    3    0    0 -0.14125269304E+01 -0.99701562599E+00  0.37848451424E+01  0.41610486059E+01  0.51100000000E-03 0. -1.
        -11    1    3    3    0    0  0.10028062853E+02  0.53249389618E+01  0.11543253953E+02  0.16191470953E+02  0.51100000000E-03 0.  1.
         12    1    3    3    0    0  0.23417511789E+02 -0.31874426653E+01  0.13932907209E+02  0.27434750818E+02  0.00000000000E+00 0. -1.
</event>
<event>
 7    1  0.2328615E-009  0.4778727E+02  0.7816164E-02  0.1312668E+00
        -11   -1    0    0    0    0  0.00000000000E+00  0.00000000000E+00  0.45593999997E+02  0.45594000000E+02  0.51100000000E-03 0.  1.
         11   -1    0    0    0    0 -0.00000000000E+00 -0.00000000000E+00 -0.45593999997E+02  0.45594000000E+02  0.51100000000E-03 0. -1.
    9900012    2    1    2    0    0 -0.13759265162E+01  0.21000017655E+02  0.37956943309E+02  0.47787268893E+02  0.19999990189E+02 0.  0.
         12    1    1    2    0    0  0.13759265162E+01 -0.21000017655E+02 -0.37956943309E+02  0.43400731107E+02  0.00000000000E+00 0. -1.
         11    1    3    3    0    0 -0.33878044471E+01  0.16414806265E+02  0.21067297010E+02  0.26921257163E+02  0.51100000000E-03 0. -1.
        -11    1    3    3    0    0  0.20512328862E+01  0.81284165585E+01  0.13888281328E+02  0.16222301644E+02  0.51100000000E-03 0.  1.
         12    1    3    3    0    0 -0.39354955218E-01 -0.35432051680E+01  0.30013649711E+01  0.46437100862E+01  0.00000000000E+00 0. -1.
</event>
<event>
 7    1  0.2328615E-009  0.4778728E+02  0.7816164E-02  0.1312668E+00
        -11   -1    0    0    0    0  0.00000000000E+00  0.00000000000E+00  0.45593999997E+02  0.45594000000E+02  0.51100000000E-03 0.  1.
         11   -1    0    0    0    0 -0.00000000000E+00 -0.00000000000E+00 -0.45593999997E+02  0.45594000000E+02  0.51100000000E-03 0. -1.
    9900012    2    1    2    0    0 -0.93106252977E+01 -0.10088336814E+02  0.41172320042E+02  0.47787283177E+02  0.20000055318E+02 0.  0.
         12    1    1    2    0    0  0.93106252977E+01  0.10088336814E+02 -0.41172320042E+02  0.43400716823E+02  0.00000000000E+00 0. -1.
         11    1    3    3    0    0 -0.47492176745E+00  0.38383720480E+01  0.23330509748E+01  0.45168327151E+01  0.51100000000E-03 0. -1.
        -11    1    3    3    0    0  0.16027240851E+01 -0.35651304650E+00  0.16406431540E+01  0.23211066897E+01  0.51100000000E-03 0.  1.
        -12    1    3    3    0    0 -0.10438427615E+02 -0.13570195816E+02  0.37198625913E+02  0.40949343772E+02  0.00000000000E+00 0.  1.
</event>
<event>
 7    1  0.2328615E-009  0.4778727E+02  0.7816164E-02  0.1312668E+00
        -11   -1    0    0    0    0  0.00000000000E+00  0.00000000000E+00  0.45593999997E+02  0.45594000000E+02  0.51100000000E-03 0. -1.
         11   -1    0    0    0    0 -0.00000000000E+00 -0.00000000000E+00 -0.45593999997E+02  0.45594000000E+02  0.51100000000E-03 0.  1.
    9900012    2    1    2    0    0 -0.36116423064E+02 -0.51413091808E+01 -0.23511575757E+02  0.47787271094E+02  0.20000000226E+02 0.  0.
         12    1    1    2    0    0  0.36116423064E+02  0.51413091808E+01  0.23511575757E+02  0.43400728906E+02  0.00000000000E+00 0. -1.
         11    1    3    3    0    0 -0.20169792030E+02  0.21071687357E+01 -0.87293409931E+01  0.22078543092E+02  0.51100000000E-03 0. -1.
        -11    1    3    3    0    0 -0.61108689272E+01 -0.15936700213E+01  0.87232904465E+00  0.63752224593E+01  0.51100000000E-03 0.  1.
        -12    1    3    3    0    0 -0.98357621062E+01 -0.56548078952E+01 -0.15654563808E+02  0.19333505543E+02  0.00000000000E+00 0.  1.
</event>
<event>
 7    1  0.2328615E-009  0.4778727E+02  0.7816164E-02  0.1312668E+00
        -11   -1    0    0    0    0  0.00000000000E+00  0.00000000000E+00  0.45593999997E+02  0.45594000000E+02  0.51100000000E-03 0.  1.
         11   -1    0    0    0    0 -0.00000000000E+00 -0.00000000000E+00 -0.45593999997E+02  0.45594000000E+02  0.51100000000E-03 0. -1.
    9900012    2    1    2    0    0  0.16360433057E+02  0.29502413806E+02  0.27305076228E+02  0.47787269844E+02  0.19999994528E+02 0.  0.
         12    1    1    2    0    0 -0.16360433057E+02 -0.29502413806E+02 -0.27305076228E+02  0.43400730156E+02  0.00000000000E+00 0. -1.
         11    1    3    3    0    0 -0.38597680721E+00 -0.15324489379E+01  0.10301426649E+01  0.18864177730E+01  0.51100000000E-03 0. -1.
        -11    1    3    3    0    0  0.53873641637E+01  0.30314913664E+01  0.95098208963E+01  0.11342412719E+02  0.51100000000E-03 0.  1.
         12    1    3    3    0    0  0.11359045701E+02  0.28003371378E+02  0.16765112667E+02  0.34558439353E+02  0.00000000000E+00 0. -1.
</event>
<event>
 7    1  0.2328615E-009  0.4778728E+02  0.7816164E-02  0.1312668E+00
        -11   -1    0    0    0    0  0.00000000000E+00  0.00000000000E+00  0.45593999997E+02  0.45594000000E+02  0.51100000000E-03 0.  1.
         11   -1    0    0    0    0 -0.00000000000E+00 -0.00000000000E+00 -0.45593999997E+02  0.45594000000E+02  0.51100000000E-03 0. -1.
    9900012    2    1    2    0    0 -0.35845913969E+02 -0.21184191354E+02  0.12244311478E+02  0.47787277942E+02  0.20000031450E+02 0.  0.
         12    1    1    2    0    0  0.35845913969E+02  0.21184191354E+02 -0.12244311478E+02  0.43400722058E+02  0.00000000000E+00 0. -1.
         11    1    3    3    0    0 -0.21551073479E+02 -0.11092342646E+02  0.23305064274E+01  0.24349950594E+02  0.51100000000E-03 0. -1.
        -11    1    3    3    0    0 -0.86940818450E+01 -0.48110724343E+00  0.26401048883E+00  0.87113847984E+01  0.51100000000E-03 0.  1.
        -12    1    3    3    0    0 -0.56007586446E+01 -0.96107414641E+01  0.96497945622E+01  0.14725942550E+02  0.00000000000E+00 0.  1.
</event>
<event>
 7    1  0.2328615E-009  0.4778727E+02  0.7816164E-02  0.1312668E+00
        -11   -1    0    0    0    0  0.00000000000E+00  0.00000000000E+00  0.45593999997E+02  0.45594000000E+02  0.51100000000E-03 0.  1.
         11   -1    0    0    0    0 -0.00000000000E+00 -0.00000000000E+00 -0.45593999997E+02  0.45594000000E+02  0.51100000000E-03 0. -1.
    9900012    2    1    2    0    0 -0.32834553596E+02 -0.28100628281E+02 -0.39837179330E+01  0.47787271571E+02  0.20000002400E+02 0.  0.
         12    1    1    2    0    0  0.32834553596E+02  0.28100628281E+02  0.39837179330E+01  0.43400728429E+02  0.00000000000E+00 0. -1.
         11    1    3    3    0    0 -0.11957346340E+02 -0.17664885322E+02 -0.64483586103E+01  0.22284695061E+02  0.51100000000E-03 0. -1.
        -11    1    3    3    0    0 -0.12845275825E+02 -0.24879014842E+01 -0.22189415207E+01  0.13270812580E+02  0.51100000000E-03 0.  1.
         12    1    3    3    0    0 -0.80319314309E+01 -0.79478414747E+01  0.46835821980E+01  0.12231763929E+02  0.00000000000E+00 0. -1.
</event>
<event>
 7    1  0.2328615E-009  0.4778727E+02  0.7816164E-02  0.1312668E+00
        -11   -1    0    0    0    0  0.00000000000E+00  0.00000000000E+00  0.45593999997E+02  0.45594000000E+02  0.51100000000E-03 0.  1.
         11   -1    0    0    0    0 -0.00000000000E+00 -0.00000000000E+00 -0.45593999997E+02  0.45594000000E+02  0.51100000000E-03 0. -1.
    9900012    2    1    2    0    0  0.33431085498E+02  0.24534894848E+02  0.12807212814E+02  0.47787271402E+02  0.20000001630E+02 0.  0.
         12    1    1    2    0    0 -0.33431085498E+02 -0.24534894848E+02 -0.12807212814E+02  0.43400728598E+02  0.00000000000E+00 0. -1.
         11    1    3    3    0    0  0.16678212561E+02  0.16428958235E+02  0.90564228033E+01  0.25101638137E+02  0.51100000000E-03 0. -1.
        -11    1    3    3    0    0  0.16940996960E+02  0.49654477110E+01  0.61870746648E+01  0.18706494651E+02  0.51100000000E-03 0.  1.
         12    1    3    3    0    0 -0.18812402274E+00  0.31404889025E+01 -0.24362846537E+01  0.39791386139E+01  0.00000000000E+00 0. -1.
</event>
<event>
 7    1  0.2328615E-009  0.4778727E+02  0.7816164E-02  0.1312668E+00
        -11   -1    0    0    0    0  0.00000000000E+00  0.00000000000E+00  0.45593999997E+02  0.45594000000E+02  0.51100000000E-03 0. -1.
         11   -1    0    0    0    0 -0.00000000000E+00 -0.00000000000E+00 -0.45593999997E+02  0.45594000000E+02  0.51100000000E-03 0.  1.
    9900012    2    1    2    0    0  0.97832225569E+01  0.18470839853E+02 -0.38036034713E+02  0.47787270684E+02  0.19999998358E+02 0.  0.
         12    1    1    2    0    0 -0.97832225569E+01 -0.18470839853E+02  0.38036034713E+02  0.43400729316E+02  0.00000000000E+00 0. -1.
         11    1    3    3    0    0  0.58600473299E+01  0.80866176797E+01 -0.11742963374E+02  0.15415275841E+02  0.51100000000E-03 0. -1.
        -11    1    3    3    0    0  0.14296012820E+01  0.77398140963E+01 -0.27451217224E+02  0.28557272443E+02  0.51100000000E-03 0.  1.
        -12    1    3    3    0    0  0.24935739451E+01  0.26444080769E+01  0.11581458848E+01  0.38147223998E+01  0.00000000000E+00 0.  1.
</event>
<event>
 7    1  0.2328615E-009  0.4778727E+02  0.7816164E-02  0.1312668E+00
        -11   -1    0    0    0    0  0.00000000000E+00  0.00000000000E+00  0.45593999997E+02  0.45594000000E+02  0.51100000000E-03 0.  1.
         11   -1    0    0    0    0 -0.00000000000E+00 -0.00000000000E+00 -0.45593999997E+02  0.45594000000E+02  0.51100000000E-03 0. -1.
    9900012    2    1    2    0    0 -0.59525344986E+01 -0.26893013614E+02  0.33540366167E+02  0.47787274075E+02  0.20000013819E+02 0.  0.
         12    1    1    2    0    0  0.59525344986E+01  0.26893013614E+02 -0.33540366167E+02  0.43400725925E+02  0.00000000000E+00 0. -1.
         11    1    3    3    0    0 -0.52313244730E+01 -0.89166605251E+01  0.14650307298E+02  0.17930563150E+02  0.51100000000E-03 0. -1.
        -11    1    3    3    0    0 -0.34949204123E+01 -0.15326329105E+02  0.20382742658E+02  0.25740377445E+02  0.51100000000E-03 0.  1.
         12    1    3    3    0    0  0.27737103867E+01 -0.26500239840E+01 -0.14926837898E+01  0.41163334804E+01  0.00000000000E+00 0. -1.
</event>
<event>
 7    1  0.2328615E-009  0.4778727E+02  0.7816164E-02  0.1312668E+00
        -11   -1    0    0    0    0  0.00000000000E+00  0.00000000000E+00  0.45593999997E+02  0.45594000000E+02  0.51100000000E-03 0. -1.
         11   -1    0    0    0    0 -0.00000000000E+00 -0.00000000000E+00 -0.45593999997E+02  0.45594000000E+02  0.51100000000E-03 0.  1.
    9900012    2    1    2    0    0 -0.19042453438E+02 -0.33556950890E+02  0.19873085874E+02  0.47787268116E+02  0.19999986646E+02 0.  0.
         12    1    1    2    0    0  0.19042453438E+02  0.33556950890E+02 -0.19873085874E+02  0.43400731884E+02  0.00000000000E+00 0. -1.
         11    1    3    3    0    0 -0.13052931090E+01  0.10365301169E+01 -0.65528495612E+00  0.17909727576E+01  0.51100000000E-03 0. -1.
        -11    1    3    3    0    0  0.20231866453E+00 -0.80878164982E+01  0.22443421730E+00  0.80934590584E+01  0.51100000000E-03 0.  1.
         12    1    3    3    0    0 -0.17939478994E+02 -0.26505664508E+02  0.20303936612E+02  0.37902836300E+02  0.00000000000E+00 0. -1.
</event>
<event>
 7    1  0.3106922E-009  0.4778728E+02  0.7816164E-02  0.1312668E+00
        -11   -1    0    0    0    0  0.00000000000E+00  0.00000000000E+00  0.45593999997E+02  0.45594000000E+02  0.51100000000E-03 0. -1.
         11   -1    0    0    0    0 -0.00000000000E+00 -0.00000000000E+00 -0.45593999997E+02  0.45594000000E+02  0.51100000000E-03 0.  1.
    9900012    2    1    2    0    0 -0.80570463012E+01 -0.33028288418E+02 -0.26978492328E+02  0.47787275591E+02  0.20000020729E+02 0.  0.
         12    1    1    2    0    0  0.80570463012E+01  0.33028288418E+02  0.26978492328E+02  0.43400724409E+02  0.00000000000E+00 0. -1.
         11    1    3    3    0    0 -0.18084581446E+01  0.12559279268E+01 -0.23868168126E+01  0.32472712508E+01  0.51100000000E-03 0. -1.
        -11    1    3    3    0    0  0.27340266795E+01 -0.14008969906E+02 -0.13892233687E+02  0.19917838657E+02  0.51100000000E-03 0.  1.
        -12    1    3    3    0    0 -0.89826148362E+01 -0.20275246439E+02 -0.10699441829E+02  0.24622165683E+02  0.00000000000E+00 0.  1.
</event>
<event>
 7    1  0.2328615E-009  0.4778724E+02  0.7816164E-02  0.1312668E+00
        -11   -1    0    0    0    0  0.00000000000E+00  0.00000000000E+00  0.45593999997E+02  0.45594000000E+02  0.51100000000E-03 0.  1.
         11   -1    0    0    0    0 -0.00000000000E+00 -0.00000000000E+00 -0.45593999997E+02  0.45594000000E+02  0.51100000000E-03 0. -1.
    9900012    2    1    2    0    0  0.22632125580E+02 -0.17069358145E+02  0.32864114663E+02  0.47787238159E+02  0.19999850062E+02 0.  0.
         12    1    1    2    0    0 -0.22632125580E+02  0.17069358145E+02 -0.32864114663E+02  0.43400761841E+02  0.00000000000E+00 0. -1.
         11    1    3    3    0    0  0.70012815569E+01 -0.91382260914E+01  0.79023820159E+01  0.13963264709E+02  0.51100000000E-03 0. -1.
        -11    1    3    3    0    0  0.40908339328E+01 -0.60389160065E+01  0.19687940906E+02  0.20995676845E+02  0.51100000000E-03 0.  1.
         12    1    3    3    0    0  0.11540010091E+02 -0.18922160473E+01  0.52737917407E+01  0.12828296605E+02  0.00000000000E+00 0. -1.
</event>
<event>
 7    1  0.2328615E-009  0.4778722E+02  0.7816164E-02  0.1312668E+00
        -11   -1    0    0    0    0  0.00000000000E+00  0.00000000000E+00  0.45593999997E+02  0.45594000000E+02  0.51100000000E-03 0.  1.
         11   -1    0    0    0    0 -0.00000000000E+00 -0.00000000000E+00 -0.45593999997E+02  0.45594000000E+02  0.51100000000E-03 0. -1.
    9900012    2    1    2    0    0  0.43292440358E+02 -0.14310907084E+01  0.27100463497E+01  0.47787219316E+02  0.19999764149E+02 0.  0.
         12    1    1    2    0    0 -0.43292440358E+02  0.14310907084E+01 -0.27100463497E+01  0.43400780684E+02  0.00000000000E+00 0. -1.
         11    1    3    3    0    0  0.52088995220E+01 -0.22412944051E+01  0.67516630733E+01  0.88170850828E+01  0.51100000000E-03 0. -1.
        -11    1    3    3    0    0  0.60675893486E+00  0.87889286107E+00  0.57006384340E+00  0.12106122884E+01  0.51100000000E-03 0.  1.
        -12    1    3    3    0    0  0.37476781901E+02 -0.68689164352E-01 -0.46116805670E+01  0.37759521945E+02  0.00000000000E+00 0.  1.
</event>
<event>
 7    1  0.2328615E-009  0.4778727E+02  0.7816164E-02  0.1312668E+00
        -11   -1    0    0    0    0  0.00000000000E+00  0.00000000000E+00  0.45593999997E+02  0.45594000000E+02  0.51100000000E-03 0.  1.
         11   -1    0    0    0    0 -0.00000000000E+00 -0.00000000000E+00 -0.45593999997E+02  0.45594000000E+02  0.51100000000E-03 0. -1.
    9900012    2    1    2    0    0  0.37506701578E+02  0.21123802601E+02 -0.55367166657E+01  0.47787274995E+02  0.20000018010E+02 0.  0.
         12    1    1    2    0    0 -0.37506701578E+02 -0.21123802601E+02  0.55367166657E+01  0.43400725005E+02  0.00000000000E+00 0. -1.
         11    1    3    3    0    0  0.23692911995E+02  0.12434353113E+02 -0.30147106398E+01  0.26926858277E+02  0.51100000000E-03 0. -1.
        -11    1    3    3    0    0  0.43657537527E+01  0.90839246334E+01 -0.47552008276E+01  0.11144031037E+02  0.51100000000E-03 0.  1.
         12    1    3    3    0    0  0.94480358299E+01 -0.39447514573E+00  0.22331948018E+01  0.97163856813E+01  0.00000000000E+00 0. -1.
</event>
<event>
 7    1  0.2328615E-009  0.4778727E+02  0.7816164E-02  0.1312668E+00
        -11   -1    0    0    0    0  0.00000000000E+00  0.00000000000E+00  0.45593999997E+02  0.45594000000E+02  0.51100000000E-03 0. -1.
         11   -1    0    0    0    0 -0.00000000000E+00 -0.00000000000E+00 -0.45593999997E+02  0.45594000000E+02  0.51100000000E-03 0.  1.
    9900012    2    1    2    0    0  0.36323227457E+02 -0.12925839213E+02 -0.19929099939E+02  0.47787271934E+02  0.20000004055E+02 0.  0.
         12    1    1    2    0    0 -0.36323227457E+02  0.12925839213E+02  0.19929099939E+02  0.43400728066E+02  0.00000000000E+00 0. -1.
         11    1    3    3    0    0  0.35440218023E+01  0.13581413419E+01 -0.40809381736E+01  0.55730328437E+01  0.51100000000E-03 0.  1.
        -11    1    3    3    0    0 -0.13061980953E+01  0.60739516302E+00 -0.21247841828E+01  0.25670587124E+01  0.51100000000E-03 0. -1.
         12    1    3    3    0    0  0.34085403750E+02 -0.14891375718E+02 -0.13723377583E+02  0.39647180378E+02  0.00000000000E+00 0. -1.
</event>
<event>
 7    1  0.2328615E-009  0.4778727E+02  0.7816164E-02  0.1312668E+00
        -11   -1    0    0    0    0  0.00000000000E+00  0.00000000000E+00  0.45593999997E+02  0.45594000000E+02  0.51100000000E-03 0.  1.
         11   -1    0    0    0    0 -0.00000000000E+00 -0.00000000000E+00 -0.45593999997E+02  0.45594000000E+02  0.51100000000E-03 0. -1.
    9900012    2    1    2    0    0  0.24441976085E+01 -0.19979807706E+02  0.38450697342E+02  0.47787274845E+02  0.20000017326E+02 0.  0.
         12    1    1    2    0    0 -0.24441976085E+01  0.19979807706E+02 -0.38450697342E+02  0.43400725155E+02  0.00000000000E+00 0. -1.
         11    1    3    3    0    0  0.43384236357E+00 -0.33531146143E+01  0.28967863562E+01  0.44522992113E+01  0.51100000000E-03 0. -1.
        -11    1    3    3    0    0  0.47923915252E+01 -0.12362948140E+02  0.83737705819E+01  0.15682140710E+02  0.51100000000E-03 0.  1.
         12    1    3    3    0    0 -0.27820362803E+01 -0.42637449517E+01  0.27180140404E+02  0.27652834923E+02  0.00000000000E+00 0. -1.
</event>
<event>
 7    1  0.2328615E-009  0.4778727E+02  0.7816164E-02  0.1312668E+00
        -11   -1    0    0    0    0  0.00000000000E+00  0.00000000000E+00  0.45593999997E+02  0.45594000000E+02  0.51100000000E-03 0. -1.
         11   -1    0    0    0    0 -0.00000000000E+00 -0.00000000000E+00 -0.45593999997E+02  0.45594000000E+02  0.51100000000E-03 0.  1.
    9900012    2    1    2    0    0  0.43099557035E+02 -0.92659096818E+00 -0.50192733125E+01  0.47787268531E+02  0.19999988542E+02 0.  0.
         12    1    1    2    0    0 -0.43099557035E+02  0.92659096818E+00  0.50192733125E+01  0.43400731469E+02  0.00000000000E+00 0. -1.
         11    1    3    3    0    0  0.15191841888E+01  0.21571593524E+01 -0.43887379736E+01  0.51207693107E+01  0.51100000000E-03 0. -1.
        -11    1    3    3    0    0  0.74008900912E+00  0.11760179443E+01 -0.80190089673E+00  0.16043052253E+01  0.51100000000E-03 0.  1.
        -12    1    3    3    0    0  0.40840283837E+02 -0.42597682649E+01  0.17136555789E+00  0.41062193995E+02  0.00000000000E+00 0.  1.
</event>
<event>
 7    1  0.2328615E-009  0.4778728E+02  0.7816164E-02  0.1312668E+00
        -11   -1    0    0    0    0  0.00000000000E+00  0.00000000000E+00  0.45593999997E+02  0.45594000000E+02  0.51100000000E-03 0.  1.
         11   -1    0    0    0    0 -0.00000000000E+00 -0.00000000000E+00 -0.45593999997E+02  0.45594000000E+02  0.51100000000E-03 0. -1.
    9900012    2    1    2    0    0 -0.38095239478E+02  0.15291862188E+02  0.14090220574E+02  0.47787278394E+02  0.20000033511E+02 0.  0.
         12    1    1    2    0    0  0.38095239478E+02 -0.15291862188E+02 -0.14090220574E+02  0.43400721606E+02  0.00000000000E+00 0. -1.
         11    1    3    3    0    0 -0.10557575093E+02  0.76608526556E+00  0.27467581138E+01  0.10935902289E+02  0.51100000000E-03 0. -1.
        -11    1    3    3    0    0 -0.26739318806E+02  0.77841450323E+01  0.11321484862E+02  0.30062603078E+02  0.51100000000E-03 0.  1.
         12    1    3    3    0    0 -0.79834558000E+00  0.67416318899E+01  0.21977597594E-01  0.67887730275E+01  0.00000000000E+00 0. -1.
</event>
<event>
 7    1  0.2328615E-009  0.4778727E+02  0.7816164E-02  0.1312668E+00
        -11   -1    0    0    0    0  0.00000000000E+00  0.00000000000E+00  0.45593999997E+02  0.45594000000E+02  0.51100000000E-03 0.  1.
         11   -1    0    0    0    0 -0.00000000000E+00 -0.00000000000E+00 -0.45593999997E+02  0.45594000000E+02  0.51100000000E-03 0. -1.
    9900012    2    1    2    0    0 -0.10060773932E+02  0.27982493008E+02  0.31613036178E+02  0.47787272547E+02  0.20000006849E+02 0.  0.
         12    1    1    2    0    0  0.10060773932E+02 -0.27982493008E+02 -0.31613036178E+02  0.43400727453E+02  0.00000000000E+00 0. -1.
         11    1    3    3    0    0 -0.34494909660E+01  0.20081895908E+02  0.22611159598E+02  0.30437576609E+02  0.51100000000E-03 0. -1.
        -11    1    3    3    0    0 -0.60818919426E+01  0.36527294630E+01  0.10621393256E+02  0.12772855479E+02  0.51100000000E-03 0.  1.
         12    1    3    3    0    0 -0.52939102349E+00  0.42478676371E+01 -0.16195166761E+01  0.45768404584E+01  0.00000000000E+00 0. -1.
</event>
<event>
 7    1  0.2328615E-009  0.4778727E+02  0.7816164E-02  0.1312668E+00
        -11   -1    0    0    0    0  0.00000000000E+00  0.00000000000E+00  0.45593999997E+02  0.45594000000E+02  0.51100000000E-03 0. -1.
         11   -1    0    0    0    0 -0.00000000000E+00 -0.00000000000E+00 -0.45593999997E+02  0.45594000000E+02  0.51100000000E-03 0.  1.
    9900012    2    1    2    0    0  0.26642915401E+02 -0.20836712264E+02 -0.27195764169E+02  0.47787272959E+02  0.20000008727E+02 0.  0.
         12    1    1    2    0    0 -0.26642915401E+02  0.20836712264E+02  0.27195764169E+02  0.43400727041E+02  0.00000000000E+00 0. -1.
         11    1    3    3    0    0  0.68990714055E+01 -0.71715476835E+01 -0.54175197237E+01  0.11330392873E+02  0.51100000000E-03 0. -1.
        -11    1    3    3    0    0  0.17359293313E+02 -0.15438744451E+02 -0.11821746300E+02  0.26066330398E+02  0.51100000000E-03 0.  1.
        -12    1    3    3    0    0  0.23845506819E+01  0.17735798705E+01 -0.99564981448E+01  0.10390549688E+02  0.00000000000E+00 0.  1.
</event>
<event>
 7    1  0.2328615E-009  0.4778727E+02  0.7816164E-02  0.1312668E+00
        -11   -1    0    0    0    0  0.00000000000E+00  0.00000000000E+00  0.45593999997E+02  0.45594000000E+02  0.51100000000E-03 0.  1.
         11   -1    0    0    0    0 -0.00000000000E+00 -0.00000000000E+00 -0.45593999997E+02  0.45594000000E+02  0.51100000000E-03 0. -1.
    9900012    2    1    2    0    0 -0.13646184656E+02 -0.41198185866E+02  0.33782874801E+00  0.47787274170E+02  0.20000014250E+02 0.  0.
         12    1    1    2    0    0  0.13646184656E+02  0.41198185866E+02 -0.33782874801E+00  0.43400725830E+02  0.00000000000E+00 0. -1.
         11    1    3    3    0    0 -0.85353397949E+01 -0.21713721193E+02 -0.66762937115E+01  0.24267480533E+02  0.51100000000E-03 0. -1.
        -11    1    3    3    0    0 -0.27888244081E+01 -0.39739573325E+01 -0.21999277239E+01  0.53300619800E+01  0.51100000000E-03 0.  1.
        -12    1    3    3    0    0 -0.23220204533E+01 -0.15510507341E+02  0.92140501834E+01  0.18189731656E+02  0.00000000000E+00 0.  1.
</event>
<event>
 7    1  0.2328615E-009  0.4778728E+02  0.7816164E-02  0.1312668E+00
        -11   -1    0    0    0    0  0.00000000000E+00  0.00000000000E+00  0.45593999997E+02  0.45594000000E+02  0.51100000000E-03 0.  1.
         11   -1    0    0    0    0 -0.00000000000E+00 -0.00000000000E+00 -0.45593999997E+02  0.45594000000E+02  0.51100000000E-03 0. -1.
    9900012    2    1    2    0    0 -0.19795699408E+02  0.33144880246E+02  0.19828516116E+02  0.47787275894E+02  0.20000022109E+02 0.  0.
         12    1    1    2    0    0  0.19795699408E+02 -0.33144880246E+02 -0.19828516116E+02  0.43400724106E+02  0.00000000000E+00 0. -1.
         11    1    3    3    0    0 -0.24189332643E+00  0.12913816050E+02  0.75411651998E+01  0.14956414350E+02  0.51100000000E-03 0. -1.
        -11    1    3    3    0    0 -0.16062164013E+02  0.21209104298E+02  0.94739160631E+01  0.28241358036E+02  0.51100000000E-03 0.  1.
        -12    1    3    3    0    0 -0.34916420690E+01 -0.97804010166E+00  0.28134348528E+01  0.45895035079E+01  0.00000000000E+00 0.  1.
</event>
<event>
 7    1  0.2328615E-009  0.4778727E+02  0.7816164E-02  0.1312668E+00
        -11   -1    0    0    0    0  0.00000000000E+00  0.00000000000E+00  0.45593999997E+02  0.45594000000E+02  0.51100000000E-03 0.  1.
         11   -1    0    0    0    0 -0.00000000000E+00 -0.00000000000E+00 -0.45593999997E+02  0.45594000000E+02  0.51100000000E-03 0. -1.
    9900012    2    1    2    0    0  0.22250149199E+02 -0.20828236576E+02  0.30898845500E+02  0.47787271533E+02  0.20000002228E+02 0.  0.
         12    1    1    2    0    0 -0.22250149199E+02  0.20828236576E+02 -0.30898845500E+02  0.43400728467E+02  0.00000000000E+00 0. -1.
         11    1    3    3    0    0 -0.12905917085E+01 -0.25217466605E+01  0.29944007294E+01  0.41220467206E+01  0.51100000000E-03 0. -1.
        -11    1    3    3    0    0  0.13523812008E+02 -0.59208991261E+01  0.46499856603E+01  0.15478142802E+02  0.51100000000E-03 0.  1.
         12    1    3    3    0    0  0.10016928900E+02 -0.12385590789E+02  0.23254459110E+02  0.28187082011E+02  0.00000000000E+00 0. -1.
</event>
<event>
 7    1  0.2328615E-009  0.4778727E+02  0.7816164E-02  0.1312668E+00
        -11   -1    0    0    0    0  0.00000000000E+00  0.00000000000E+00  0.45593999997E+02  0.45594000000E+02  0.51100000000E-03 0.  1.
         11   -1    0    0    0    0 -0.00000000000E+00 -0.00000000000E+00 -0.45593999997E+02  0.45594000000E+02  0.51100000000E-03 0. -1.
    9900012    2    1    2    0    0  0.18062588889E+02  0.38207937949E+02  0.98751969040E+01  0.47787272431E+02  0.20000006320E+02 0.  0.
         12    1    1    2    0    0 -0.18062588889E+02 -0.38207937949E+02 -0.98751969040E+01  0.43400727569E+02  0.00000000000E+00 0. -1.
         11    1    3    3    0    0  0.12601480218E+02  0.12672346392E+02  0.18735989678E+01  0.17969308282E+02  0.51100000000E-03 0. -1.
        -11    1    3    3    0    0  0.28396258097E+01  0.14089901276E+02 -0.18484058623E+01  0.14491562966E+02  0.51100000000E-03 0.  1.
         12    1    3    3    0    0  0.26214828609E+01  0.11445690281E+02  0.98500037985E+01  0.15326401183E+02  0.00000000000E+00 0. -1.
</event>
<event>
 7    1  0.2328615E-009  0.4778727E+02  0.7816164E-02  0.1312668E+00
        -11   -1    0    0    0    0  0.00000000000E+00  0.00000000000E+00  0.45593999997E+02  0.45594000000E+02  0.51100000000E-03 0.  1.
         11   -1    0    0    0    0 -0.00000000000E+00 -0.00000000000E+00 -0.45593999997E+02  0.45594000000E+02  0.51100000000E-03 0. -1.
    9900012    2    1    2    0    0  0.69467150990E+01  0.17149982678E+02  0.39258687796E+02  0.47787270467E+02  0.19999997367E+02 0.  0.
         12    1    1    2    0    0 -0.69467150990E+01 -0.17149982678E+02 -0.39258687796E+02  0.43400729533E+02  0.00000000000E+00 0. -1.
         11    1    3    3    0    0  0.83105394353E+01  0.73024193017E+01  0.12692416779E+02  0.16837097057E+02  0.51100000000E-03 0. -1.
        -11    1    3    3    0    0  0.30843877813E+01  0.10859299048E+02  0.19739263248E+02  0.22739312602E+02  0.51100000000E-03 0.  1.
        -12    1    3    3    0    0 -0.44482121177E+01 -0.10117356718E+01  0.68270077697E+01  0.82108608075E+01  0.00000000000E+00 0.  1.
</event>
<event>
 7    1  0.2328615E-009  0.4778727E+02  0.7816164E-02  0.1312668E+00
        -11   -1    0    0    0    0  0.00000000000E+00  0.00000000000E+00  0.45593999997E+02  0.45594000000E+02  0.51100000000E-03 0.  1.
         11   -1    0    0    0    0 -0.00000000000E+00 -0.00000000000E+00 -0.45593999997E+02  0.45594000000E+02  0.51100000000E-03 0. -1.
    9900012    2    1    2    0    0  0.15002070310E+02  0.37845475094E+02  0.15042635156E+02  0.47787274532E+02  0.20000015902E+02 0.  0.
         12    1    1    2    0    0 -0.15002070310E+02 -0.37845475094E+02 -0.15042635156E+02  0.43400725468E+02  0.00000000000E+00 0. -1.
         11    1    3    3    0    0  0.16099461903E+01 -0.22848000814E+01  0.10481246872E+01  0.29850969447E+01  0.51100000000E-03 0. -1.
        -11    1    3    3    0    0  0.80185445917E+01  0.20184060868E+02  0.92541239051E+01  0.23607883853E+02  0.51100000000E-03 0.  1.
        -12    1    3    3    0    0  0.53735795282E+01  0.19946214307E+02  0.47403865638E+01  0.21194293735E+02  0.00000000000E+00 0.  1.
</event>
<event>
 7    1  0.2328615E-009  0.4778727E+02  0.7816164E-02  0.1312668E+00
        -11   -1    0    0    0    0  0.00000000000E+00  0.00000000000E+00  0.45593999997E+02  0.45594000000E+02  0.51100000000E-03 0.  1.
         11   -1    0    0    0    0 -0.00000000000E+00 -0.00000000000E+00 -0.45593999997E+02  0.45594000000E+02  0.51100000000E-03 0. -1.
    9900012    2    1    2    0    0  0.13491679309E+02  0.38684328172E+02  0.14322027984E+02  0.47787272560E+02  0.20000006911E+02 0.  0.
         12    1    1    2    0    0 -0.13491679309E+02 -0.38684328172E+02 -0.14322027984E+02  0.43400727440E+02  0.00000000000E+00 0. -1.
         11    1    3    3    0    0  0.95157536221E+00  0.65245621388E+01 -0.14015143461E+01  0.67408938203E+01  0.51100000000E-03 0. -1.
        -11    1    3    3    0    0  0.16197592638E+02  0.25435997060E+02  0.11281616849E+02  0.32196689778E+02  0.51100000000E-03 0.  1.
         12    1    3    3    0    0 -0.36574886911E+01  0.67237689732E+01  0.44419254818E+01  0.88496889616E+01  0.00000000000E+00 0. -1.
</event>
<event>
 7    1  0.2328615E-009  0.4778727E+02  0.7816164E-02  0.1312668E+00
        -11   -1    0    0    0    0  0.00000000000E+00  0.00000000000E+00  0.45593999997E+02  0.45594000000E+02  0.51100000000E-03 0.  1.
         11   -1    0    0    0    0 -0.00000000000E+00 -0.00000000000E+00 -0.45593999997E+02  0.45594000000E+02  0.51100000000E-03 0. -1.
    9900012    2    1    2    0    0 -0.24893239797E+02 -0.17728957500E+02  0.30816128839E+02  0.47787272837E+02  0.20000008173E+02 0.  0.
         12    1    1    2    0    0  0.24893239797E+02  0.17728957500E+02 -0.30816128839E+02  0.43400727163E+02  0.00000000000E+00 0. -1.
         11    1    3    3    0    0 -0.14767876943E+02 -0.37961323396E+01  0.17943482340E+02  0.23547173267E+02  0.51100000000E-03 0.  1.
        -11    1    3    3    0    0 -0.10561031105E+02 -0.92918984694E+01  0.13548051669E+02  0.19530091128E+02  0.51100000000E-03 0. -1.
         12    1    3    3    0    0  0.43566825092E+00 -0.46409266914E+01 -0.67540516980E+00  0.47100084419E+01  0.00000000000E+00 0. -1.
</event>
<event>
 7    1  0.2328615E-009  0.4778727E+02  0.7816164E-02  0.1312668E+00
        -11   -1    0    0    0    0  0.00000000000E+00  0.00000000000E+00  0.45593999997E+02  0.45594000000E+02  0.51100000000E-03 0. -1.
         11   -1    0    0    0    0 -0.00000000000E+00 -0.00000000000E+00 -0.45593999997E+02  0.45594000000E+02  0.51100000000E-03 0.  1.
    9900012    2    1    2    0    0  0.39421436771E+02 -0.10650444595E+02 -0.14701752774E+02  0.47787272106E+02  0.20000004839E+02 0.  0.
         12    1    1    2    0    0 -0.39421436771E+02  0.10650444595E+02  0.14701752774E+02  0.43400727894E+02  0.00000000000E+00 0. -1.
         11    1    3    3    0    0  0.30651536705E+02 -0.45872865585E+01 -0.18226151530E+01  0.31046446279E+02  0.51100000000E-03 0. -1.
        -11    1    3    3    0    0  0.12609390049E+01 -0.53754229622E+00 -0.17406876433E+01  0.22156066047E+01  0.51100000000E-03 0.  1.
         12    1    3    3    0    0  0.75089610611E+01 -0.55256157405E+01 -0.11138449978E+02  0.14525219221E+02  0.00000000000E+00 0. -1.
</event>
<event>
 7    1  0.2328615E-009  0.4778727E+02  0.7816164E-02  0.1312668E+00
        -11   -1    0    0    0    0  0.00000000000E+00  0.00000000000E+00  0.45593999997E+02  0.45594000000E+02  0.51100000000E-03 0. -1.
         11   -1    0    0    0    0 -0.00000000000E+00 -0.00000000000E+00 -0.45593999997E+02  0.45594000000E+02  0.51100000000E-03 0.  1.
    9900012    2    1    2    0    0  0.41180294107E+02 -0.85534214990E+01 -0.10707262866E+02  0.47787272815E+02  0.20000008072E+02 0.  0.
         12    1    1    2    0    0 -0.41180294107E+02  0.85534214990E+01  0.10707262866E+02  0.43400727185E+02  0.00000000000E+00 0. -1.
         11    1    3    3    0    0  0.19786381394E+02 -0.90252369356E+00 -0.37396728091E+01  0.20156899332E+02  0.51100000000E-03 0. -1.
        -11    1    3    3    0    0  0.11939513728E+02 -0.32466130106E+01 -0.10894359494E+02  0.16485737870E+02  0.51100000000E-03 0.  1.
         12    1    3    3    0    0  0.94543989854E+01 -0.44042847949E+01  0.39267694362E+01  0.11144635612E+02  0.00000000000E+00 0. -1.
</event>
<event>
 7    1  0.2328615E-009  0.4778727E+02  0.7816164E-02  0.1312668E+00
        -11   -1    0    0    0    0  0.00000000000E+00  0.00000000000E+00  0.45593999997E+02  0.45594000000E+02  0.51100000000E-03 0.  1.
         11   -1    0    0    0    0 -0.00000000000E+00 -0.00000000000E+00 -0.45593999997E+02  0.45594000000E+02  0.51100000000E-03 0. -1.
    9900012    2    1    2    0    0  0.39555514329E+00  0.70304784476E+01  0.42825680605E+02  0.47787274081E+02  0.20000013843E+02 0.  0.
         12    1    1    2    0    0 -0.39555514329E+00 -0.70304784476E+01 -0.42825680605E+02  0.43400725919E+02  0.00000000000E+00 0. -1.
         11    1    3    3    0    0  0.14326155022E+01 -0.34149469842E+01  0.14781238390E+02  0.15238085794E+02  0.51100000000E-03 0. -1.
        -11    1    3    3    0    0  0.11234774406E+01  0.62248764552E+01  0.26950978086E+02  0.27683325459E+02  0.51100000000E-03 0.  1.
         12    1    3    3    0    0 -0.21605377995E+01  0.42205489766E+01  0.10934641291E+01  0.48658628267E+01  0.00000000000E+00 0. -1.
</event>
<event>
 7    1  0.2328615E-009  0.4778727E+02  0.7816164E-02  0.1312668E+00
        -11   -1    0    0    0    0  0.00000000000E+00  0.00000000000E+00  0.45593999997E+02  0.45594000000E+02  0.51100000000E-03 0.  1.
         11   -1    0    0    0    0 -0.00000000000E+00 -0.00000000000E+00 -0.45593999997E+02  0.45594000000E+02  0.51100000000E-03 0. -1.
    9900012    2    1    2    0    0 -0.26943262145E+02 -0.16312594438E+02  0.29859389127E+02  0.47787271535E+02  0.20000002236E+02 0.  0.
         12    1    1    2    0    0  0.26943262145E+02  0.16312594438E+02 -0.29859389127E+02  0.43400728465E+02  0.00000000000E+00 0. -1.
         11    1    3    3    0    0 -0.60302936191E+01 -0.11089184996E+02  0.53317371095E+01  0.13702623321E+02  0.51100000000E-03 0. -1.
        -11    1    3    3    0    0 -0.13295379308E+02 -0.77933947418E+01  0.13860409131E+02  0.20727157405E+02  0.51100000000E-03 0.  1.
         12    1    3    3    0    0 -0.76175892171E+01  0.25699852999E+01  0.10667242886E+02  0.13357490809E+02  0.00000000000E+00 0. -1.
</event>
<event>
 7    1  0.2328615E-009  0.4778727E+02  0.7816164E-02  0.1312668E+00
        -11   -1    0    0    0    0  0.00000000000E+00  0.00000000000E+00  0.45593999997E+02  0.45594000000E+02  0.51100000000E-03 0.  1.
         11   -1    0    0    0    0 -0.00000000000E+00 -0.00000000000E+00 -0.45593999997E+02  0.45594000000E+02  0.51100000000E-03 0. -1.
    9900012    2    1    2    0    0  0.26489122286E+02 -0.79743969864E+01  0.33441868337E+02  0.47787272302E+02  0.20000005735E+02 0.  0.
         12    1    1    2    0    0 -0.26489122286E+02  0.79743969864E+01 -0.33441868337E+02  0.43400727698E+02  0.00000000000E+00 0. -1.
         11    1    3    3    0    0 -0.95921054489E+00 -0.18480006694E+01  0.72533952497E+00  0.22048376428E+01  0.51100000000E-03 0. -1.
        -11    1    3    3    0    0  0.80084504228E+01  0.48937910104E+01  0.92184805033E+01  0.13155411498E+02  0.51100000000E-03 0.  1.
        -12    1    3    3    0    0  0.19439882408E+02 -0.11020187327E+02  0.23498048309E+02  0.32427023162E+02  0.00000000000E+00 0.  1.
</event>
<event>
 7    1  0.2328615E-009  0.4778726E+02  0.7816164E-02  0.1312668E+00
        -11   -1    0    0    0    0  0.00000000000E+00  0.00000000000E+00  0.45593999997E+02  0.45594000000E+02  0.51100000000E-03 0. -1.
         11   -1    0    0    0    0 -0.00000000000E+00 -0.00000000000E+00 -0.45593999997E+02  0.45594000000E+02  0.51100000000E-03 0.  1.
    9900012    2    1    2    0    0  0.19826415547E+01  0.42752815528E+02  0.72034532988E+01  0.47787264493E+02  0.19999970131E+02 0.  0.
         12    1    1    2    0    0 -0.19826415547E+01 -0.42752815528E+02 -0.72034532988E+01  0.43400735507E+02  0.00000000000E+00 0. -1.
         11    1    3    3    0    0  0.27023990460E+01  0.74699183116E+01 -0.44647086198E+01  0.91124235803E+01  0.51100000000E-03 0. -1.
        -11    1    3    3    0    0  0.81267847591E+00 -0.13039423218E-01 -0.86638710050E+00  0.11879575753E+01  0.51100000000E-03 0.  1.
        -12    1    3    3    0    0 -0.15324359673E+01  0.35295936640E+02  0.12534549019E+02  0.37486883338E+02  0.00000000000E+00 0.  1.
</event>
<event>
 7    1  0.2328615E-009  0.4778727E+02  0.7816164E-02  0.1312668E+00
        -11   -1    0    0    0    0  0.00000000000E+00  0.00000000000E+00  0.45593999997E+02  0.45594000000E+02  0.51100000000E-03 0.  1.
         11   -1    0    0    0    0 -0.00000000000E+00 -0.00000000000E+00 -0.45593999997E+02  0.45594000000E+02  0.51100000000E-03 0. -1.
    9900012    2    1    2    0    0  0.21070258256E+01 -0.29575008102E+02  0.31693894352E+02  0.47787267273E+02  0.19999982803E+02 0.  0.
         12    1    1    2    0    0 -0.21070258256E+01  0.29575008102E+02 -0.31693894352E+02  0.43400732727E+02  0.00000000000E+00 0. -1.
         11    1    3    3    0    0  0.37990762916E+01 -0.43492042387E+01  0.93706459713E+01  0.11007159686E+02  0.51100000000E-03 0. -1.
        -11    1    3    3    0    0 -0.19568757338E+01  0.81496215993E+00 -0.47078629786E+00  0.21714432893E+01  0.51100000000E-03 0.  1.
        -12    1    3    3    0    0  0.26482526779E+00 -0.26040766023E+02  0.22794034679E+02  0.34608664297E+02  0.00000000000E+00 0.  1.
</event>
<event>
 7    1  0.2328615E-009  0.4778727E+02  0.7816164E-02  0.1312668E+00
        -11   -1    0    0    0    0  0.00000000000E+00  0.00000000000E+00  0.45593999997E+02  0.45594000000E+02  0.51100000000E-03 0. -1.
         11   -1    0    0    0    0 -0.00000000000E+00 -0.00000000000E+00 -0.45593999997E+02  0.45594000000E+02  0.51100000000E-03 0.  1.
    9900012    2    1    2    0    0  0.17076907979E+02  0.37892441066E+02  0.12496621999E+02  0.47787269160E+02  0.19999991409E+02 0.  0.
         12    1    1    2    0    0 -0.17076907979E+02 -0.37892441066E+02 -0.12496621999E+02  0.43400730840E+02  0.00000000000E+00 0. -1.
         11    1    3    3    0    0  0.87999805998E+00 -0.13404444757E+00  0.18884288900E+01  0.20877088957E+01  0.51100000000E-03 0. -1.
        -11    1    3    3    0    0  0.68564106255E+01  0.29849778744E+01 -0.11717997138E+01  0.75692519053E+01  0.51100000000E-03 0.  1.
        -12    1    3    3    0    0  0.93404992935E+01  0.35041507639E+02  0.11779992822E+02  0.38130308359E+02  0.00000000000E+00 0.  1.
</event>
<event>
 7    1  0.2328615E-009  0.4778727E+02  0.7816164E-02  0.1312668E+00
        -11   -1    0    0    0    0  0.00000000000E+00  0.00000000000E+00  0.45593999997E+02  0.45594000000E+02  0.51100000000E-03 0.  1.
         11   -1    0    0    0    0 -0.00000000000E+00 -0.00000000000E+00 -0.45593999997E+02  0.45594000000E+02  0.51100000000E-03 0. -1.
    9900012    2    1    2    0    0 -0.25800890404E+01 -0.41582057956E+02 -0.12161368823E+02  0.47787270802E+02  0.19999998893E+02 0.  0.
         12    1    1    2    0    0  0.25800890404E+01  0.41582057956E+02  0.12161368823E+02  0.43400729198E+02  0.00000000000E+00 0. -1.
         11    1    3    3    0    0 -0.17685804900E+01 -0.32425765893E+02 -0.17728334479E+02  0.36998000140E+02  0.51100000000E-03 0. -1.
        -11    1    3    3    0    0 -0.54868843015E+00 -0.23933897996E+01  0.11842448220E+01  0.27261345869E+01  0.51100000000E-03 0.  1.
         12    1    3    3    0    0 -0.26282012025E+00 -0.67629022634E+01  0.43827208347E+01  0.80631360744E+01  0.00000000000E+00 0. -1.
</event>
<event>
 7    1  0.2328615E-009  0.4778731E+02  0.7816164E-02  0.1312668E+00
        -11   -1    0    0    0    0  0.00000000000E+00  0.00000000000E+00  0.45593999997E+02  0.45594000000E+02  0.51100000000E-03 0. -1.
         11   -1    0    0    0    0 -0.00000000000E+00 -0.00000000000E+00 -0.45593999997E+02  0.45594000000E+02  0.51100000000E-03 0.  1.
    9900012    2    1    2    0    0 -0.28678498770E+02  0.15594325611E+02 -0.28600365278E+02  0.47787306722E+02  0.20000162670E+02 0.  0.
         12    1    1    2    0    0  0.28678498770E+02 -0.15594325611E+02  0.28600365278E+02  0.43400693278E+02  0.00000000000E+00 0. -1.
         11    1    3    3    0    0 -0.13154248172E+01 -0.17493952996E+01  0.10951040238E+01  0.24474434514E+01  0.51100000000E-03 0. -1.
        -11    1    3    3    0    0 -0.13148304990E+02  0.19695821312E+01 -0.12437466599E+02  0.18205706620E+02  0.51100000000E-03 0.  1.
         12    1    3    3    0    0 -0.14214768962E+02  0.15374138779E+02 -0.17258002703E+02  0.27134156651E+02  0.00000000000E+00 0. -1.
</event>
<event>
 7    1  0.2328615E-009  0.4778727E+02  0.7816164E-02  0.1312668E+00
        -11   -1    0    0    0    0  0.00000000000E+00  0.00000000000E+00  0.45593999997E+02  0.45594000000E+02  0.51100000000E-03 0.  1.
         11   -1    0    0    0    0 -0.00000000000E+00 -0.00000000000E+00 -0.45593999997E+02  0.45594000000E+02  0.51100000000E-03 0. -1.
    9900012    2    1    2    0    0 -0.22805308418E+02 -0.23103774393E+02  0.28805495630E+02  0.47787273488E+02  0.20000011142E+02 0.  0.
         12    1    1    2    0    0  0.22805308418E+02  0.23103774393E+02 -0.28805495630E+02  0.43400726512E+02  0.00000000000E+00 0. -1.
         11    1    3    3    0    0  0.12506877774E+01  0.11028459772E+01  0.11419580873E+01  0.20210288716E+01  0.51100000000E-03 0. -1.
        -11    1    3    3    0    0 -0.38984181555E+01  0.12900261583E+00  0.69896930537E+01  0.80043809902E+01  0.51100000000E-03 0.  1.
        -12    1    3    3    0    0 -0.20157578040E+02 -0.24335622986E+02  0.20673844489E+02  0.37761863626E+02  0.00000000000E+00 0.  1.
</event>
<event>
 7    1  0.2328615E-009  0.4778726E+02  0.7816164E-02  0.1312668E+00
        -11   -1    0    0    0    0  0.00000000000E+00  0.00000000000E+00  0.45593999997E+02  0.45594000000E+02  0.51100000000E-03 0.  1.
         11   -1    0    0    0    0 -0.00000000000E+00 -0.00000000000E+00 -0.45593999997E+02  0.45594000000E+02  0.51100000000E-03 0. -1.
    9900012    2    1    2    0    0 -0.36710770661E+02  0.31736907189E+01 -0.22931881034E+02  0.47787260801E+02  0.19999953294E+02 0.  0.
         12    1    1    2    0    0  0.36710770661E+02 -0.31736907189E+01  0.22931881034E+02  0.43400739199E+02  0.00000000000E+00 0. -1.
         11    1    3    3    0    0 -0.20857361930E+02  0.64135383397E+01 -0.15139876375E+02  0.26558969815E+02  0.51100000000E-03 0. -1.
        -11    1    3    3    0    0 -0.44165721842E+01  0.63936050557E+00 -0.79878373218E+01  0.91498872701E+01  0.51100000000E-03 0.  1.
        -12    1    3    3    0    0 -0.11436836547E+02 -0.38792081264E+01  0.19583266317E+00  0.12078403716E+02  0.00000000000E+00 0.  1.
</event>
<event>
 7    1  0.2328615E-009  0.4778727E+02  0.7816164E-02  0.1312668E+00
        -11   -1    0    0    0    0  0.00000000000E+00  0.00000000000E+00  0.45593999997E+02  0.45594000000E+02  0.51100000000E-03 0.  1.
         11   -1    0    0    0    0 -0.00000000000E+00 -0.00000000000E+00 -0.45593999997E+02  0.45594000000E+02  0.51100000000E-03 0. -1.
    9900012    2    1    2    0    0  0.37078933281E+02  0.84589195589E+01 -0.20909869380E+02  0.47787271309E+02  0.20000001208E+02 0.  0.
         12    1    1    2    0    0 -0.37078933281E+02 -0.84589195589E+01  0.20909869380E+02  0.43400728691E+02  0.00000000000E+00 0. -1.
         11    1    3    3    0    0 -0.43916366876E+00 -0.15883471141E+01 -0.11273571242E+01  0.19966586162E+01  0.51100000000E-03 0. -1.
        -11    1    3    3    0    0 -0.80975333618E+00  0.19426811876E+01 -0.13039654260E+01  0.24758911033E+01  0.51100000000E-03 0.  1.
        -12    1    3    3    0    0  0.38327850286E+02  0.81045854854E+01 -0.18478546830E+02  0.43314721590E+02  0.00000000000E+00 0.  1.
</event>
<event>
 7    1  0.2328615E-009  0.4778727E+02  0.7816164E-02  0.1312668E+00
        -11   -1    0    0    0    0  0.00000000000E+00  0.00000000000E+00  0.45593999997E+02  0.45594000000E+02  0.51100000000E-03 0.  1.
         11   -1    0    0    0    0 -0.00000000000E+00 -0.00000000000E+00 -0.45593999997E+02  0.45594000000E+02  0.51100000000E-03 0. -1.
    9900012    2    1    2    0    0 -0.85280016190E+01  0.20656875768E+02  0.37204704455E+02  0.47787270032E+02  0.19999995385E+02 0.  0.
         12    1    1    2    0    0  0.85280016190E+01 -0.20656875768E+02 -0.37204704455E+02  0.43400729968E+02  0.00000000000E+00 0. -1.
         11    1    3    3    0    0  0.54120056971E+01  0.44641554372E+01  0.55333506866E+01  0.89351250419E+01  0.51100000000E-03 0. -1.
        -11    1    3    3    0    0 -0.59397240357E+00  0.24061744794E+01  0.99865075259E+00  0.26720371308E+01  0.51100000000E-03 0.  1.
        -12    1    3    3    0    0 -0.13346034912E+02  0.13786545852E+02  0.30672703016E+02  0.36180107860E+02  0.00000000000E+00 0.  1.
</event>
<event>
 7    1  0.2328615E-009  0.4778727E+02  0.7816164E-02  0.1312668E+00
        -11   -1    0    0    0    0  0.00000000000E+00  0.00000000000E+00  0.45593999997E+02  0.45594000000E+02  0.51100000000E-03 0. -1.
         11   -1    0    0    0    0 -0.00000000000E+00 -0.00000000000E+00 -0.45593999997E+02  0.45594000000E+02  0.51100000000E-03 0.  1.
    9900012    2    1    2    0    0 -0.21540352624E+02 -0.37088012360E+02 -0.66419755348E+01  0.47787270847E+02  0.19999999102E+02 0.  0.
         12    1    1    2    0    0  0.21540352624E+02  0.37088012360E+02  0.66419755348E+01  0.43400729153E+02  0.00000000000E+00 0. -1.
         11    1    3    3    0    0 -0.37854636011E+01 -0.44361976441E-02 -0.11466014208E+01  0.39553064906E+01  0.51100000000E-03 0. -1.
        -11    1    3    3    0    0 -0.10590131162E+02 -0.74245844008E+01 -0.77313135132E+00  0.12956583805E+02  0.51100000000E-03 0.  1.
        -12    1    3    3    0    0 -0.71647578610E+01 -0.29658991761E+02 -0.47222427626E+01  0.30875380552E+02  0.00000000000E+00 0.  1.
</event>
<event>
 7    1  0.2328615E-009  0.4778727E+02  0.7816164E-02  0.1312668E+00
        -11   -1    0    0    0    0  0.00000000000E+00  0.00000000000E+00  0.45593999997E+02  0.45594000000E+02  0.51100000000E-03 0.  1.
         11   -1    0    0    0    0 -0.00000000000E+00 -0.00000000000E+00 -0.45593999997E+02  0.45594000000E+02  0.51100000000E-03 0. -1.
    9900012    2    1    2    0    0  0.31275970212E+02  0.82876213797E+00  0.30079066632E+02  0.47787269490E+02  0.19999992911E+02 0.  0.
         12    1    1    2    0    0 -0.31275970212E+02 -0.82876213797E+00 -0.30079066632E+02  0.43400730510E+02  0.00000000000E+00 0. -1.
         11    1    3    3    0    0  0.36783612002E+00 -0.33210734092E+01  0.23622163149E+01  0.40920530519E+01  0.51100000000E-03 0. -1.
        -11    1    3    3    0    0  0.16007705263E+02  0.80412770543E+01  0.11271851942E+02  0.21165146134E+02  0.51100000000E-03 0.  1.
         12    1    3    3    0    0  0.14900428829E+02 -0.38914415072E+01  0.16444998375E+02  0.22530070303E+02  0.00000000000E+00 0. -1.
</event>
<event>
 7    1  0.2328615E-009  0.4778727E+02  0.7816164E-02  0.1312668E+00
        -11   -1    0    0    0    0  0.00000000000E+00  0.00000000000E+00  0.45593999997E+02  0.45594000000E+02  0.51100000000E-03 0. -1.
         11   -1    0    0    0    0 -0.00000000000E+00 -0.00000000000E+00 -0.45593999997E+02  0.45594000000E+02  0.51100000000E-03 0.  1.
    9900012    2    1    2    0    0 -0.23131019125E+02  0.31404185873E+02 -0.19035663974E+02  0.47787269142E+02  0.19999991324E+02 0.  0.
         12    1    1    2    0    0  0.23131019125E+02 -0.31404185873E+02  0.19035663974E+02  0.43400730858E+02  0.00000000000E+00 0. -1.
         11    1    3    3    0    0 -0.27987390600E+01  0.43646090154E+01  0.40913380185E+00  0.52009751886E+01  0.51100000000E-03 0. -1.
        -11    1    3    3    0    0 -0.21971897068E+02  0.21810424110E+02 -0.11694268338E+02  0.33094029263E+02  0.51100000000E-03 0.  1.
         12    1    3    3    0    0  0.16396170032E+01  0.52291527479E+01 -0.77505294381E+01  0.94922646902E+01  0.00000000000E+00 0. -1.
</event>
<event>
 7    1  0.2328615E-009  0.4778727E+02  0.7816164E-02  0.1312668E+00
        -11   -1    0    0    0    0  0.00000000000E+00  0.00000000000E+00  0.45593999997E+02  0.45594000000E+02  0.51100000000E-03 0. -1.
         11   -1    0    0    0    0 -0.00000000000E+00 -0.00000000000E+00 -0.45593999997E+02  0.45594000000E+02  0.51100000000E-03 0.  1.
    9900012    2    1    2    0    0  0.34428188837E+02 -0.19590835770E+02 -0.17734770292E+02  0.47787272931E+02  0.20000008602E+02 0.  0.
         12    1    1    2    0    0 -0.34428188837E+02  0.19590835770E+02  0.17734770292E+02  0.43400727069E+02  0.00000000000E+00 0. -1.
         11    1    3    3    0    0  0.64784277132E+01  0.14456679715E+00 -0.42024013824E+01  0.77234126417E+01  0.51100000000E-03 0. -1.
        -11    1    3    3    0    0  0.72668711954E+01 -0.45460492857E+01  0.35062115461E+01  0.92610744920E+01  0.51100000000E-03 0.  1.
        -12    1    3    3    0    0  0.20682889929E+02 -0.15189353282E+02 -0.17038580456E+02  0.30802785797E+02  0.00000000000E+00 0.  1.
</event>
<event>
 7    1  0.2328615E-009  0.4778727E+02  0.7816164E-02  0.1312668E+00
        -11   -1    0    0    0    0  0.00000000000E+00  0.00000000000E+00  0.45593999997E+02  0.45594000000E+02  0.51100000000E-03 0.  1.
         11   -1    0    0    0    0 -0.00000000000E+00 -0.00000000000E+00 -0.45593999997E+02  0.45594000000E+02  0.51100000000E-03 0. -1.
    9900012    2    1    2    0    0 -0.25971755588E+01  0.38642831687E+02  0.19585965157E+02  0.47787265066E+02  0.19999972743E+02 0.  0.
         12    1    1    2    0    0  0.25971755588E+01 -0.38642831687E+02 -0.19585965157E+02  0.43400734934E+02  0.00000000000E+00 0. -1.
         11    1    3    3    0    0 -0.42241221824E+01  0.25354816743E+02  0.57946128679E+01  0.26349335453E+02  0.51100000000E-03 0. -1.
        -11    1    3    3    0    0 -0.95453141536E+00  0.11288961322E+02  0.56368756943E+01  0.12654096009E+02  0.51100000000E-03 0.  1.
        -12    1    3    3    0    0  0.25814780389E+01  0.19990536220E+01  0.81544765949E+01  0.87838336042E+01  0.00000000000E+00 0.  1.
</event>
<event>
 7    1  0.2328615E-009  0.4778727E+02  0.7816164E-02  0.1312668E+00
        -11   -1    0    0    0    0  0.00000000000E+00  0.00000000000E+00  0.45593999997E+02  0.45594000000E+02  0.51100000000E-03 0. -1.
         11   -1    0    0    0    0 -0.00000000000E+00 -0.00000000000E+00 -0.45593999997E+02  0.45594000000E+02  0.51100000000E-03 0.  1.
    9900012    2    1    2    0    0  0.34683719649E+02 -0.17975207300E+02 -0.18909127450E+02  0.47787267436E+02  0.19999983548E+02 0.  0.
         12    1    1    2    0    0 -0.34683719649E+02  0.17975207300E+02  0.18909127450E+02  0.43400732564E+02  0.00000000000E+00 0. -1.
         11    1    3    3    0    0  0.66643843192E+01 -0.19106924913E+01 -0.87510089741E+01  0.11164449045E+02  0.51100000000E-03 0. -1.
        -11    1    3    3    0    0  0.44848002455E+01  0.14697865318E+01  0.16335272027E+01  0.49942083531E+01  0.51100000000E-03 0.  1.
        -12    1    3    3    0    0  0.23534535084E+02 -0.17534301341E+02 -0.11791645678E+02  0.31628610038E+02  0.00000000000E+00 0.  1.
</event>
<event>
 7    1  0.2328615E-009  0.4778727E+02  0.7816164E-02  0.1312668E+00
        -11   -1    0    0    0    0  0.00000000000E+00  0.00000000000E+00  0.45593999997E+02  0.45594000000E+02  0.51100000000E-03 0. -1.
         11   -1    0    0    0    0 -0.00000000000E+00 -0.00000000000E+00 -0.45593999997E+02  0.45594000000E+02  0.51100000000E-03 0.  1.
    9900012    2    1    2    0    0  0.28870851616E+02  0.11680522458E+02 -0.30226852665E+02  0.47787270744E+02  0.19999998628E+02 0.  0.
         12    1    1    2    0    0 -0.28870851616E+02 -0.11680522458E+02  0.30226852665E+02  0.43400729256E+02  0.00000000000E+00 0. -1.
         11    1    3    3    0    0  0.24695092312E+01 -0.39283463308E+01 -0.17822236027E+01  0.49705836648E+01  0.51100000000E-03 0. -1.
        -11    1    3    3    0    0  0.11643149925E+02  0.28640256983E+01 -0.72279099084E+01  0.14000295185E+02  0.51100000000E-03 0.  1.
        -12    1    3    3    0    0  0.14758192460E+02  0.12744843091E+02 -0.21216719154E+02  0.28816391894E+02  0.00000000000E+00 0.  1.
</event>
<event>
 7    1  0.2328615E-009  0.4778727E+02  0.7816164E-02  0.1312668E+00
        -11   -1    0    0    0    0  0.00000000000E+00  0.00000000000E+00  0.45593999997E+02  0.45594000000E+02  0.51100000000E-03 0. -1.
         11   -1    0    0    0    0 -0.00000000000E+00 -0.00000000000E+00 -0.45593999997E+02  0.45594000000E+02  0.51100000000E-03 0.  1.
    9900012    2    1    2    0    0  0.40438394759E+02  0.15751752182E+02 -0.49170110793E+00  0.47787271464E+02  0.20000001914E+02 0.  0.
         12    1    1    2    0    0 -0.40438394759E+02 -0.15751752182E+02  0.49170110793E+00  0.43400728536E+02  0.00000000000E+00 0. -1.
         11    1    3    3    0    0  0.12954542434E+02 -0.18680629190E+01 -0.18015931240E+01  0.13211947880E+02  0.51100000000E-03 0. -1.
        -11    1    3    3    0    0  0.12886696991E+02  0.67646630898E+01 -0.48947194328E+01  0.15355321704E+02  0.51100000000E-03 0.  1.
        -12    1    3    3    0    0  0.14597155334E+02  0.10855152011E+02  0.62046114489E+01  0.19220001880E+02  0.00000000000E+00 0.  1.
</event>
<event>
 7    1  0.2328615E-009  0.4778728E+02  0.7816164E-02  0.1312668E+00
        -11   -1    0    0    0    0  0.00000000000E+00  0.00000000000E+00  0.45593999997E+02  0.45594000000E+02  0.51100000000E-03 0.  1.
         11   -1    0    0    0    0 -0.00000000000E+00 -0.00000000000E+00 -0.45593999997E+02  0.45594000000E+02  0.51100000000E-03 0. -1.
    9900012    2    1    2    0    0 -0.94193390312E+00 -0.28306894820E+02  0.32885483082E+02  0.47787279599E+02  0.20000039002E+02 0.  0.
         12    1    1    2    0    0  0.94193390312E+00  0.28306894820E+02 -0.32885483082E+02  0.43400720401E+02  0.00000000000E+00 0. -1.
         11    1    3    3    0    0 -0.29894854260E+01 -0.94797102449E+01  0.72842505883E+01  0.12323239685E+02  0.51100000000E-03 0. -1.
        -11    1    3    3    0    0  0.69267266647E+01 -0.11970223349E+02  0.80567209022E+01  0.16005515964E+02  0.51100000000E-03 0.  1.
        -12    1    3    3    0    0 -0.48791751418E+01 -0.68569612258E+01  0.17544511592E+02  0.19458523950E+02  0.00000000000E+00 0.  1.
</event>
<event>
 7    1  0.2328615E-009  0.4778727E+02  0.7816164E-02  0.1312668E+00
        -11   -1    0    0    0    0  0.00000000000E+00  0.00000000000E+00  0.45593999997E+02  0.45594000000E+02  0.51100000000E-03 0. -1.
         11   -1    0    0    0    0 -0.00000000000E+00 -0.00000000000E+00 -0.45593999997E+02  0.45594000000E+02  0.51100000000E-03 0.  1.
    9900012    2    1    2    0    0  0.14955860265E+02  0.40621121282E+02 -0.31416846825E+01  0.47787269210E+02  0.19999991637E+02 0.  0.
         12    1    1    2    0    0 -0.14955860265E+02 -0.40621121282E+02  0.31416846825E+01  0.43400730790E+02  0.00000000000E+00 0. -1.
         11    1    3    3    0    0  0.12347936390E+01  0.46576213400E+01 -0.20770403178E+01  0.52471181252E+01  0.51100000000E-03 0. -1.
        -11    1    3    3    0    0  0.17474295458E+02  0.22189675713E+02 -0.35222272463E+00  0.28246358546E+02  0.51100000000E-03 0.  1.
         12    1    3    3    0    0 -0.37532288321E+01  0.13773824229E+02 -0.71242164014E+00  0.14293792539E+02  0.00000000000E+00 0. -1.
</event>
<event>
 7    1  0.2328615E-009  0.4778729E+02  0.7816164E-02  0.1312668E+00
        -11   -1    0    0    0    0  0.00000000000E+00  0.00000000000E+00  0.45593999997E+02  0.45594000000E+02  0.51100000000E-03 0.  1.
         11   -1    0    0    0    0 -0.00000000000E+00 -0.00000000000E+00 -0.45593999997E+02  0.45594000000E+02  0.51100000000E-03 0. -1.
    9900012    2    1    2    0    0 -0.27427595410E+02  0.31651503819E+02  0.11381161760E+02  0.47787291170E+02  0.20000091761E+02 0.  0.
         12    1    1    2    0    0  0.27427595410E+02 -0.31651503819E+02 -0.11381161760E+02  0.43400708830E+02  0.00000000000E+00 0. -1.
         11    1    3    3    0    0 -0.35392835012E+01  0.34048697049E+00 -0.90026346620E-01  0.35567631469E+01  0.51100000000E-03 0. -1.
        -11    1    3    3    0    0 -0.21553430338E+02  0.15077221490E+02  0.75910960310E+01  0.27376955755E+02  0.51100000000E-03 0.  1.
        -12    1    3    3    0    0 -0.23348815702E+01  0.16233795358E+02  0.38800920758E+01  0.16853572268E+02  0.00000000000E+00 0.  1.
</event>
<event>
 7    1  0.2328615E-009  0.4778728E+02  0.7816164E-02  0.1312668E+00
        -11   -1    0    0    0    0  0.00000000000E+00  0.00000000000E+00  0.45593999997E+02  0.45594000000E+02  0.51100000000E-03 0.  1.
         11   -1    0    0    0    0 -0.00000000000E+00 -0.00000000000E+00 -0.45593999997E+02  0.45594000000E+02  0.51100000000E-03 0. -1.
    9900012    2    1    2    0    0  0.19328642016E+01 -0.14386297929E+02  0.40901361452E+02  0.47787275343E+02  0.20000019598E+02 0.  0.
         12    1    1    2    0    0 -0.19328642016E+01  0.14386297929E+02 -0.40901361452E+02  0.43400724657E+02  0.00000000000E+00 0. -1.
         11    1    3    3    0    0 -0.22407748642E+01  0.26618209470E+01  0.47326846669E+01  0.58740673441E+01  0.51100000000E-03 0. -1.
        -11    1    3    3    0    0 -0.39689618184E+01 -0.80725199047E+01  0.13806897779E+02  0.16478733630E+02  0.51100000000E-03 0.  1.
         12    1    3    3    0    0  0.81426008842E+01 -0.89755989715E+01  0.22361779007E+02  0.25434474368E+02  0.00000000000E+00 0. -1.
</event>
<event>
 7    1  0.2328615E-009  0.4778727E+02  0.7816164E-02  0.1312668E+00
        -11   -1    0    0    0    0  0.00000000000E+00  0.00000000000E+00  0.45593999997E+02  0.45594000000E+02  0.51100000000E-03 0.  1.
         11   -1    0    0    0    0 -0.00000000000E+00 -0.00000000000E+00 -0.45593999997E+02  0.45594000000E+02  0.51100000000E-03 0. -1.
    9900012    2    1    2    0    0  0.25415348660E+02  0.10756808440E+02  0.33495887628E+02  0.47787270014E+02  0.19999995302E+02 0.  0.
         12    1    1    2    0    0 -0.25415348660E+02 -0.10756808440E+02 -0.33495887628E+02  0.43400729986E+02  0.00000000000E+00 0. -1.
         11    1    3    3    0    0  0.91034692515E+01  0.82804203494E+01  0.19049484438E+02  0.22678654528E+02  0.51100000000E-03 0. -1.
        -11    1    3    3    0    0  0.37666511370E+01 -0.24595333652E+01  0.99121432995E+01  0.10885198676E+02  0.51100000000E-03 0.  1.
         12    1    3    3    0    0  0.12545228271E+02  0.49359214561E+01  0.45342598904E+01  0.14223416810E+02  0.00000000000E+00 0. -1.
</event>
<event>
 7    1  0.2328615E-009  0.4778727E+02  0.7816164E-02  0.1312668E+00
        -11   -1    0    0    0    0  0.00000000000E+00  0.00000000000E+00  0.45593999997E+02  0.45594000000E+02  0.51100000000E-03 0. -1.
         11   -1    0    0    0    0 -0.00000000000E+00 -0.00000000000E+00 -0.45593999997E+02  0.45594000000E+02  0.51100000000E-03 0.  1.
    9900012    2    1    2    0    0  0.11782268098E+02  0.12530151008E+02 -0.39847168940E+02  0.47787269610E+02  0.19999993462E+02 0.  0.
         12    1    1    2    0    0 -0.11782268098E+02 -0.12530151008E+02  0.39847168940E+02  0.43400730390E+02  0.00000000000E+00 0. -1.
         11    1    3    3    0    0 -0.16665121414E+01  0.78517789674E+01 -0.28356310494E+02  0.29470460477E+02  0.51100000000E-03 0. -1.
        -11    1    3    3    0    0  0.10805087656E+01  0.17300482260E+00 -0.10345175872E+01  0.15058740852E+01  0.51100000000E-03 0.  1.
         12    1    3    3    0    0  0.12368271474E+02  0.45053672178E+01 -0.10456340859E+02  0.16810935048E+02  0.00000000000E+00 0. -1.
</event>
<event>
 7    1  0.2328615E-009  0.4778727E+02  0.7816164E-02  0.1312668E+00
        -11   -1    0    0    0    0  0.00000000000E+00  0.00000000000E+00  0.45593999997E+02  0.45594000000E+02  0.51100000000E-03 0.  1.
         11   -1    0    0    0    0 -0.00000000000E+00 -0.00000000000E+00 -0.45593999997E+02  0.45594000000E+02  0.51100000000E-03 0. -1.
    9900012    2    1    2    0    0 -0.66959861703E-01  0.18751621236E+02  0.39140710017E+02  0.47787274623E+02  0.20000016317E+02 0.  0.
         12    1    1    2    0    0  0.66959861703E-01 -0.18751621236E+02 -0.39140710017E+02  0.43400725377E+02  0.00000000000E+00 0. -1.
         11    1    3    3    0    0  0.56317479039E+01  0.82813390982E+01  0.96189409918E+01  0.13886006905E+02  0.51100000000E-03 0. -1.
        -11    1    3    3    0    0  0.21874920360E+00  0.95160877511E+01  0.11609815170E+02  0.15013047187E+02  0.51100000000E-03 0.  1.
        -12    1    3    3    0    0 -0.59174569692E+01  0.95419438685E+00  0.17911953855E+02  0.18888220531E+02  0.00000000000E+00 0.  1.
</event>
<event>
 7    1  0.2328615E-009  0.4778727E+02  0.7816164E-02  0.1312668E+00
        -11   -1    0    0    0    0  0.00000000000E+00  0.00000000000E+00  0.45593999997E+02  0.45594000000E+02  0.51100000000E-03 0.  1.
         11   -1    0    0    0    0 -0.00000000000E+00 -0.00000000000E+00 -0.45593999997E+02  0.45594000000E+02  0.51100000000E-03 0. -1.
    9900012    2    1    2    0    0 -0.15689174030E+02  0.40239832034E+02 -0.42695210082E+01  0.47787273352E+02  0.20000010523E+02 0.  0.
         12    1    1    2    0    0  0.15689174030E+02 -0.40239832034E+02  0.42695210082E+01  0.43400726648E+02  0.00000000000E+00 0. -1.
         11    1    3    3    0    0 -0.98310382462E+01  0.97474251565E+01 -0.62544488367E+01  0.15191436426E+02  0.51100000000E-03 0. -1.
        -11    1    3    3    0    0 -0.57149004979E+01  0.17702355076E+02 -0.30487445182E+01  0.18850154014E+02  0.51100000000E-03 0.  1.
        -12    1    3    3    0    0 -0.14323528626E+00  0.12790051801E+02  0.50336723468E+01  0.13745682912E+02  0.00000000000E+00 0.  1.
</event>
<event>
 7    1  0.2328615E-009  0.4778727E+02  0.7816164E-02  0.1312668E+00
        -11   -1    0    0    0    0  0.00000000000E+00  0.00000000000E+00  0.45593999997E+02  0.45594000000E+02  0.51100000000E-03 0.  1.
         11   -1    0    0    0    0 -0.00000000000E+00 -0.00000000000E+00 -0.45593999997E+02  0.45594000000E+02  0.51100000000E-03 0. -1.
    9900012    2    1    2    0    0 -0.21356483708E+02 -0.27807629671E+02  0.25578499031E+02  0.47787271009E+02  0.19999999838E+02 0.  0.
         12    1    1    2    0    0  0.21356483708E+02  0.27807629671E+02 -0.25578499031E+02  0.43400728991E+02  0.00000000000E+00 0. -1.
         11    1    3    3    0    0  0.69391685315E+00 -0.44000622101E+00 -0.17773436377E+00  0.84066392738E+00  0.51100000000E-03 0. -1.
        -11    1    3    3    0    0 -0.20038156345E+02 -0.16458223473E+02  0.24685068837E+02  0.35801584509E+02  0.51100000000E-03 0.  1.
        -12    1    3    3    0    0 -0.20122442158E+01 -0.10909399976E+02  0.10711645581E+01  0.11145022572E+02  0.00000000000E+00 0.  1.
</event>
<event>
 7    1  0.2328615E-009  0.4778727E+02  0.7816164E-02  0.1312668E+00
        -11   -1    0    0    0    0  0.00000000000E+00  0.00000000000E+00  0.45593999997E+02  0.45594000000E+02  0.51100000000E-03 0.  1.
         11   -1    0    0    0    0 -0.00000000000E+00 -0.00000000000E+00 -0.45593999997E+02  0.45594000000E+02  0.51100000000E-03 0. -1.
    9900012    2    1    2    0    0  0.11045286232E+02  0.39988566475E+02  0.12749096906E+02  0.47787271106E+02  0.20000000279E+02 0.  0.
         12    1    1    2    0    0 -0.11045286232E+02 -0.39988566475E+02 -0.12749096906E+02  0.43400728894E+02  0.00000000000E+00 0. -1.
         11    1    3    3    0    0  0.42192033750E+00  0.28380010241E+01 -0.25778190779E+01  0.38571256194E+01  0.51100000000E-03 0. -1.
        -11    1    3    3    0    0  0.64206779946E+01  0.21172365308E+02  0.11410594003E+01  0.22153920093E+02  0.51100000000E-03 0.  1.
         12    1    3    3    0    0  0.42026878994E+01  0.15978200142E+02  0.14185856584E+02  0.21776225394E+02  0.00000000000E+00 0. -1.
</event>
<event>
 7    1  0.2328615E-009  0.4778729E+02  0.7816164E-02  0.1312668E+00
        -11   -1    0    0    0    0  0.00000000000E+00  0.00000000000E+00  0.45593999997E+02  0.45594000000E+02  0.51100000000E-03 0.  1.
         11   -1    0    0    0    0 -0.00000000000E+00 -0.00000000000E+00 -0.45593999997E+02  0.45594000000E+02  0.51100000000E-03 0. -1.
    9900012    2    1    2    0    0  0.20679637169E+02 -0.37310809130E+02  0.79923510161E+01  0.47787290949E+02  0.20000090752E+02 0.  0.
         12    1    1    2    0    0 -0.20679637169E+02  0.37310809130E+02 -0.79923510161E+01  0.43400709051E+02  0.00000000000E+00 0. -1.
         11    1    3    3    0    0  0.11853944284E+02 -0.29804607361E+02  0.11738616974E+02  0.34155903498E+02  0.51100000000E-03 0. -1.
        -11    1    3    3    0    0  0.50208757844E+01 -0.57211970180E+01  0.53672107890E+00  0.76308163875E+01  0.51100000000E-03 0.  1.
         12    1    3    3    0    0  0.38048171004E+01 -0.17850047511E+01 -0.42829870369E+01  0.60005710634E+01  0.00000000000E+00 0. -1.
</event>
<event>
 7    1  0.2328615E-009  0.4778727E+02  0.7816164E-02  0.1312668E+00
        -11   -1    0    0    0    0  0.00000000000E+00  0.00000000000E+00  0.45593999997E+02  0.45594000000E+02  0.51100000000E-03 0. -1.
         11   -1    0    0    0    0 -0.00000000000E+00 -0.00000000000E+00 -0.45593999997E+02  0.45594000000E+02  0.51100000000E-03 0.  1.
    9900012    2    1    2    0    0 -0.41487229223E+02 -0.38334009956E+01 -0.12154764279E+02  0.47787269056E+02  0.19999990935E+02 0.  0.
         12    1    1    2    0    0  0.41487229223E+02  0.38334009956E+01  0.12154764279E+02  0.43400730944E+02  0.00000000000E+00 0. -1.
         11    1    3    3    0    0 -0.15161297562E+02 -0.38464501084E+01 -0.18424991534E+01  0.15749759540E+02  0.51100000000E-03 0. -1.
        -11    1    3    3    0    0 -0.38465650569E+01 -0.41454582485E+01 -0.69033565975E+01  0.89239688144E+01  0.51100000000E-03 0.  1.
         12    1    3    3    0    0 -0.22479366604E+02  0.41585073613E+01 -0.34089085278E+01  0.23113540701E+02  0.00000000000E+00 0. -1.
</event>
<event>
 7    1  0.2328615E-009  0.4778727E+02  0.7816164E-02  0.1312668E+00
        -11   -1    0    0    0    0  0.00000000000E+00  0.00000000000E+00  0.45593999997E+02  0.45594000000E+02  0.51100000000E-03 0. -1.
         11   -1    0    0    0    0 -0.00000000000E+00 -0.00000000000E+00 -0.45593999997E+02  0.45594000000E+02  0.51100000000E-03 0.  1.
    9900012    2    1    2    0    0 -0.19132358900E+02 -0.19340338202E+02 -0.33816083516E+02  0.47787270245E+02  0.19999996357E+02 0.  0.
         12    1    1    2    0    0  0.19132358900E+02  0.19340338202E+02  0.33816083516E+02  0.43400729755E+02  0.00000000000E+00 0. -1.
         11    1    3    3    0    0 -0.66100461352E+01 -0.10418836883E+01 -0.77443643095E+01  0.10234911350E+02  0.51100000000E-03 0.  1.
        -11    1    3    3    0    0 -0.20530865442E+01 -0.69941564511E+00 -0.13174303512E+02  0.13351652328E+02  0.51100000000E-03 0. -1.
         12    1    3    3    0    0 -0.10469226221E+02 -0.17599038868E+02 -0.12897415695E+02  0.24200706567E+02  0.00000000000E+00 0. -1.
</event>
<event>
 7    1  0.2328615E-009  0.4778727E+02  0.7816164E-02  0.1312668E+00
        -11   -1    0    0    0    0  0.00000000000E+00  0.00000000000E+00  0.45593999997E+02  0.45594000000E+02  0.51100000000E-03 0.  1.
         11   -1    0    0    0    0 -0.00000000000E+00 -0.00000000000E+00 -0.45593999997E+02  0.45594000000E+02  0.51100000000E-03 0. -1.
    9900012    2    1    2    0    0  0.23146267749E+00  0.21870009529E+02  0.37486958826E+02  0.47787274502E+02  0.20000015763E+02 0.  0.
         12    1    1    2    0    0 -0.23146267749E+00 -0.21870009529E+02 -0.37486958826E+02  0.43400725498E+02  0.00000000000E+00 0. -1.
         11    1    3    3    0    0  0.10819411827E+01  0.40030833962E+01  0.11019210057E+02  0.11773625777E+02  0.51100000000E-03 0.  1.
        -11    1    3    3    0    0 -0.13452600444E+01  0.17251784017E+02  0.28773774415E+02  0.33576239675E+02  0.51100000000E-03 0. -1.
         12    1    3    3    0    0  0.49478153915E+00  0.61514211507E+00 -0.23060256460E+01  0.24374090493E+01  0.00000000000E+00 0. -1.
</event>
<event>
 7    1  0.2328615E-009  0.4778727E+02  0.7816164E-02  0.1312668E+00
        -11   -1    0    0    0    0  0.00000000000E+00  0.00000000000E+00  0.45593999997E+02  0.45594000000E+02  0.51100000000E-03 0. -1.
         11   -1    0    0    0    0 -0.00000000000E+00 -0.00000000000E+00 -0.45593999997E+02  0.45594000000E+02  0.51100000000E-03 0.  1.
    9900012    2    1    2    0    0  0.52548212126E+01 -0.19435486251E+00 -0.43081003117E+02  0.47787265566E+02  0.19999975022E+02 0.  0.
         12    1    1    2    0    0 -0.52548212126E+01  0.19435486251E+00  0.43081003117E+02  0.43400734434E+02  0.00000000000E+00 0. -1.
         11    1    3    3    0    0  0.20409621436E+01  0.10267618531E+01 -0.95988947565E+00  0.24781352750E+01  0.51100000000E-03 0. -1.
        -11    1    3    3    0    0 -0.66090777175E+01 -0.43853075702E+00 -0.13462425479E+02  0.15003636810E+02  0.51100000000E-03 0.  1.
        -12    1    3    3    0    0  0.98229367865E+01 -0.78258595860E+00 -0.28658688163E+02  0.30305493481E+02  0.00000000000E+00 0.  1.
</event>
<event>
 7    1  0.2328615E-009  0.4778727E+02  0.7816164E-02  0.1312668E+00
        -11   -1    0    0    0    0  0.00000000000E+00  0.00000000000E+00  0.45593999997E+02  0.45594000000E+02  0.51100000000E-03 0. -1.
         11   -1    0    0    0    0 -0.00000000000E+00 -0.00000000000E+00 -0.45593999997E+02  0.45594000000E+02  0.51100000000E-03 0.  1.
    9900012    2    1    2    0    0  0.37984984535E+01 -0.66183387449E+01 -0.42724610366E+02  0.47787270408E+02  0.19999997096E+02 0.  0.
         12    1    1    2    0    0 -0.37984984535E+01  0.66183387449E+01  0.42724610366E+02  0.43400729592E+02  0.00000000000E+00 0. -1.
         11    1    3    3    0    0 -0.41085814914E+01 -0.22230236005E+01 -0.46366742881E+01  0.65818708978E+01  0.51100000000E-03 0. -1.
        -11    1    3    3    0    0 -0.15894970991E+01  0.28115954212E+01 -0.43134549233E+01  0.53886420810E+01  0.51100000000E-03 0.  1.
        -12    1    3    3    0    0  0.94965770440E+01 -0.72069105656E+01 -0.33774481154E+02  0.35816757429E+02  0.00000000000E+00 0.  1.
</event>
<event>
 7    1  0.2328615E-009  0.4778727E+02  0.7816164E-02  0.1312668E+00
        -11   -1    0    0    0    0  0.00000000000E+00  0.00000000000E+00  0.45593999997E+02  0.45594000000E+02  0.51100000000E-03 0.  1.
         11   -1    0    0    0    0 -0.00000000000E+00 -0.00000000000E+00 -0.45593999997E+02  0.45594000000E+02  0.51100000000E-03 0. -1.
    9900012    2    1    2    0    0 -0.85522174859E+01  0.34558294544E+02  0.24823527048E+02  0.47787266817E+02  0.19999980723E+02 0.  0.
         12    1    1    2    0    0  0.85522174859E+01 -0.34558294544E+02 -0.24823527048E+02  0.43400733183E+02  0.00000000000E+00 0. -1.
         11    1    3    3    0    0 -0.43905102756E+01  0.21058366916E+02  0.11384244674E+02  0.24337880448E+02  0.51100000000E-03 0.  1.
        -11    1    3    3    0    0 -0.84385063298E+01  0.80331835259E+01  0.54388895914E+01  0.12857758237E+02  0.51100000000E-03 0. -1.
         12    1    3    3    0    0  0.42767991195E+01  0.54667441028E+01  0.80003927830E+01  0.10591628132E+02  0.00000000000E+00 0. -1.
</event>
<event>
 7    1  0.2328615E-009  0.4778726E+02  0.7816164E-02  0.1312668E+00
        -11   -1    0    0    0    0  0.00000000000E+00  0.00000000000E+00  0.45593999997E+02  0.45594000000E+02  0.51100000000E-03 0.  1.
         11   -1    0    0    0    0 -0.00000000000E+00 -0.00000000000E+00 -0.45593999997E+02  0.45594000000E+02  0.51100000000E-03 0. -1.
    9900012    2    1    2    0    0  0.16233963714E+02  0.29276398543E+02  0.27621997859E+02  0.47787264347E+02  0.19999969463E+02 0.  0.
         12    1    1    2    0    0 -0.16233963714E+02 -0.29276398543E+02 -0.27621997859E+02  0.43400735653E+02  0.00000000000E+00 0. -1.
         11    1    3    3    0    0 -0.16750370298E+01  0.46812559608E+01  0.81973287984E+00  0.50390344985E+01  0.51100000000E-03 0. -1.
        -11    1    3    3    0    0  0.15063107823E+02  0.24511377931E+02  0.27519228212E+02  0.39812219067E+02  0.51100000000E-03 0.  1.
        -12    1    3    3    0    0  0.28458929202E+01  0.83764650795E-01 -0.71696323290E+00  0.29360107812E+01  0.00000000000E+00 0.  1.
</event>
<event>
 7    1  0.2328615E-009  0.4778727E+02  0.7816164E-02  0.1312668E+00
        -11   -1    0    0    0    0  0.00000000000E+00  0.00000000000E+00  0.45593999997E+02  0.45594000000E+02  0.51100000000E-03 0.  1.
         11   -1    0    0    0    0 -0.00000000000E+00 -0.00000000000E+00 -0.45593999997E+02  0.45594000000E+02  0.51100000000E-03 0. -1.
    9900012    2    1    2    0    0 -0.42653141784E+02  0.44736177514E+01  0.66572700360E+01  0.47787274152E+02  0.20000014166E+02 0.  0.
         12    1    1    2    0    0  0.42653141784E+02 -0.44736177514E+01 -0.66572700360E+01  0.43400725848E+02  0.00000000000E+00 0. -1.
         11    1    3    3    0    0 -0.10030225040E+02 -0.20152515690E+01 -0.18528664423E+01  0.10397103806E+02  0.51100000000E-03 0. -1.
        -11    1    3    3    0    0 -0.16971138230E+02  0.58101671356E+01 -0.26805996891E+01  0.18137342416E+02  0.51100000000E-03 0.  1.
        -12    1    3    3    0    0 -0.15651778514E+02  0.67870218485E+00  0.11190736167E+02  0.19252827929E+02  0.00000000000E+00 0.  1.
</event>
<event>
 7    1  0.2328615E-009  0.4778727E+02  0.7816164E-02  0.1312668E+00
        -11   -1    0    0    0    0  0.00000000000E+00  0.00000000000E+00  0.45593999997E+02  0.45594000000E+02  0.51100000000E-03 0. -1.
         11   -1    0    0    0    0 -0.00000000000E+00 -0.00000000000E+00 -0.45593999997E+02  0.45594000000E+02  0.51100000000E-03 0.  1.
    9900012    2    1    2    0    0  0.37618930476E+02  0.15618103363E+02 -0.14983798937E+02  0.47787270589E+02  0.19999997924E+02 0.  0.
         12    1    1    2    0    0 -0.37618930476E+02 -0.15618103363E+02  0.14983798937E+02  0.43400729411E+02  0.00000000000E+00 0. -1.
         11    1    3    3    0    0  0.20070012549E+01 -0.37829964809E+00 -0.15669556740E+01  0.25742018193E+01  0.51100000000E-03 0. -1.
        -11    1    3    3    0    0  0.19003451680E+02 -0.14593841375E+01 -0.66523511472E+01  0.20186994671E+02  0.51100000000E-03 0.  1.
         12    1    3    3    0    0  0.16608477541E+02  0.17455787149E+02 -0.67644921161E+01  0.25026074099E+02  0.00000000000E+00 0. -1.
</event>
<event>
 7    1  0.2328615E-009  0.4778727E+02  0.7816164E-02  0.1312668E+00
        -11   -1    0    0    0    0  0.00000000000E+00  0.00000000000E+00  0.45593999997E+02  0.45594000000E+02  0.51100000000E-03 0. -1.
         11   -1    0    0    0    0 -0.00000000000E+00 -0.00000000000E+00 -0.45593999997E+02  0.45594000000E+02  0.51100000000E-03 0.  1.
    9900012    2    1    2    0    0  0.28508202598E+02  0.32713475188E+02 -0.85678179544E+00  0.47787272479E+02  0.20000006543E+02 0.  0.
         12    1    1    2    0    0 -0.28508202598E+02 -0.32713475188E+02  0.85678179544E+00  0.43400727521E+02  0.00000000000E+00 0. -1.
         11    1    3    3    0    0  0.62160035161E+01 -0.21701481078E+00  0.29326081487E+01  0.68764806374E+01  0.51100000000E-03 0. -1.
        -11    1    3    3    0    0  0.10111805071E+02  0.11224408850E+02  0.23131021960E+01  0.15283533552E+02  0.51100000000E-03 0.  1.
        -12    1    3    3    0    0  0.12180394011E+02  0.21706081150E+02 -0.61024921401E+01  0.25627258290E+02  0.00000000000E+00 0.  1.
</event>
<event>
 7    1  0.2562524E-009  0.4778727E+02  0.7816164E-02  0.1312668E+00
        -11   -1    0    0    0    0  0.00000000000E+00  0.00000000000E+00  0.45593999997E+02  0.45594000000E+02  0.51100000000E-03 0. -1.
         11   -1    0    0    0    0 -0.00000000000E+00 -0.00000000000E+00 -0.45593999997E+02  0.45594000000E+02  0.51100000000E-03 0.  1.
    9900012    2    1    2    0    0  0.29087615541E+02 -0.23491029604E+02 -0.22038724934E+02  0.47787271361E+02  0.20000001442E+02 0.  0.
         12    1    1    2    0    0 -0.29087615541E+02  0.23491029604E+02  0.22038724934E+02  0.43400728639E+02  0.00000000000E+00 0. -1.
         11    1    3    3    0    0 -0.17419281450E+01 -0.85146365705E+00 -0.30679012488E+01  0.36292316481E+01  0.51100000000E-03 0. -1.
        -11    1    3    3    0    0  0.11419506827E+02 -0.14653871655E+02 -0.11653628099E+02  0.21930529833E+02  0.51100000000E-03 0.  1.
        -12    1    3    3    0    0  0.19410036859E+02 -0.79856942921E+01 -0.73171955866E+01  0.22227509879E+02  0.00000000000E+00 0.  1.
</event>
<event>
 7    1  0.2328615E-009  0.4778727E+02  0.7816164E-02  0.1312668E+00
        -11   -1    0    0    0    0  0.00000000000E+00  0.00000000000E+00  0.45593999997E+02  0.45594000000E+02  0.51100000000E-03 0.  1.
         11   -1    0    0    0    0 -0.00000000000E+00 -0.00000000000E+00 -0.45593999997E+02  0.45594000000E+02  0.51100000000E-03 0. -1.
    9900012    2    1    2    0    0 -0.29388971636E+02 -0.30399798555E+02  0.97859087845E+01  0.47787269399E+02  0.19999992496E+02 0.  0.
         12    1    1    2    0    0  0.29388971636E+02  0.30399798555E+02 -0.97859087845E+01  0.43400730601E+02  0.00000000000E+00 0. -1.
         11    1    3    3    0    0  0.40147075861E+00 -0.85424268637E+01 -0.57384855199E+00  0.85710873238E+01  0.51100000000E-03 0. -1.
        -11    1    3    3    0    0 -0.32500190079E+01 -0.35218915428E+01  0.42062383171E+01  0.63764241258E+01  0.51100000000E-03 0.  1.
        -12    1    3    3    0    0 -0.26540423387E+02 -0.18335480149E+02  0.61535190194E+01  0.32839757949E+02  0.00000000000E+00 0.  1.
</event>
<event>
 7    1  0.2328615E-009  0.4778727E+02  0.7816164E-02  0.1312668E+00
        -11   -1    0    0    0    0  0.00000000000E+00  0.00000000000E+00  0.45593999997E+02  0.45594000000E+02  0.51100000000E-03 0.  1.
         11   -1    0    0    0    0 -0.00000000000E+00 -0.00000000000E+00 -0.45593999997E+02  0.45594000000E+02  0.51100000000E-03 0. -1.
    9900012    2    1    2    0    0  0.18182850223E+02  0.22518741535E+02  0.32340587853E+02  0.47787269761E+02  0.19999994150E+02 0.  0.
         12    1    1    2    0    0 -0.18182850223E+02 -0.22518741535E+02 -0.32340587853E+02  0.43400730239E+02  0.00000000000E+00 0. -1.
         11    1    3    3    0    0  0.60019274431E+01  0.23129573348E+00  0.11445479224E+01  0.61144599890E+01  0.51100000000E-03 0. -1.
        -11    1    3    3    0    0  0.45595043138E+01  0.95674975641E+00  0.31584729500E+01  0.56285345624E+01  0.51100000000E-03 0.  1.
        -12    1    3    3    0    0  0.76214184663E+01  0.21330696045E+02  0.28037566981E+02  0.36044275210E+02  0.00000000000E+00 0.  1.
</event>
<event>
 7    1  0.2328615E-009  0.4778727E+02  0.7816164E-02  0.1312668E+00
        -11   -1    0    0    0    0  0.00000000000E+00  0.00000000000E+00  0.45593999997E+02  0.45594000000E+02  0.51100000000E-03 0.  1.
         11   -1    0    0    0    0 -0.00000000000E+00 -0.00000000000E+00 -0.45593999997E+02  0.45594000000E+02  0.51100000000E-03 0. -1.
    9900012    2    1    2    0    0 -0.90129275724E+01  0.17716754755E+02  0.38581172678E+02  0.47787272498E+02  0.20000006626E+02 0.  0.
         12    1    1    2    0    0  0.90129275724E+01 -0.17716754755E+02 -0.38581172678E+02  0.43400727502E+02  0.00000000000E+00 0. -1.
         11    1    3    3    0    0  0.22280822887E+01  0.16915652609E+01  0.89291393206E+00  0.29365011950E+01  0.51100000000E-03 0. -1.
        -11    1    3    3    0    0 -0.28776606626E+01  0.13392735586E+02  0.13977439741E+02  0.19570772068E+02  0.51100000000E-03 0.  1.
        -12    1    3    3    0    0 -0.83633491984E+01  0.26324539080E+01  0.23710819006E+02  0.25279999235E+02  0.00000000000E+00 0.  1.
</event>
<event>
 7    1  0.2328615E-009  0.4778727E+02  0.7816164E-02  0.1312668E+00
        -11   -1    0    0    0    0  0.00000000000E+00  0.00000000000E+00  0.45593999997E+02  0.45594000000E+02  0.51100000000E-03 0.  1.
         11   -1    0    0    0    0 -0.00000000000E+00 -0.00000000000E+00 -0.45593999997E+02  0.45594000000E+02  0.51100000000E-03 0. -1.
    9900012    2    1    2    0    0 -0.18418565218E+02 -0.21048050382E+02 -0.33186732712E+02  0.47787271922E+02  0.20000004001E+02 0.  0.
         12    1    1    2    0    0  0.18418565218E+02  0.21048050382E+02  0.33186732712E+02  0.43400728078E+02  0.00000000000E+00 0. -1.
         11    1    3    3    0    0 -0.31545583201E+01 -0.12755258803E+01 -0.98678374411E+01  0.10438027615E+02  0.51100000000E-03 0. -1.
        -11    1    3    3    0    0 -0.10536373597E+02 -0.20414610586E+01 -0.71908815965E+01  0.12918649706E+02  0.51100000000E-03 0.  1.
         12    1    3    3    0    0 -0.47276333005E+01 -0.17731063444E+02 -0.16128013675E+02  0.24430594601E+02  0.00000000000E+00 0. -1.
</event>
<event>
 7    1  0.2328615E-009  0.4778727E+02  0.7816164E-02  0.1312668E+00
        -11   -1    0    0    0    0  0.00000000000E+00  0.00000000000E+00  0.45593999997E+02  0.45594000000E+02  0.51100000000E-03 0.  1.
         11   -1    0    0    0    0 -0.00000000000E+00 -0.00000000000E+00 -0.45593999997E+02  0.45594000000E+02  0.51100000000E-03 0. -1.
    9900012    2    1    2    0    0 -0.39906548798E+02  0.52721054973E+01  0.16226382104E+02  0.47787271786E+02  0.20000003380E+02 0.  0.
         12    1    1    2    0    0  0.39906548798E+02 -0.52721054973E+01 -0.16226382104E+02  0.43400728214E+02  0.00000000000E+00 0. -1.
         11    1    3    3    0    0 -0.71095857217E+01  0.22245317339E+01  0.73886557313E+01  0.10492234478E+02  0.51100000000E-03 0. -1.
        -11    1    3    3    0    0 -0.30375323524E+02  0.65132017609E-03  0.11607967326E+02  0.32517767226E+02  0.51100000000E-03 0.  1.
         12    1    3    3    0    0 -0.24216395519E+01  0.30469224432E+01 -0.27702409536E+01  0.47772700819E+01  0.00000000000E+00 0. -1.
</event>
<event>
 7    1  0.2328615E-009  0.4778727E+02  0.7816164E-02  0.1312668E+00
        -11   -1    0    0    0    0  0.00000000000E+00  0.00000000000E+00  0.45593999997E+02  0.45594000000E+02  0.51100000000E-03 0.  1.
         11   -1    0    0    0    0 -0.00000000000E+00 -0.00000000000E+00 -0.45593999997E+02  0.45594000000E+02  0.51100000000E-03 0. -1.
    9900012    2    1    2    0    0  0.58001204874E+01  0.28833432345E+02  0.31915748767E+02  0.47787271460E+02  0.20000001893E+02 0.  0.
         12    1    1    2    0    0 -0.58001204874E+01 -0.28833432345E+02 -0.31915748767E+02  0.43400728540E+02  0.00000000000E+00 0. -1.
         11    1    3    3    0    0  0.15337329572E+01  0.47561922636E+01  0.10025395380E+02  0.11201886199E+02  0.51100000000E-03 0. -1.
        -11    1    3    3    0    0 -0.37475468851E+01  0.16209158474E+02  0.18441812105E+02  0.24837096450E+02  0.51100000000E-03 0.  1.
         12    1    3    3    0    0  0.80139344153E+01  0.78680816079E+01  0.34485412815E+01  0.11748288810E+02  0.00000000000E+00 0. -1.
</event>
<event>
 7    1  0.3017303E-009  0.4778727E+02  0.7816164E-02  0.1312668E+00
        -11   -1    0    0    0    0  0.00000000000E+00  0.00000000000E+00  0.45593999997E+02  0.45594000000E+02  0.51100000000E-03 0. -1.
         11   -1    0    0    0    0 -0.00000000000E+00 -0.00000000000E+00 -0.45593999997E+02  0.45594000000E+02  0.51100000000E-03 0.  1.
    9900012    2    1    2    0    0 -0.19794371327E+02  0.14070293338E+02 -0.35969886782E+02  0.47787273670E+02  0.20000011970E+02 0.  0.
         12    1    1    2    0    0  0.19794371327E+02 -0.14070293338E+02  0.35969886782E+02  0.43400726330E+02  0.00000000000E+00 0. -1.
         11    1    3    3    0    0 -0.65493741185E+01  0.57577743591E+00 -0.26880847044E+01  0.71029304262E+01  0.51100000000E-03 0. -1.
        -11    1    3    3    0    0 -0.12431800853E+02  0.90597636090E+01 -0.13728549863E+02  0.20618003558E+02  0.51100000000E-03 0.  1.
        -12    1    3    3    0    0 -0.81319635581E+00  0.44347522932E+01 -0.19553252215E+02  0.20066339686E+02  0.00000000000E+00 0.  1.
</event>
<event>
 7    1  0.2328615E-009  0.4778728E+02  0.7816164E-02  0.1312668E+00
        -11   -1    0    0    0    0  0.00000000000E+00  0.00000000000E+00  0.45593999997E+02  0.45594000000E+02  0.51100000000E-03 0. -1.
         11   -1    0    0    0    0 -0.00000000000E+00 -0.00000000000E+00 -0.45593999997E+02  0.45594000000E+02  0.51100000000E-03 0.  1.
    9900012    2    1    2    0    0 -0.30603490172E+02 -0.15444005809E+02 -0.26618263880E+02  0.47787275373E+02  0.20000019736E+02 0.  0.
         12    1    1    2    0    0  0.30603490172E+02  0.15444005809E+02  0.26618263880E+02  0.43400724627E+02  0.00000000000E+00 0. -1.
         11    1    3    3    0    0 -0.12968935389E+02  0.21414759360E+01 -0.81046864898E+01  0.15442316784E+02  0.51100000000E-03 0.  1.
        -11    1    3    3    0    0 -0.86250429901E+00 -0.61676693737E+01 -0.40777751984E+01  0.74439445188E+01  0.51100000000E-03 0. -1.
        -12    1    3    3    0    0 -0.16772050484E+02 -0.11417812372E+02 -0.14435802192E+02  0.24901014070E+02  0.00000000000E+00 0.  1.
</event>
<event>
 7    1  0.2328615E-009  0.4778725E+02  0.7816164E-02  0.1312668E+00
        -11   -1    0    0    0    0  0.00000000000E+00  0.00000000000E+00  0.45593999997E+02  0.45594000000E+02  0.51100000000E-03 0.  1.
         11   -1    0    0    0    0 -0.00000000000E+00 -0.00000000000E+00 -0.45593999997E+02  0.45594000000E+02  0.51100000000E-03 0. -1.
    9900012    2    1    2    0    0  0.71537789277E+01 -0.31101910095E+02  0.29412918749E+02  0.47787249387E+02  0.19999901253E+02 0.  0.
         12    1    1    2    0    0 -0.71537789277E+01  0.31101910095E+02 -0.29412918749E+02  0.43400750613E+02  0.00000000000E+00 0. -1.
         11    1    3    3    0    0  0.81346357086E+00 -0.26452430551E-01  0.41355325987E+01  0.42148609524E+01  0.51100000000E-03 0. -1.
        -11    1    3    3    0    0  0.22590779942E+01 -0.27999982371E+02  0.26161082394E+02  0.38386256374E+02  0.51100000000E-03 0.  1.
        -12    1    3    3    0    0  0.40812373627E+01 -0.30754752935E+01 -0.88369624382E+00  0.51861320599E+01  0.00000000000E+00 0.  1.
</event>
<event>
 7    1  0.2328615E-009  0.4778727E+02  0.7816164E-02  0.1312668E+00
        -11   -1    0    0    0    0  0.00000000000E+00  0.00000000000E+00  0.45593999997E+02  0.45594000000E+02  0.51100000000E-03 0. -1.
         11   -1    0    0    0    0 -0.00000000000E+00 -0.00000000000E+00 -0.45593999997E+02  0.45594000000E+02  0.51100000000E-03 0.  1.
    9900012    2    1    2    0    0 -0.23318913595E+02  0.73599845281E+01 -0.35856413484E+02  0.47787268538E+02  0.19999988572E+02 0.  0.
         12    1    1    2    0    0  0.23318913595E+02 -0.73599845281E+01  0.35856413484E+02  0.43400731462E+02  0.00000000000E+00 0. -1.
         11    1    3    3    0    0 -0.39761065936E+01  0.74442104548E+01 -0.80098572820E+01  0.11635441843E+02  0.51100000000E-03 0. -1.
        -11    1    3    3    0    0 -0.16479625009E+02 -0.24322960710E+01 -0.27846735903E+02  0.32448956922E+02  0.51100000000E-03 0.  1.
         12    1    3    3    0    0 -0.28631819923E+01  0.23480701443E+01  0.17970100427E-03  0.37028697731E+01  0.00000000000E+00 0. -1.
</event>
<event>
 7    1  0.2328615E-009  0.4778727E+02  0.7816164E-02  0.1312668E+00
        -11   -1    0    0    0    0  0.00000000000E+00  0.00000000000E+00  0.45593999997E+02  0.45594000000E+02  0.51100000000E-03 0.  1.
         11   -1    0    0    0    0 -0.00000000000E+00 -0.00000000000E+00 -0.45593999997E+02  0.45594000000E+02  0.51100000000E-03 0. -1.
    9900012    2    1    2    0    0 -0.23999523313E+02 -0.99297788433E+01  0.34771334953E+02  0.47787270035E+02  0.19999995396E+02 0.  0.
         12    1    1    2    0    0  0.23999523313E+02  0.99297788433E+01 -0.34771334953E+02  0.43400729965E+02  0.00000000000E+00 0. -1.
         11    1    3    3    0    0 -0.10893472686E+01 -0.61205815614E+01  0.28697365744E+01  0.68471588553E+01  0.51100000000E-03 0. -1.
        -11    1    3    3    0    0 -0.15419099031E+01  0.19229597843E+01  0.47977035384E+00  0.25110635864E+01  0.51100000000E-03 0.  1.
        -12    1    3    3    0    0 -0.21368266141E+02 -0.57321570662E+01  0.31421828025E+02  0.38429047593E+02  0.00000000000E+00 0.  1.
</event>
<event>
 7    1  0.2816336E-009  0.4778726E+02  0.7816164E-02  0.1312668E+00
        -11   -1    0    0    0    0  0.00000000000E+00  0.00000000000E+00  0.45593999997E+02  0.45594000000E+02  0.51100000000E-03 0. -1.
         11   -1    0    0    0    0 -0.00000000000E+00 -0.00000000000E+00 -0.45593999997E+02  0.45594000000E+02  0.51100000000E-03 0.  1.
    9900012    2    1    2    0    0  0.25136625544E+02 -0.22606377727E+01 -0.35308125180E+02  0.47787261175E+02  0.19999955000E+02 0.  0.
         12    1    1    2    0    0 -0.25136625544E+02  0.22606377727E+01  0.35308125180E+02  0.43400738825E+02  0.00000000000E+00 0. -1.
         11    1    3    3    0    0  0.36869808768E+01  0.14174740403E+01 -0.10057879698E+01  0.40761097068E+01  0.51100000000E-03 0. -1.
        -11    1    3    3    0    0  0.24108635208E+02 -0.30972959229E+01 -0.31692338578E+02  0.39940253610E+02  0.51100000000E-03 0.  1.
        -12    1    3    3    0    0 -0.26589905410E+01 -0.58081589017E+00 -0.26099986324E+01  0.37708978581E+01  0.00000000000E+00 0.  1.
</event>
<event>
 7    1  0.2328615E-009  0.4778726E+02  0.7816164E-02  0.1312668E+00
        -11   -1    0    0    0    0  0.00000000000E+00  0.00000000000E+00  0.45593999997E+02  0.45594000000E+02  0.51100000000E-03 0.  1.
         11   -1    0    0    0    0 -0.00000000000E+00 -0.00000000000E+00 -0.45593999997E+02  0.45594000000E+02  0.51100000000E-03 0. -1.
    9900012    2    1    2    0    0 -0.28591408232E+02 -0.30312236733E+02 -0.12137718660E+02  0.47787256519E+02  0.19999933771E+02 0.  0.
         12    1    1    2    0    0  0.28591408232E+02  0.30312236733E+02  0.12137718660E+02  0.43400743481E+02  0.00000000000E+00 0. -1.
         11    1    3    3    0    0 -0.14770123348E+02 -0.12916256342E+02 -0.72280451425E+01  0.20910065960E+02  0.51100000000E-03 0. -1.
        -11    1    3    3    0    0 -0.15244360825E+02 -0.17563954662E+02 -0.16486908127E+01  0.23315257279E+02  0.51100000000E-03 0.  1.
         12    1    3    3    0    0  0.14230759409E+01  0.16797427071E+00 -0.32609827044E+01  0.35619332795E+01  0.00000000000E+00 0. -1.
</event>
<event>
 7    1  0.2328615E-009  0.4778727E+02  0.7816164E-02  0.1312668E+00
        -11   -1    0    0    0    0  0.00000000000E+00  0.00000000000E+00  0.45593999997E+02  0.45594000000E+02  0.51100000000E-03 0. -1.
         11   -1    0    0    0    0 -0.00000000000E+00 -0.00000000000E+00 -0.45593999997E+02  0.45594000000E+02  0.51100000000E-03 0.  1.
    9900012    2    1    2    0    0  0.31484657415E+02 -0.35328037021E+01 -0.29662414069E+02  0.47787272322E+02  0.20000005827E+02 0.  0.
         12    1    1    2    0    0 -0.31484657415E+02  0.35328037021E+01  0.29662414069E+02  0.43400727678E+02  0.00000000000E+00 0. -1.
         11    1    3    3    0    0  0.43514586333E+01 -0.19393093239E+01 -0.68593521166E+01  0.83514564365E+01  0.51100000000E-03 0. -1.
        -11    1    3    3    0    0  0.17350472301E+02 -0.38011679546E+01 -0.23413603999E+02  0.29388511690E+02  0.51100000000E-03 0.  1.
         12    1    3    3    0    0  0.97827264805E+01  0.22076735764E+01  0.61054204609E+00  0.10047304196E+02  0.00000000000E+00 0. -1.
</event>
<event>
 7    1  0.2328615E-009  0.4778727E+02  0.7816164E-02  0.1312668E+00
        -11   -1    0    0    0    0  0.00000000000E+00  0.00000000000E+00  0.45593999997E+02  0.45594000000E+02  0.51100000000E-03 0.  1.
         11   -1    0    0    0    0 -0.00000000000E+00 -0.00000000000E+00 -0.45593999997E+02  0.45594000000E+02  0.51100000000E-03 0. -1.
    9900012    2    1    2    0    0 -0.17941763115E+02 -0.22752990199E+02  0.32311272799E+02  0.47787265253E+02  0.19999973596E+02 0.  0.
         12    1    1    2    0    0  0.17941763115E+02  0.22752990199E+02 -0.32311272799E+02  0.43400734747E+02  0.00000000000E+00 0. -1.
         11    1    3    3    0    0 -0.29162807884E+01 -0.11937303588E+02  0.75953464377E+01  0.14446217442E+02  0.51100000000E-03 0. -1.
        -11    1    3    3    0    0 -0.21848677026E+01 -0.85495520772E+01  0.13572912092E+02  0.16189268993E+02  0.51100000000E-03 0.  1.
         12    1    3    3    0    0 -0.12840614624E+02 -0.22661345334E+01  0.11143014269E+02  0.17151778819E+02  0.00000000000E+00 0. -1.
</event>
<event>
 7    1  0.2328615E-009  0.4778728E+02  0.7816164E-02  0.1312668E+00
        -11   -1    0    0    0    0  0.00000000000E+00  0.00000000000E+00  0.45593999997E+02  0.45594000000E+02  0.51100000000E-03 0. -1.
         11   -1    0    0    0    0 -0.00000000000E+00 -0.00000000000E+00 -0.45593999997E+02  0.45594000000E+02  0.51100000000E-03 0.  1.
    9900012    2    1    2    0    0  0.38251758260E+02  0.17741727753E+01 -0.20427382153E+02  0.47787278340E+02  0.20000033263E+02 0.  0.
         12    1    1    2    0    0 -0.38251758260E+02 -0.17741727753E+01  0.20427382153E+02  0.43400721660E+02  0.00000000000E+00 0. -1.
         11    1    3    3    0    0  0.14174334084E+02 -0.39521903567E+01 -0.32861737819E+01  0.15077483004E+02  0.51100000000E-03 0. -1.
        -11    1    3    3    0    0  0.12917220751E+02 -0.25361580861E+01 -0.44435739477E+01  0.13893597067E+02  0.51100000000E-03 0.  1.
         12    1    3    3    0    0  0.11160203424E+02  0.82625212181E+01 -0.12697634423E+02  0.18816198269E+02  0.00000000000E+00 0. -1.
</event>
<event>
 7    1  0.2328615E-009  0.4778725E+02  0.7816164E-02  0.1312668E+00
        -11   -1    0    0    0    0  0.00000000000E+00  0.00000000000E+00  0.45593999997E+02  0.45594000000E+02  0.51100000000E-03 0. -1.
         11   -1    0    0    0    0 -0.00000000000E+00 -0.00000000000E+00 -0.45593999997E+02  0.45594000000E+02  0.51100000000E-03 0.  1.
    9900012    2    1    2    0    0  0.27627454907E+02  0.63751621509E+01 -0.32858877419E+02  0.47787253667E+02  0.19999920769E+02 0.  0.
         12    1    1    2    0    0 -0.27627454907E+02 -0.63751621509E+01  0.32858877419E+02  0.43400746333E+02  0.00000000000E+00 0. -1.
         11    1    3    3    0    0  0.49385017275E+01  0.55569192497E+01 -0.27326740618E+01  0.79205844892E+01  0.51100000000E-03 0. -1.
        -11    1    3    3    0    0  0.60112132789E+01  0.54623721358E+01 -0.14116746624E+02  0.16286642685E+02  0.51100000000E-03 0.  1.
        -12    1    3    3    0    0  0.16677739900E+02 -0.46441292347E+01 -0.16009456733E+02  0.23580026493E+02  0.00000000000E+00 0.  1.
</event>
<event>
 7    1  0.2328615E-009  0.4778725E+02  0.7816164E-02  0.1312668E+00
        -11   -1    0    0    0    0  0.00000000000E+00  0.00000000000E+00  0.45593999997E+02  0.45594000000E+02  0.51100000000E-03 0.  1.
         11   -1    0    0    0    0 -0.00000000000E+00 -0.00000000000E+00 -0.45593999997E+02  0.45594000000E+02  0.51100000000E-03 0. -1.
    9900012    2    1    2    0    0  0.16206372588E+02  0.18359756171E+02  0.35831518200E+02  0.47787252822E+02  0.19999916917E+02 0.  0.
         12    1    1    2    0    0 -0.16206372588E+02 -0.18359756171E+02 -0.35831518200E+02  0.43400747178E+02  0.00000000000E+00 0. -1.
         11    1    3    3    0    0  0.36913897344E+01 -0.10190835226E+01 -0.53620998956E+00  0.38668347277E+01  0.51100000000E-03 0.  1.
        -11    1    3    3    0    0  0.13356332593E+01  0.76455892819E+01  0.73800998241E+01  0.10710033863E+02  0.51100000000E-03 0. -1.
        -12    1    3    3    0    0  0.11179349594E+02  0.11733250412E+02  0.28987628365E+02  0.33210384231E+02  0.00000000000E+00 0.  1.
</event>
<event>
 7    1  0.2328615E-009  0.4778727E+02  0.7816164E-02  0.1312668E+00
        -11   -1    0    0    0    0  0.00000000000E+00  0.00000000000E+00  0.45593999997E+02  0.45594000000E+02  0.51100000000E-03 0. -1.
         11   -1    0    0    0    0 -0.00000000000E+00 -0.00000000000E+00 -0.45593999997E+02  0.45594000000E+02  0.51100000000E-03 0.  1.
    9900012    2    1    2    0    0  0.14911529848E+02  0.91740668265E+01 -0.39712795554E+02  0.47787270107E+02  0.19999995724E+02 0.  0.
         12    1    1    2    0    0 -0.14911529848E+02 -0.91740668265E+01  0.39712795554E+02  0.43400729893E+02  0.00000000000E+00 0. -1.
         11    1    3    3    0    0  0.53413943865E+01  0.39695480002E+01 -0.22378106089E+01  0.70210826730E+01  0.51100000000E-03 0. -1.
        -11    1    3    3    0    0  0.83917969684E+01  0.86726639232E+01 -0.31788188053E+02  0.34001856653E+02  0.51100000000E-03 0.  1.
         12    1    3    3    0    0  0.11783384931E+01 -0.34681450969E+01 -0.56867968924E+01  0.67643307809E+01  0.00000000000E+00 0. -1.
</event>
<event>
 7    1  0.2328615E-009  0.4778727E+02  0.7816164E-02  0.1312668E+00
        -11   -1    0    0    0    0  0.00000000000E+00  0.00000000000E+00  0.45593999997E+02  0.45594000000E+02  0.51100000000E-03 0. -1.
         11   -1    0    0    0    0 -0.00000000000E+00 -0.00000000000E+00 -0.45593999997E+02  0.45594000000E+02  0.51100000000E-03 0.  1.
    9900012    2    1    2    0    0 -0.81390449558E+01 -0.42359549325E+02  0.48008084304E+01  0.47787271511E+02  0.20000002126E+02 0.  0.
         12    1    1    2    0    0  0.81390449558E+01  0.42359549325E+02 -0.48008084304E+01  0.43400728489E+02  0.00000000000E+00 0. -1.
         11    1    3    3    0    0 -0.23184199430E+01 -0.41777749299E+01 -0.51076492188E+01  0.69940657132E+01  0.51100000000E-03 0. -1.
        -11    1    3    3    0    0  0.22668391500E+01 -0.94556881597E+01  0.21535449512E+01  0.99592346304E+01  0.51100000000E-03 0.  1.
         12    1    3    3    0    0 -0.80874641627E+01 -0.28726086235E+02  0.77549126981E+01  0.30833971167E+02  0.00000000000E+00 0. -1.
</event>
<event>
 7    1  0.2328615E-009  0.4778732E+02  0.7816164E-02  0.1312668E+00
        -11   -1    0    0    0    0  0.00000000000E+00  0.00000000000E+00  0.45593999997E+02  0.45594000000E+02  0.51100000000E-03 0. -1.
         11   -1    0    0    0    0 -0.00000000000E+00 -0.00000000000E+00 -0.45593999997E+02  0.45594000000E+02  0.51100000000E-03 0.  1.
    9900012    2    1    2    0    0 -0.37163305036E+02 -0.22404304362E+02 -0.74506869950E+00  0.47787317719E+02  0.20000212805E+02 0.  0.
         12    1    1    2    0    0  0.37163305036E+02  0.22404304362E+02  0.74506869950E+00  0.43400682281E+02  0.00000000000E+00 0. -1.
         11    1    3    3    0    0 -0.27728137676E+02 -0.16475162810E+02 -0.92888895048E+01  0.33564327449E+02  0.51100000000E-03 0. -1.
        -11    1    3    3    0    0 -0.37090408441E+01 -0.26576107476E+01  0.21743193550E+01  0.50544578134E+01  0.51100000000E-03 0.  1.
         12    1    3    3    0    0 -0.57261265158E+01 -0.32715308044E+01  0.63695014503E+01  0.91685324565E+01  0.00000000000E+00 0. -1.
</event>
<event>
 7    1  0.2328615E-009  0.4778727E+02  0.7816164E-02  0.1312668E+00
        -11   -1    0    0    0    0  0.00000000000E+00  0.00000000000E+00  0.45593999997E+02  0.45594000000E+02  0.51100000000E-03 0.  1.
         11   -1    0    0    0    0 -0.00000000000E+00 -0.00000000000E+00 -0.45593999997E+02  0.45594000000E+02  0.51100000000E-03 0. -1.
    9900012    2    1    2    0    0  0.87835341806E+01  0.17657358908E+02  0.38661226399E+02  0.47787271630E+02  0.20000002671E+02 0.  0.
         12    1    1    2    0    0 -0.87835341806E+01 -0.17657358908E+02 -0.38661226399E+02  0.43400728370E+02  0.00000000000E+00 0. -1.
         11    1    3    3    0    0 -0.27597891133E+01 -0.12827785313E+01  0.54478498475E+01  0.62402744276E+01  0.51100000000E-03 0. -1.
        -11    1    3    3    0    0  0.64010124561E+01  0.30070306146E+01  0.47321033912E+01  0.85092888273E+01  0.51100000000E-03 0.  1.
        -12    1    3    3    0    0  0.51423108378E+01  0.15933106825E+02  0.28481273161E+02  0.33037708375E+02  0.00000000000E+00 0.  1.
</event>
<event>
 7    1  0.2328615E-009  0.4778727E+02  0.7816164E-02  0.1312668E+00
        -11   -1    0    0    0    0  0.00000000000E+00  0.00000000000E+00  0.45593999997E+02  0.45594000000E+02  0.51100000000E-03 0.  1.
         11   -1    0    0    0    0 -0.00000000000E+00 -0.00000000000E+00 -0.45593999997E+02  0.45594000000E+02  0.51100000000E-03 0. -1.
    9900012    2    1    2    0    0 -0.15371999523E+02  0.26034898211E+02  0.31136940997E+02  0.47787269720E+02  0.19999993963E+02 0.  0.
         12    1    1    2    0    0  0.15371999523E+02 -0.26034898211E+02 -0.31136940997E+02  0.43400730280E+02  0.00000000000E+00 0. -1.
         11    1    3    3    0    0 -0.14062932039E+02  0.24876377200E+02  0.19418418240E+02  0.34549604446E+02  0.51100000000E-03 0. -1.
        -11    1    3    3    0    0 -0.80265259176E+00  0.35837270362E+01  0.73099674321E+01  0.81806463542E+01  0.51100000000E-03 0.  1.
         12    1    3    3    0    0 -0.50641489205E+00 -0.24252060260E+01  0.44085553244E+01  0.50570189203E+01  0.00000000000E+00 0. -1.
</event>
<event>
 7    1  0.2328615E-009  0.4778727E+02  0.7816164E-02  0.1312668E+00
        -11   -1    0    0    0    0  0.00000000000E+00  0.00000000000E+00  0.45593999997E+02  0.45594000000E+02  0.51100000000E-03 0. -1.
         11   -1    0    0    0    0 -0.00000000000E+00 -0.00000000000E+00 -0.45593999997E+02  0.45594000000E+02  0.51100000000E-03 0.  1.
    9900012    2    1    2    0    0  0.16915686184E+02  0.38820939706E+02 -0.95088100424E+01  0.47787271122E+02  0.20000000352E+02 0.  0.
         12    1    1    2    0    0 -0.16915686184E+02 -0.38820939706E+02  0.95088100424E+01  0.43400728878E+02  0.00000000000E+00 0. -1.
         11    1    3    3    0    0  0.41586102368E+01  0.80761413095E+01 -0.37289455201E+01  0.98195281203E+01  0.51100000000E-03 0. -1.
        -11    1    3    3    0    0 -0.13750353619E+01  0.18904950213E+02 -0.45324480911E+01  0.19489252186E+02  0.51100000000E-03 0.  1.
         12    1    3    3    0    0  0.14132111309E+02  0.11839848184E+02 -0.12474164312E+01  0.18478490816E+02  0.00000000000E+00 0. -1.
</event>
<event>
 7    1  0.2328615E-009  0.4778728E+02  0.7816164E-02  0.1312668E+00
        -11   -1    0    0    0    0  0.00000000000E+00  0.00000000000E+00  0.45593999997E+02  0.45594000000E+02  0.51100000000E-03 0.  1.
         11   -1    0    0    0    0 -0.00000000000E+00 -0.00000000000E+00 -0.45593999997E+02  0.45594000000E+02  0.51100000000E-03 0. -1.
    9900012    2    1    2    0    0 -0.39459822767E+02 -0.17244703379E+02  0.54004498819E+01  0.47787282652E+02  0.20000052924E+02 0.  0.
         12    1    1    2    0    0  0.39459822767E+02  0.17244703379E+02 -0.54004498819E+01  0.43400717348E+02  0.00000000000E+00 0. -1.
         11    1    3    3    0    0 -0.88204351392E+01 -0.91418752770E+01  0.57412515218E+01  0.13940442207E+02  0.51100000000E-03 0. -1.
        -11    1    3    3    0    0 -0.12085223731E+02 -0.20379302716E+01  0.55545141822E+01  0.13455795052E+02  0.51100000000E-03 0.  1.
         12    1    3    3    0    0 -0.18554163896E+02 -0.60648978303E+01 -0.58953158220E+01  0.20391045393E+02  0.00000000000E+00 0. -1.
</event>
<event>
 7    1  0.2328615E-009  0.4778725E+02  0.7816164E-02  0.1312668E+00
        -11   -1    0    0    0    0  0.00000000000E+00  0.00000000000E+00  0.45593999997E+02  0.45594000000E+02  0.51100000000E-03 0. -1.
         11   -1    0    0    0    0 -0.00000000000E+00 -0.00000000000E+00 -0.45593999997E+02  0.45594000000E+02  0.51100000000E-03 0.  1.
    9900012    2    1    2    0    0 -0.23650617563E+02  0.34250312792E+02 -0.12295904948E+02  0.47787252127E+02  0.19999913747E+02 0.  0.
         12    1    1    2    0    0  0.23650617563E+02 -0.34250312792E+02  0.12295904948E+02  0.43400747873E+02  0.00000000000E+00 0. -1.
         11    1    3    3    0    0  0.84655779971E+00  0.66721316339E+01  0.10797522811E+01  0.68117447029E+01  0.51100000000E-03 0.  1.
        -11    1    3    3    0    0 -0.17044734134E+01  0.39977595834E+01  0.19648774022E+01  0.47694920872E+01  0.51100000000E-03 0. -1.
         12    1    3    3    0    0 -0.22792701950E+02  0.23580421574E+02 -0.15340534631E+02  0.36206015337E+02  0.00000000000E+00 0. -1.
</event>
<event>
 7    1  0.2328615E-009  0.4778727E+02  0.7816164E-02  0.1312668E+00
        -11   -1    0    0    0    0  0.00000000000E+00  0.00000000000E+00  0.45593999997E+02  0.45594000000E+02  0.51100000000E-03 0. -1.
         11   -1    0    0    0    0 -0.00000000000E+00 -0.00000000000E+00 -0.45593999997E+02  0.45594000000E+02  0.51100000000E-03 0.  1.
    9900012    2    1    2    0    0 -0.10104253075E+02  0.36829838323E+02 -0.20617724300E+02  0.47787268711E+02  0.19999989360E+02 0.  0.
         12    1    1    2    0    0  0.10104253075E+02 -0.36829838323E+02  0.20617724300E+02  0.43400731289E+02  0.00000000000E+00 0. -1.
         11    1    3    3    0    0 -0.30191322703E+00  0.32863785899E+01 -0.28562594114E+00  0.33125546444E+01  0.51100000000E-03 0. -1.
        -11    1    3    3    0    0 -0.10403173906E+02  0.22229151704E+02 -0.22076331248E+02  0.33010992327E+02  0.51100000000E-03 0.  1.
        -12    1    3    3    0    0  0.60083405755E+00  0.11314308030E+02  0.17442328889E+01  0.11463721740E+02  0.00000000000E+00 0.  1.
</event>
<event>
 7    1  0.2328615E-009  0.4778727E+02  0.7816164E-02  0.1312668E+00
        -11   -1    0    0    0    0  0.00000000000E+00  0.00000000000E+00  0.45593999997E+02  0.45594000000E+02  0.51100000000E-03 0.  1.
         11   -1    0    0    0    0 -0.00000000000E+00 -0.00000000000E+00 -0.45593999997E+02  0.45594000000E+02  0.51100000000E-03 0. -1.
    9900012    2    1    2    0    0  0.12394506217E+02  0.41462047205E+02  0.33012044137E+01  0.47787273124E+02  0.20000009481E+02 0.  0.
         12    1    1    2    0    0 -0.12394506217E+02 -0.41462047205E+02 -0.33012044137E+01  0.43400726876E+02  0.00000000000E+00 0. -1.
         11    1    3    3    0    0  0.10594715693E+02  0.10082874736E+02  0.70453259334E+00  0.14642702277E+02  0.51100000000E-03 0. -1.
        -11    1    3    3    0    0  0.46168703220E+01  0.16425964116E+02  0.49066960567E+01  0.17753970124E+02  0.51100000000E-03 0.  1.
         12    1    3    3    0    0 -0.28170797974E+01  0.14953208353E+02 -0.23100242364E+01  0.15390600722E+02  0.00000000000E+00 0. -1.
</event>
<event>
 7    1  0.2328615E-009  0.4778727E+02  0.7816164E-02  0.1312668E+00
        -11   -1    0    0    0    0  0.00000000000E+00  0.00000000000E+00  0.45593999997E+02  0.45594000000E+02  0.51100000000E-03 0.  1.
         11   -1    0    0    0    0 -0.00000000000E+00 -0.00000000000E+00 -0.45593999997E+02  0.45594000000E+02  0.51100000000E-03 0. -1.
    9900012    2    1    2    0    0  0.31680453577E+02  0.27396982219E+02 -0.11374438164E+02  0.47787267091E+02  0.19999981973E+02 0.  0.
         12    1    1    2    0    0 -0.31680453577E+02 -0.27396982219E+02  0.11374438164E+02  0.43400732909E+02  0.00000000000E+00 0. -1.
         11    1    3    3    0    0  0.32812226787E+01  0.56839510362E+01 -0.69887973510E+01  0.95873359346E+01  0.51100000000E-03 0. -1.
        -11    1    3    3    0    0  0.18949313097E+02  0.18030150913E+02 -0.81264781667E+01  0.27389823959E+02  0.51100000000E-03 0.  1.
         12    1    3    3    0    0  0.94499178007E+01  0.36828802688E+01  0.37408373533E+01  0.10810107197E+02  0.00000000000E+00 0. -1.
</event>
<event>
 7    1  0.2328615E-009  0.4778727E+02  0.7816164E-02  0.1312668E+00
        -11   -1    0    0    0    0  0.00000000000E+00  0.00000000000E+00  0.45593999997E+02  0.45594000000E+02  0.51100000000E-03 0.  1.
         11   -1    0    0    0    0 -0.00000000000E+00 -0.00000000000E+00 -0.45593999997E+02  0.45594000000E+02  0.51100000000E-03 0. -1.
    9900012    2    1    2    0    0 -0.23932201934E+02  0.33544351394E+01  0.36050257406E+02  0.47787267477E+02  0.19999983735E+02 0.  0.
         12    1    1    2    0    0  0.23932201934E+02 -0.33544351394E+01 -0.36050257406E+02  0.43400732523E+02  0.00000000000E+00 0. -1.
         11    1    3    3    0    0  0.12828684878E+01 -0.35418044195E+01  0.42205058996E+01  0.56571017679E+01  0.51100000000E-03 0. -1.
        -11    1    3    3    0    0 -0.44850826239E+01  0.21778714833E+01  0.12257000813E+02  0.13232277186E+02  0.51100000000E-03 0.  1.
        -12    1    3    3    0    0 -0.20729987798E+02  0.47183680756E+01  0.19572750693E+02  0.28897888523E+02  0.00000000000E+00 0.  1.
</event>
<event>
 7    1  0.2328615E-009  0.4778727E+02  0.7816164E-02  0.1312668E+00
        -11   -1    0    0    0    0  0.00000000000E+00  0.00000000000E+00  0.45593999997E+02  0.45594000000E+02  0.51100000000E-03 0.  1.
         11   -1    0    0    0    0 -0.00000000000E+00 -0.00000000000E+00 -0.45593999997E+02  0.45594000000E+02  0.51100000000E-03 0. -1.
    9900012    2    1    2    0    0 -0.34057550461E+02 -0.16675216945E+02  0.21110275458E+02  0.47787270358E+02  0.19999996870E+02 0.  0.
         12    1    1    2    0    0  0.34057550461E+02  0.16675216945E+02 -0.21110275458E+02  0.43400729642E+02  0.00000000000E+00 0. -1.
         11    1    3    3    0    0 -0.13692335047E+02 -0.10605876165E+01  0.44583186089E+01  0.14438888122E+02  0.51100000000E-03 0. -1.
        -11    1    3    3    0    0 -0.85923702270E+01  0.86821902001E+00  0.48086855814E+01  0.98846389751E+01  0.51100000000E-03 0.  1.
        -12    1    3    3    0    0 -0.11772845187E+02 -0.16482848348E+02  0.11843271268E+02  0.23463743260E+02  0.00000000000E+00 0.  1.
</event>
<event>
 7    1  0.2328615E-009  0.4778727E+02  0.7816164E-02  0.1312668E+00
        -11   -1    0    0    0    0  0.00000000000E+00  0.00000000000E+00  0.45593999997E+02  0.45594000000E+02  0.51100000000E-03 0.  1.
         11   -1    0    0    0    0 -0.00000000000E+00 -0.00000000000E+00 -0.45593999997E+02  0.45594000000E+02  0.51100000000E-03 0. -1.
    9900012    2    1    2    0    0  0.25468305785E+02 -0.31123537408E+02  0.16319122822E+02  0.47787274775E+02  0.20000017011E+02 0.  0.
         12    1    1    2    0    0 -0.25468305785E+02  0.31123537408E+02 -0.16319122822E+02  0.43400725225E+02  0.00000000000E+00 0. -1.
         11    1    3    3    0    0  0.71667198515E+01 -0.21947452150E+01  0.52522021357E+01  0.91522897421E+01  0.51100000000E-03 0. -1.
        -11    1    3    3    0    0  0.13097890911E+02 -0.15532974232E+02  0.13019932175E+02  0.24131860039E+02  0.51100000000E-03 0.  1.
         12    1    3    3    0    0  0.52036950217E+01 -0.13395817961E+02 -0.19530114890E+01  0.14503124994E+02  0.00000000000E+00 0. -1.
</event>
<event>
 7    1  0.2328615E-009  0.4778728E+02  0.7816164E-02  0.1312668E+00
        -11   -1    0    0    0    0  0.00000000000E+00  0.00000000000E+00  0.45593999997E+02  0.45594000000E+02  0.51100000000E-03 0. -1.
         11   -1    0    0    0    0 -0.00000000000E+00 -0.00000000000E+00 -0.45593999997E+02  0.45594000000E+02  0.51100000000E-03 0.  1.
    9900012    2    1    2    0    0 -0.24167471552E+02 -0.34414687076E+02 -0.10732437503E+02  0.47787279009E+02  0.20000036316E+02 0.  0.
         12    1    1    2    0    0  0.24167471552E+02  0.34414687076E+02  0.10732437503E+02  0.43400720991E+02  0.00000000000E+00 0. -1.
         11    1    3    3    0    0 -0.88821108644E+01 -0.31782154366E+01  0.73501457962E+00  0.94621981306E+01  0.51100000000E-03 0. -1.
        -11    1    3    3    0    0 -0.10434792132E+02 -0.11146796885E+02 -0.13895675026E+01  0.15331890482E+02  0.51100000000E-03 0.  1.
         12    1    3    3    0    0 -0.48505685557E+01 -0.20089674754E+02 -0.10077884580E+02  0.22993190397E+02  0.00000000000E+00 0. -1.
</event>
<event>
 7    1  0.2328615E-009  0.4778727E+02  0.7816164E-02  0.1312668E+00
        -11   -1    0    0    0    0  0.00000000000E+00  0.00000000000E+00  0.45593999997E+02  0.45594000000E+02  0.51100000000E-03 0.  1.
         11   -1    0    0    0    0 -0.00000000000E+00 -0.00000000000E+00 -0.45593999997E+02  0.45594000000E+02  0.51100000000E-03 0. -1.
    9900012    2    1    2    0    0  0.38590123153E+02  0.13464613167E+02  0.14598963670E+02  0.47787272438E+02  0.20000006353E+02 0.  0.
         12    1    1    2    0    0 -0.38590123153E+02 -0.13464613167E+02 -0.14598963670E+02  0.43400727562E+02  0.00000000000E+00 0. -1.
         11    1    3    3    0    0  0.30430761499E+01  0.31266973029E+01 -0.23396231637E+01  0.49507964296E+01  0.51100000000E-03 0. -1.
        -11    1    3    3    0    0  0.11363129403E+02  0.25766369482E+01 -0.10707811128E+01  0.11700698281E+02  0.51100000000E-03 0.  1.
         12    1    3    3    0    0  0.24183917599E+02  0.77612789159E+01  0.18009367947E+02  0.31135777728E+02  0.00000000000E+00 0. -1.
</event>
<event>
 7    1  0.2328615E-009  0.4778727E+02  0.7816164E-02  0.1312668E+00
        -11   -1    0    0    0    0  0.00000000000E+00  0.00000000000E+00  0.45593999997E+02  0.45594000000E+02  0.51100000000E-03 0.  1.
         11   -1    0    0    0    0 -0.00000000000E+00 -0.00000000000E+00 -0.45593999997E+02  0.45594000000E+02  0.51100000000E-03 0. -1.
    9900012    2    1    2    0    0  0.34652027775E+02 -0.75532073008E+01  0.25016184711E+02  0.47787268820E+02  0.19999989858E+02 0.  0.
         12    1    1    2    0    0 -0.34652027775E+02  0.75532073008E+01 -0.25016184711E+02  0.43400731180E+02  0.00000000000E+00 0. -1.
         11    1    3    3    0    0  0.11418846207E+02 -0.33648614982E+01  0.41195474320E+01  0.12596944586E+02  0.51100000000E-03 0. -1.
        -11    1    3    3    0    0  0.21608430730E+02  0.21140242648E+01  0.14830733849E+02  0.26293422067E+02  0.51100000000E-03 0.  1.
        -12    1    3    3    0    0  0.16247508379E+01 -0.63023700674E+01  0.60659034293E+01  0.88969021668E+01  0.00000000000E+00 0.  1.
</event>
<event>
 7    1  0.2328615E-009  0.4778727E+02  0.7816164E-02  0.1312668E+00
        -11   -1    0    0    0    0  0.00000000000E+00  0.00000000000E+00  0.45593999997E+02  0.45594000000E+02  0.51100000000E-03 0.  1.
         11   -1    0    0    0    0 -0.00000000000E+00 -0.00000000000E+00 -0.45593999997E+02  0.45594000000E+02  0.51100000000E-03 0. -1.
    9900012    2    1    2    0    0 -0.16679853993E+02  0.24163703708E+02  0.31961240660E+02  0.47787274077E+02  0.20000013826E+02 0.  0.
         12    1    1    2    0    0  0.16679853993E+02 -0.24163703708E+02 -0.31961240660E+02  0.43400725923E+02  0.00000000000E+00 0. -1.
         11    1    3    3    0    0 -0.86217466984E+01  0.93224692726E+01  0.41297576874E+01  0.13352821735E+02  0.51100000000E-03 0. -1.
        -11    1    3    3    0    0 -0.26637488999E+01  0.11060914971E+02  0.90695424513E+01  0.14549776587E+02  0.51100000000E-03 0.  1.
        -12    1    3    3    0    0 -0.53943583944E+01  0.37803194646E+01  0.18761940522E+02  0.19884675755E+02  0.00000000000E+00 0.  1.
</event>
<event>
 7    1  0.2328615E-009  0.4778727E+02  0.7816164E-02  0.1312668E+00
        -11   -1    0    0    0    0  0.00000000000E+00  0.00000000000E+00  0.45593999997E+02  0.45594000000E+02  0.51100000000E-03 0.  1.
         11   -1    0    0    0    0 -0.00000000000E+00 -0.00000000000E+00 -0.45593999997E+02  0.45594000000E+02  0.51100000000E-03 0. -1.
    9900012    2    1    2    0    0  0.28238513426E+02 -0.12784176545E+02  0.30377202123E+02  0.47787271673E+02  0.20000002866E+02 0.  0.
         12    1    1    2    0    0 -0.28238513426E+02  0.12784176545E+02 -0.30377202123E+02  0.43400728327E+02  0.00000000000E+00 0. -1.
         11    1    3    3    0    0  0.52244772758E+00  0.14866835337E+01  0.55489617296E+00  0.16706554347E+01  0.51100000000E-03 0. -1.
        -11    1    3    3    0    0  0.66681587640E+01  0.34415132531E+01  0.46441457716E+01  0.88247631686E+01  0.51100000000E-03 0.  1.
        -12    1    3    3    0    0  0.21047906935E+02 -0.17712373332E+02  0.25178160179E+02  0.37291853070E+02  0.00000000000E+00 0.  1.
</event>
<event>
 7    1  0.2328615E-009  0.4778727E+02  0.7816164E-02  0.1312668E+00
        -11   -1    0    0    0    0  0.00000000000E+00  0.00000000000E+00  0.45593999997E+02  0.45594000000E+02  0.51100000000E-03 0. -1.
         11   -1    0    0    0    0 -0.00000000000E+00 -0.00000000000E+00 -0.45593999997E+02  0.45594000000E+02  0.51100000000E-03 0.  1.
    9900012    2    1    2    0    0  0.30207326181E+02  0.26728581608E+02 -0.16022598451E+02  0.47787270848E+02  0.19999999104E+02 0.  0.
         12    1    1    2    0    0 -0.30207326181E+02 -0.26728581608E+02  0.16022598451E+02  0.43400729152E+02  0.00000000000E+00 0. -1.
         11    1    3    3    0    0  0.85411387010E+01  0.61218774588E+01 -0.69141815903E+00  0.10531215185E+02  0.51100000000E-03 0. -1.
        -11    1    3    3    0    0 -0.14032079098E+01  0.11779203503E+01  0.18010137835E+01  0.25690737045E+01  0.51100000000E-03 0.  1.
         12    1    3    3    0    0  0.23069395390E+02  0.19428783799E+02 -0.17132194076E+02  0.34686981959E+02  0.00000000000E+00 0. -1.
</event>
<event>
 7    1  0.2328615E-009  0.4778728E+02  0.7816164E-02  0.1312668E+00
        -11   -1    0    0    0    0  0.00000000000E+00  0.00000000000E+00  0.45593999997E+02  0.45594000000E+02  0.51100000000E-03 0. -1.
         11   -1    0    0    0    0 -0.00000000000E+00 -0.00000000000E+00 -0.45593999997E+02  0.45594000000E+02  0.51100000000E-03 0.  1.
    9900012    2    1    2    0    0 -0.33980348871E+02  0.20358681305E+02 -0.17733654768E+02  0.47787279668E+02  0.20000039319E+02 0.  0.
         12    1    1    2    0    0  0.33980348871E+02 -0.20358681305E+02  0.17733654768E+02  0.43400720332E+02  0.00000000000E+00 0. -1.
         11    1    3    3    0    0 -0.10226080439E+02  0.38714619537E+01 -0.30750629066E+01  0.11358562891E+02  0.51100000000E-03 0. -1.
        -11    1    3    3    0    0 -0.20721241454E+02  0.10380487975E+02 -0.36241705461E+01  0.23457599844E+02  0.51100000000E-03 0.  1.
         12    1    3    3    0    0 -0.30330269777E+01  0.61067313763E+01 -0.11034421315E+02  0.12971116934E+02  0.00000000000E+00 0. -1.
</event>
<event>
 7    1  0.2328615E-009  0.4778727E+02  0.7816164E-02  0.1312668E+00
        -11   -1    0    0    0    0  0.00000000000E+00  0.00000000000E+00  0.45593999997E+02  0.45594000000E+02  0.51100000000E-03 0. -1.
         11   -1    0    0    0    0 -0.00000000000E+00 -0.00000000000E+00 -0.45593999997E+02  0.45594000000E+02  0.51100000000E-03 0.  1.
    9900012    2    1    2    0    0 -0.36073703916E+02 -0.22042863913E+02  0.98195569941E+01  0.47787266559E+02  0.19999979547E+02 0.  0.
         12    1    1    2    0    0  0.36073703916E+02  0.22042863913E+02 -0.98195569941E+01  0.43400733441E+02  0.00000000000E+00 0. -1.
         11    1    3    3    0    0 -0.63011700338E+01 -0.50233754278E+01 -0.37373597333E+01  0.88829557311E+01  0.51100000000E-03 0. -1.
        -11    1    3    3    0    0 -0.17544015014E+02 -0.10463200137E+02  0.14311747772E+01  0.20477286964E+02  0.51100000000E-03 0.  1.
         12    1    3    3    0    0 -0.12228518868E+02 -0.65562883487E+01  0.12125741950E+02  0.18427023863E+02  0.00000000000E+00 0. -1.
</event>
<event>
 7    1  0.2328615E-009  0.4778730E+02  0.7816164E-02  0.1312668E+00
        -11   -1    0    0    0    0  0.00000000000E+00  0.00000000000E+00  0.45593999997E+02  0.45594000000E+02  0.51100000000E-03 0. -1.
         11   -1    0    0    0    0 -0.00000000000E+00 -0.00000000000E+00 -0.45593999997E+02  0.45594000000E+02  0.51100000000E-03 0.  1.
    9900012    2    1    2    0    0 -0.14304468660E+00  0.43008772140E+02 -0.58177188258E+01  0.47787299601E+02  0.20000130200E+02 0.  0.
         12    1    1    2    0    0  0.14304468660E+00 -0.43008772140E+02  0.58177188258E+01  0.43400700399E+02  0.00000000000E+00 0. -1.
         11    1    3    3    0    0 -0.12575026908E+00  0.73087417143E+01  0.61714256675E+01  0.95666093056E+01  0.51100000000E-03 0. -1.
        -11    1    3    3    0    0  0.17613365678E+01  0.42414024759E+01 -0.28824425416E+01  0.54222022034E+01  0.51100000000E-03 0.  1.
         12    1    3    3    0    0 -0.17786309853E+01  0.31458627950E+02 -0.91067019518E+01  0.32798488092E+02  0.00000000000E+00 0. -1.
</event>
<event>
 7    1  0.2328615E-009  0.4778727E+02  0.7816164E-02  0.1312668E+00
        -11   -1    0    0    0    0  0.00000000000E+00  0.00000000000E+00  0.45593999997E+02  0.45594000000E+02  0.51100000000E-03 0.  1.
         11   -1    0    0    0    0 -0.00000000000E+00 -0.00000000000E+00 -0.45593999997E+02  0.45594000000E+02  0.51100000000E-03 0. -1.
    9900012    2    1    2    0    0 -0.34546766758E+02  0.19615734850E+02  0.17474751626E+02  0.47787273146E+02  0.20000009580E+02 0.  0.
         12    1    1    2    0    0  0.34546766758E+02 -0.19615734850E+02 -0.17474751626E+02  0.43400726854E+02  0.00000000000E+00 0. -1.
         11    1    3    3    0    0 -0.10057362588E+02  0.94428901243E+01  0.10839443765E+02  0.17544579149E+02  0.51100000000E-03 0. -1.
        -11    1    3    3    0    0 -0.14640979371E+02  0.83482812208E+01  0.10095124885E+02  0.19645956912E+02  0.51100000000E-03 0.  1.
         12    1    3    3    0    0 -0.98484247984E+01  0.18245635046E+01 -0.34598170241E+01  0.10596737084E+02  0.00000000000E+00 0. -1.
</event>
<event>
 7    1  0.2328615E-009  0.4778726E+02  0.7816164E-02  0.1312668E+00
        -11   -1    0    0    0    0  0.00000000000E+00  0.00000000000E+00  0.45593999997E+02  0.45594000000E+02  0.51100000000E-03 0.  1.
         11   -1    0    0    0    0 -0.00000000000E+00 -0.00000000000E+00 -0.45593999997E+02  0.45594000000E+02  0.51100000000E-03 0. -1.
    9900012    2    1    2    0    0 -0.16219474412E+02  0.22999132807E+02  0.33039256793E+02  0.47787263261E+02  0.19999964511E+02 0.  0.
         12    1    1    2    0    0  0.16219474412E+02 -0.22999132807E+02 -0.33039256793E+02  0.43400736739E+02  0.00000000000E+00 0. -1.
         11    1    3    3    0    0 -0.77223613558E+01  0.11212297050E+02  0.11293248786E+02  0.17688638683E+02  0.51100000000E-03 0. -1.
        -11    1    3    3    0    0  0.50074255311E+00  0.10748413382E+02  0.16295699507E+02  0.19527645941E+02  0.51100000000E-03 0.  1.
         12    1    3    3    0    0 -0.89978556089E+01  0.10384223758E+01  0.54503085000E+01  0.10570978637E+02  0.00000000000E+00 0. -1.
</event>
<event>
 7    1  0.2328615E-009  0.4778726E+02  0.7816164E-02  0.1312668E+00
        -11   -1    0    0    0    0  0.00000000000E+00  0.00000000000E+00  0.45593999997E+02  0.45594000000E+02  0.51100000000E-03 0.  1.
         11   -1    0    0    0    0 -0.00000000000E+00 -0.00000000000E+00 -0.45593999997E+02  0.45594000000E+02  0.51100000000E-03 0. -1.
    9900012    2    1    2    0    0 -0.29014896600E+02 -0.31950186840E+02 -0.45766392972E+01  0.47787259325E+02  0.19999946568E+02 0.  0.
         12    1    1    2    0    0  0.29014896600E+02  0.31950186840E+02  0.45766392972E+01  0.43400740675E+02  0.00000000000E+00 0. -1.
         11    1    3    3    0    0 -0.18257358187E+02 -0.25408573042E+02  0.10422170905E+00  0.31287978113E+02  0.51100000000E-03 0. -1.
        -11    1    3    3    0    0 -0.38916400275E+01 -0.39446417389E+01  0.26347740822E+01  0.61357228814E+01  0.51100000000E-03 0.  1.
        -12    1    3    3    0    0 -0.68658983863E+01 -0.25969720588E+01 -0.73156350884E+01  0.10363558331E+02  0.00000000000E+00 0.  1.
</event>
<event>
 7    1  0.2328615E-009  0.4778727E+02  0.7816164E-02  0.1312668E+00
        -11   -1    0    0    0    0  0.00000000000E+00  0.00000000000E+00  0.45593999997E+02  0.45594000000E+02  0.51100000000E-03 0. -1.
         11   -1    0    0    0    0 -0.00000000000E+00 -0.00000000000E+00 -0.45593999997E+02  0.45594000000E+02  0.51100000000E-03 0.  1.
    9900012    2    1    2    0    0  0.48093248677E-01 -0.36468527985E+02 -0.23530134830E+02  0.47787273146E+02  0.20000009580E+02 0.  0.
         12    1    1    2    0    0 -0.48093248677E-01  0.36468527985E+02  0.23530134830E+02  0.43400726854E+02  0.00000000000E+00 0. -1.
         11    1    3    3    0    0 -0.63237702672E+00  0.29521104899E+00  0.20683116370E+00  0.72789398869E+00  0.51100000000E-03 0. -1.
        -11    1    3    3    0    0  0.23181955307E+01 -0.24517734618E+02 -0.58367048800E+01  0.25309296028E+02  0.51100000000E-03 0.  1.
        -12    1    3    3    0    0 -0.16377252553E+01 -0.12246004416E+02 -0.17900261114E+02  0.21750083129E+02  0.00000000000E+00 0.  1.
</event>
<event>
 7    1  0.2328615E-009  0.4778727E+02  0.7816164E-02  0.1312668E+00
        -11   -1    0    0    0    0  0.00000000000E+00  0.00000000000E+00  0.45593999997E+02  0.45594000000E+02  0.51100000000E-03 0.  1.
         11   -1    0    0    0    0 -0.00000000000E+00 -0.00000000000E+00 -0.45593999997E+02  0.45594000000E+02  0.51100000000E-03 0. -1.
    9900012    2    1    2    0    0  0.27171515181E+02 -0.25486220586E+02  0.22266219426E+02  0.47787271843E+02  0.20000003643E+02 0.  0.
         12    1    1    2    0    0 -0.27171515181E+02  0.25486220586E+02 -0.22266219426E+02  0.43400728157E+02  0.00000000000E+00 0. -1.
         11    1    3    3    0    0 -0.44013483090E-01  0.68533284746E+00  0.49578572138E+01  0.50051939735E+01  0.51100000000E-03 0. -1.
        -11    1    3    3    0    0  0.10050752721E+02 -0.16772343429E+02  0.84615895521E+01  0.21305577494E+02  0.51100000000E-03 0.  1.
         12    1    3    3    0    0  0.17164775943E+02 -0.93992100047E+01  0.88467726600E+01  0.21476500376E+02  0.00000000000E+00 0. -1.
</event>
<event>
 7    1  0.2328615E-009  0.4778728E+02  0.7816164E-02  0.1312668E+00
        -11   -1    0    0    0    0  0.00000000000E+00  0.00000000000E+00  0.45593999997E+02  0.45594000000E+02  0.51100000000E-03 0. -1.
         11   -1    0    0    0    0 -0.00000000000E+00 -0.00000000000E+00 -0.45593999997E+02  0.45594000000E+02  0.51100000000E-03 0.  1.
    9900012    2    1    2    0    0 -0.80208505618E+01  0.39232569564E+02 -0.16736015770E+02  0.47787276709E+02  0.20000025829E+02 0.  0.
         12    1    1    2    0    0  0.80208505618E+01 -0.39232569564E+02  0.16736015770E+02  0.43400723291E+02  0.00000000000E+00 0. -1.
         11    1    3    3    0    0  0.23976322441E+01  0.67158464947E+00 -0.26943496577E+01  0.36686764178E+01  0.51100000000E-03 0. -1.
        -11    1    3    3    0    0 -0.44325790953E+00  0.12933603890E+02 -0.99314284328E+01  0.16312812698E+02  0.51100000000E-03 0.  1.
        -12    1    3    3    0    0 -0.99752248963E+01  0.25627381025E+02 -0.41102376794E+01  0.27805787593E+02  0.00000000000E+00 0.  1.
</event>
<event>
 7    1  0.2328615E-009  0.4778727E+02  0.7816164E-02  0.1312668E+00
        -11   -1    0    0    0    0  0.00000000000E+00  0.00000000000E+00  0.45593999997E+02  0.45594000000E+02  0.51100000000E-03 0.  1.
         11   -1    0    0    0    0 -0.00000000000E+00 -0.00000000000E+00 -0.45593999997E+02  0.45594000000E+02  0.51100000000E-03 0. -1.
    9900012    2    1    2    0    0 -0.35315739798E+01 -0.38178565268E+01  0.43087992505E+02  0.47787272572E+02  0.20000006963E+02 0.  0.
         12    1    1    2    0    0  0.35315739798E+01  0.38178565268E+01 -0.43087992505E+02  0.43400727428E+02  0.00000000000E+00 0. -1.
         11    1    3    3    0    0  0.22436449764E+01  0.82488689606E+00  0.16101322193E+01  0.28821705703E+01  0.51100000000E-03 0. -1.
        -11    1    3    3    0    0  0.63674669000E+00  0.46439198965E+01  0.21067141300E+02  0.21582304816E+02  0.51100000000E-03 0.  1.
        -12    1    3    3    0    0 -0.64119656462E+01 -0.92866633194E+01  0.20410718985E+02  0.23322797185E+02  0.00000000000E+00 0.  1.
</event>
<event>
 7    1  0.2328615E-009  0.4778727E+02  0.7816164E-02  0.1312668E+00
        -11   -1    0    0    0    0  0.00000000000E+00  0.00000000000E+00  0.45593999997E+02  0.45594000000E+02  0.51100000000E-03 0. -1.
         11   -1    0    0    0    0 -0.00000000000E+00 -0.00000000000E+00 -0.45593999997E+02  0.45594000000E+02  0.51100000000E-03 0.  1.
    9900012    2    1    2    0    0  0.43456234732E+01 -0.92641294218E+01 -0.42177187287E+02  0.47787266541E+02  0.19999979467E+02 0.  0.
         12    1    1    2    0    0 -0.43456234732E+01  0.92641294218E+01  0.42177187287E+02  0.43400733459E+02  0.00000000000E+00 0. -1.
         11    1    3    3    0    0  0.20545630851E+01  0.24583630539E+01 -0.34563284096E+01  0.47128531392E+01  0.51100000000E-03 0. -1.
        -11    1    3    3    0    0 -0.90041317661E+00 -0.29658792042E+01 -0.30468980122E+02  0.30626229498E+02  0.51100000000E-03 0.  1.
         12    1    3    3    0    0  0.31914735647E+01 -0.87566132715E+01 -0.82518787555E+01  0.12448183903E+02  0.00000000000E+00 0. -1.
</event>
<event>
 7    1  0.2328615E-009  0.4778727E+02  0.7816164E-02  0.1312668E+00
        -11   -1    0    0    0    0  0.00000000000E+00  0.00000000000E+00  0.45593999997E+02  0.45594000000E+02  0.51100000000E-03 0. -1.
         11   -1    0    0    0    0 -0.00000000000E+00 -0.00000000000E+00 -0.45593999997E+02  0.45594000000E+02  0.51100000000E-03 0.  1.
    9900012    2    1    2    0    0  0.11263127950E+02 -0.70365573716E+01 -0.41318909473E+02  0.47787268775E+02  0.19999989652E+02 0.  0.
         12    1    1    2    0    0 -0.11263127950E+02  0.70365573716E+01  0.41318909473E+02  0.43400731225E+02  0.00000000000E+00 0. -1.
         11    1    3    3    0    0 -0.52965124100E-01 -0.27645390484E+01 -0.11184329840E+02  0.11521055320E+02  0.51100000000E-03 0.  1.
        -11    1    3    3    0    0  0.14206207880E+02 -0.67805998074E+01 -0.27264936811E+02  0.31482847006E+02  0.51100000000E-03 0. -1.
         12    1    3    3    0    0 -0.28901148058E+01  0.25085814843E+01 -0.28696428219E+01  0.47833664483E+01  0.00000000000E+00 0. -1.
</event>
<event>
 7    1  0.2328615E-009  0.4778727E+02  0.7816164E-02  0.1312668E+00
        -11   -1    0    0    0    0  0.00000000000E+00  0.00000000000E+00  0.45593999997E+02  0.45594000000E+02  0.51100000000E-03 0.  1.
         11   -1    0    0    0    0 -0.00000000000E+00 -0.00000000000E+00 -0.45593999997E+02  0.45594000000E+02  0.51100000000E-03 0. -1.
    9900012    2    1    2    0    0 -0.23709429656E+01 -0.42553434670E+02 -0.81979995999E+01  0.47787269934E+02  0.19999994938E+02 0.  0.
         12    1    1    2    0    0  0.23709429656E+01  0.42553434670E+02  0.81979995999E+01  0.43400730066E+02  0.00000000000E+00 0. -1.
         11    1    3    3    0    0 -0.23723694227E+01 -0.13044762447E+02 -0.46737989641E+01  0.14058391124E+02  0.51100000000E-03 0. -1.
        -11    1    3    3    0    0 -0.58462340202E+00  0.17122311453E+01 -0.16460945835E+01  0.24460473537E+01  0.51100000000E-03 0.  1.
        -12    1    3    3    0    0  0.58604985910E+00 -0.31220903369E+02 -0.18781060522E+01  0.31282831457E+02  0.00000000000E+00 0.  1.
</event>
<event>
 7    1  0.2328615E-009  0.4778727E+02  0.7816164E-02  0.1312668E+00
        -11   -1    0    0    0    0  0.00000000000E+00  0.00000000000E+00  0.45593999997E+02  0.45594000000E+02  0.51100000000E-03 0.  1.
         11   -1    0    0    0    0 -0.00000000000E+00 -0.00000000000E+00 -0.45593999997E+02  0.45594000000E+02  0.51100000000E-03 0. -1.
    9900012    2    1    2    0    0  0.37616115382E+01  0.38660058848E+02  0.19361658005E+02  0.47787266456E+02  0.19999979079E+02 0.  0.
         12    1    1    2    0    0 -0.37616115382E+01 -0.38660058848E+02 -0.19361658005E+02  0.43400733544E+02  0.00000000000E+00 0. -1.
         11    1    3    3    0    0 -0.58111191036E+01  0.26382520745E+02  0.13177366029E+02  0.30057436382E+02  0.51100000000E-03 0. -1.
        -11    1    3    3    0    0  0.23101030448E+01  0.63211541085E+01  0.49466671738E+00  0.67482042622E+01  0.51100000000E-03 0.  1.
         12    1    3    3    0    0  0.72626275969E+01  0.59563839935E+01  0.56896252586E+01  0.10981625812E+02  0.00000000000E+00 0. -1.
</event>
<event>
 7    1  0.2328615E-009  0.4778728E+02  0.7816164E-02  0.1312668E+00
        -11   -1    0    0    0    0  0.00000000000E+00  0.00000000000E+00  0.45593999997E+02  0.45594000000E+02  0.51100000000E-03 0.  1.
         11   -1    0    0    0    0 -0.00000000000E+00 -0.00000000000E+00 -0.45593999997E+02  0.45594000000E+02  0.51100000000E-03 0. -1.
    9900012    2    1    2    0    0 -0.25954365298E+02  0.26169184486E+02  0.22916532982E+02  0.47787276750E+02  0.20000026014E+02 0.  0.
         12    1    1    2    0    0  0.25954365298E+02 -0.26169184486E+02 -0.22916532982E+02  0.43400723250E+02  0.00000000000E+00 0. -1.
         11    1    3    3    0    0 -0.81456545004E+00 -0.13494452179E+00 -0.28476855433E-01  0.82615863415E+00  0.51100000000E-03 0. -1.
        -11    1    3    3    0    0 -0.84669232340E+01  0.16501083815E+02  0.20205279841E+02  0.27426773230E+02  0.51100000000E-03 0.  1.
        -12    1    3    3    0    0 -0.16672876614E+02  0.98030451935E+01  0.27397299961E+01  0.19534344886E+02  0.00000000000E+00 0.  1.
</event>
<event>
 7    1  0.3953874E-009  0.4778727E+02  0.7816164E-02  0.1312668E+00
        -11   -1    0    0    0    0  0.00000000000E+00  0.00000000000E+00  0.45593999997E+02  0.45594000000E+02  0.51100000000E-03 0. -1.
         11   -1    0    0    0    0 -0.00000000000E+00 -0.00000000000E+00 -0.45593999997E+02  0.45594000000E+02  0.51100000000E-03 0.  1.
    9900012    2    1    2    0    0 -0.16349949619E+02  0.20632915409E+02 -0.34504860447E+02  0.47787269070E+02  0.19999990996E+02 0.  0.
         12    1    1    2    0    0  0.16349949619E+02 -0.20632915409E+02  0.34504860447E+02  0.43400730930E+02  0.00000000000E+00 0. -1.
         11    1    3    3    0    0 -0.21663581556E+01  0.22885683877E+01  0.19017121997E+01  0.36806470186E+01  0.51100000000E-03 0. -1.
        -11    1    3    3    0    0  0.34475208308E+00  0.54808948033E+01 -0.82925028253E+01  0.99460879351E+01  0.51100000000E-03 0.  1.
        -12    1    3    3    0    0 -0.14528343546E+02  0.12863452218E+02 -0.28114069822E+02  0.34160534116E+02  0.00000000000E+00 0.  1.
</event>
<event>
 7    1  0.2328615E-009  0.4778727E+02  0.7816164E-02  0.1312668E+00
        -11   -1    0    0    0    0  0.00000000000E+00  0.00000000000E+00  0.45593999997E+02  0.45594000000E+02  0.51100000000E-03 0. -1.
         11   -1    0    0    0    0 -0.00000000000E+00 -0.00000000000E+00 -0.45593999997E+02  0.45594000000E+02  0.51100000000E-03 0.  1.
    9900012    2    1    2    0    0 -0.32816484526E+02  0.10394470395E+02 -0.26432112814E+02  0.47787271213E+02  0.20000000769E+02 0.  0.
         12    1    1    2    0    0  0.32816484526E+02 -0.10394470395E+02  0.26432112814E+02  0.43400728787E+02  0.00000000000E+00 0. -1.
         11    1    3    3    0    0 -0.96542306756E+01  0.21927617853E+01 -0.14733715674E+02  0.17750908484E+02  0.51100000000E-03 0. -1.
        -11    1    3    3    0    0 -0.18587215407E+02  0.76018192361E+01 -0.14380184728E+02  0.24699432086E+02  0.51100000000E-03 0.  1.
         12    1    3    3    0    0 -0.45750384430E+01  0.59988937385E+00  0.26817875886E+01  0.53369306428E+01  0.00000000000E+00 0. -1.
</event>
<event>
 7    1  0.2328615E-009  0.4778727E+02  0.7816164E-02  0.1312668E+00
        -11   -1    0    0    0    0  0.00000000000E+00  0.00000000000E+00  0.45593999997E+02  0.45594000000E+02  0.51100000000E-03 0.  1.
         11   -1    0    0    0    0 -0.00000000000E+00 -0.00000000000E+00 -0.45593999997E+02  0.45594000000E+02  0.51100000000E-03 0. -1.
    9900012    2    1    2    0    0 -0.13613278516E+02 -0.31763250511E+02  0.26256387837E+02  0.47787270314E+02  0.19999996672E+02 0.  0.
         12    1    1    2    0    0  0.13613278516E+02  0.31763250511E+02 -0.26256387837E+02  0.43400729686E+02  0.00000000000E+00 0. -1.
         11    1    3    3    0    0 -0.22498033197E+01  0.26776364114E+01  0.32915323801E+01  0.48026594090E+01  0.51100000000E-03 0. -1.
        -11    1    3    3    0    0 -0.20182330459E+01 -0.46365993398E+01  0.39527884543E+01  0.64183997142E+01  0.51100000000E-03 0.  1.
         12    1    3    3    0    0 -0.93452421503E+01 -0.29804287583E+02  0.19012067003E+02  0.36566211191E+02  0.00000000000E+00 0. -1.
</event>
<event>
 7    1  0.2328615E-009  0.4778727E+02  0.7816164E-02  0.1312668E+00
        -11   -1    0    0    0    0  0.00000000000E+00  0.00000000000E+00  0.45593999997E+02  0.45594000000E+02  0.51100000000E-03 0.  1.
         11   -1    0    0    0    0 -0.00000000000E+00 -0.00000000000E+00 -0.45593999997E+02  0.45594000000E+02  0.51100000000E-03 0. -1.
    9900012    2    1    2    0    0  0.31735712106E+02 -0.29570512856E+02  0.14328608773E+01  0.47787265631E+02  0.19999975319E+02 0.  0.
         12    1    1    2    0    0 -0.31735712106E+02  0.29570512856E+02 -0.14328608773E+01  0.43400734369E+02  0.00000000000E+00 0. -1.
         11    1    3    3    0    0  0.15324543553E+01 -0.93184243945E+01 -0.15382978842E+01  0.95680619871E+01  0.51100000000E-03 0. -1.
        -11    1    3    3    0    0  0.11623131142E+02 -0.14453775902E+02  0.12165129154E+00  0.18547873589E+02  0.51100000000E-03 0.  1.
        -12    1    3    3    0    0  0.18580126609E+02 -0.57983125600E+01  0.28495074700E+01  0.19671330056E+02  0.00000000000E+00 0.  1.
</event>
<event>
 7    1  0.2328615E-009  0.4778726E+02  0.7816164E-02  0.1312668E+00
        -11   -1    0    0    0    0  0.00000000000E+00  0.00000000000E+00  0.45593999997E+02  0.45594000000E+02  0.51100000000E-03 0.  1.
         11   -1    0    0    0    0 -0.00000000000E+00 -0.00000000000E+00 -0.45593999997E+02  0.45594000000E+02  0.51100000000E-03 0. -1.
    9900012    2    1    2    0    0  0.12387657045E+02 -0.33003748582E+01  0.41464170714E+02  0.47787262975E+02  0.19999963209E+02 0.  0.
         12    1    1    2    0    0 -0.12387657045E+02  0.33003748582E+01 -0.41464170714E+02  0.43400737025E+02  0.00000000000E+00 0. -1.
         11    1    3    3    0    0  0.66086281056E+01  0.24096224299E+01  0.14251798787E+02  0.15893206556E+02  0.51100000000E-03 0. -1.
        -11    1    3    3    0    0  0.80512960662E+01 -0.48025803395E+00  0.63466009733E+01  0.10263204193E+02  0.51100000000E-03 0.  1.
        -12    1    3    3    0    0 -0.22722671270E+01 -0.52297392541E+01  0.20865770954E+02  0.21630852227E+02  0.00000000000E+00 0.  1.
</event>
<event>
 7    1  0.2328615E-009  0.4778727E+02  0.7816164E-02  0.1312668E+00
        -11   -1    0    0    0    0  0.00000000000E+00  0.00000000000E+00  0.45593999997E+02  0.45594000000E+02  0.51100000000E-03 0.  1.
         11   -1    0    0    0    0 -0.00000000000E+00 -0.00000000000E+00 -0.45593999997E+02  0.45594000000E+02  0.51100000000E-03 0. -1.
    9900012    2    1    2    0    0 -0.15821872573E+02 -0.10312786005E+02  0.39076052163E+02  0.47787273514E+02  0.20000011258E+02 0.  0.
         12    1    1    2    0    0  0.15821872573E+02  0.10312786005E+02 -0.39076052163E+02  0.43400726486E+02  0.00000000000E+00 0. -1.
         11    1    3    3    0    0 -0.54062831829E+01  0.15563475439E+01  0.13517851448E+01  0.57859691383E+01  0.51100000000E-03 0. -1.
        -11    1    3    3    0    0 -0.95347736625E+01 -0.38289945756E+01  0.18886245921E+02  0.21500311474E+02  0.51100000000E-03 0.  1.
        -12    1    3    3    0    0 -0.88081572717E+00 -0.80401389730E+01  0.18838021098E+02  0.20500992901E+02  0.00000000000E+00 0.  1.
</event>
<event>
 7    1  0.2328615E-009  0.4778727E+02  0.7816164E-02  0.1312668E+00
        -11   -1    0    0    0    0  0.00000000000E+00  0.00000000000E+00  0.45593999997E+02  0.45594000000E+02  0.51100000000E-03 0.  1.
         11   -1    0    0    0    0 -0.00000000000E+00 -0.00000000000E+00 -0.45593999997E+02  0.45594000000E+02  0.51100000000E-03 0. -1.
    9900012    2    1    2    0    0  0.23192579706E+02 -0.19504564821E+02  0.31069263500E+02  0.47787274929E+02  0.20000017709E+02 0.  0.
         12    1    1    2    0    0 -0.23192579706E+02  0.19504564821E+02 -0.31069263500E+02  0.43400725071E+02  0.00000000000E+00 0. -1.
         11    1    3    3    0    0  0.10738749931E+02 -0.54748344802E+01  0.50579864512E+01  0.13072023174E+02  0.51100000000E-03 0. -1.
        -11    1    3    3    0    0  0.96563712217E+01 -0.13400289453E+02  0.12006192896E+02  0.20419645705E+02  0.51100000000E-03 0.  1.
         12    1    3    3    0    0  0.27974585532E+01 -0.62944088795E+00  0.14005084153E+02  0.14295606049E+02  0.00000000000E+00 0. -1.
</event>
<event>
 7    1  0.2328615E-009  0.4778727E+02  0.7816164E-02  0.1312668E+00
        -11   -1    0    0    0    0  0.00000000000E+00  0.00000000000E+00  0.45593999997E+02  0.45594000000E+02  0.51100000000E-03 0. -1.
         11   -1    0    0    0    0 -0.00000000000E+00 -0.00000000000E+00 -0.45593999997E+02  0.45594000000E+02  0.51100000000E-03 0.  1.
    9900012    2    1    2    0    0 -0.25066153337E+02 -0.35289972562E+02 -0.31510549300E+01  0.47787270125E+02  0.19999995806E+02 0.  0.
         12    1    1    2    0    0  0.25066153337E+02  0.35289972562E+02  0.31510549300E+01  0.43400729875E+02  0.00000000000E+00 0. -1.
         11    1    3    3    0    0 -0.15983180841E+02 -0.19263906112E+02 -0.57576748336E+01  0.25684839269E+02  0.51100000000E-03 0. -1.
        -11    1    3    3    0    0 -0.85153526453E+00 -0.37963484540E+00 -0.33258551861E+01  0.34540625216E+01  0.51100000000E-03 0.  1.
         12    1    3    3    0    0 -0.82314372314E+01 -0.15646431604E+02  0.59324750897E+01  0.18648368334E+02  0.00000000000E+00 0. -1.
</event>
<event>
 7    1  0.2328615E-009  0.4778727E+02  0.7816164E-02  0.1312668E+00
        -11   -1    0    0    0    0  0.00000000000E+00  0.00000000000E+00  0.45593999997E+02  0.45594000000E+02  0.51100000000E-03 0. -1.
         11   -1    0    0    0    0 -0.00000000000E+00 -0.00000000000E+00 -0.45593999997E+02  0.45594000000E+02  0.51100000000E-03 0.  1.
    9900012    2    1    2    0    0  0.30325857322E+02 -0.16911123310E+02 -0.26038040578E+02  0.47787271077E+02  0.20000000149E+02 0.  0.
         12    1    1    2    0    0 -0.30325857322E+02  0.16911123310E+02  0.26038040578E+02  0.43400728923E+02  0.00000000000E+00 0. -1.
         11    1    3    3    0    0  0.17104933026E+01 -0.78993903793E+01 -0.59273590001E+01  0.10022960674E+02  0.51100000000E-03 0. -1.
        -11    1    3    3    0    0  0.14207566786E+02 -0.78281644333E+01 -0.15882883210E+02  0.22702446822E+02  0.51100000000E-03 0.  1.
        -12    1    3    3    0    0  0.14407797233E+02 -0.11835684971E+01 -0.42277983684E+01  0.15061863581E+02  0.00000000000E+00 0.  1.
</event>
<event>
 7    1  0.2328615E-009  0.4778726E+02  0.7816164E-02  0.1312668E+00
        -11   -1    0    0    0    0  0.00000000000E+00  0.00000000000E+00  0.45593999997E+02  0.45594000000E+02  0.51100000000E-03 0.  1.
         11   -1    0    0    0    0 -0.00000000000E+00 -0.00000000000E+00 -0.45593999997E+02  0.45594000000E+02  0.51100000000E-03 0. -1.
    9900012    2    1    2    0    0  0.23245645835E+02  0.45673168913E+01  0.36364865813E+02  0.47787263838E+02  0.19999967141E+02 0.  0.
         12    1    1    2    0    0 -0.23245645835E+02 -0.45673168913E+01 -0.36364865813E+02  0.43400736162E+02  0.00000000000E+00 0. -1.
         11    1    3    3    0    0  0.71226705683E+01 -0.43405652773E+01  0.15017687318E+02  0.17178587707E+02  0.51100000000E-03 0. -1.
        -11    1    3    3    0    0  0.14515576328E+02  0.10891378191E+02  0.21395542090E+02  0.28055183061E+02  0.51100000000E-03 0.  1.
         12    1    3    3    0    0  0.16073989386E+01 -0.19834960224E+01 -0.48363595084E-01  0.25534930695E+01  0.00000000000E+00 0. -1.
</event>
<event>
 7    1  0.2328615E-009  0.4778727E+02  0.7816164E-02  0.1312668E+00
        -11   -1    0    0    0    0  0.00000000000E+00  0.00000000000E+00  0.45593999997E+02  0.45594000000E+02  0.51100000000E-03 0.  1.
         11   -1    0    0    0    0 -0.00000000000E+00 -0.00000000000E+00 -0.45593999997E+02  0.45594000000E+02  0.51100000000E-03 0. -1.
    9900012    2    1    2    0    0 -0.21908589257E+02 -0.29503204737E+02  0.23091074982E+02  0.47787272854E+02  0.20000008248E+02 0.  0.
         12    1    1    2    0    0  0.21908589257E+02  0.29503204737E+02 -0.23091074982E+02  0.43400727146E+02  0.00000000000E+00 0. -1.
         11    1    3    3    0    0 -0.53914943014E+01 -0.97423016868E+01 -0.22605391515E-01  0.11134682942E+02  0.51100000000E-03 0. -1.
        -11    1    3    3    0    0  0.15158964653E+01  0.13597149182E+00  0.18805057188E+01  0.24192421044E+01  0.51100000000E-03 0.  1.
        -12    1    3    3    0    0 -0.18032991421E+02 -0.19896874542E+02  0.21233174655E+02  0.34233347807E+02  0.00000000000E+00 0.  1.
</event>
<event>
 7    1  0.2328615E-009  0.4778726E+02  0.7816164E-02  0.1312668E+00
        -11   -1    0    0    0    0  0.00000000000E+00  0.00000000000E+00  0.45593999997E+02  0.45594000000E+02  0.51100000000E-03 0.  1.
         11   -1    0    0    0    0 -0.00000000000E+00 -0.00000000000E+00 -0.45593999997E+02  0.45594000000E+02  0.51100000000E-03 0. -1.
    9900012    2    1    2    0    0  0.28540244693E+02  0.15177649172E+02  0.28960617096E+02  0.47787263322E+02  0.19999964792E+02 0.  0.
         12    1    1    2    0    0 -0.28540244693E+02 -0.15177649172E+02 -0.28960617096E+02  0.43400736678E+02  0.00000000000E+00 0. -1.
         11    1    3    3    0    0  0.49163238549E+01 -0.35910109158E+00 -0.66006381994E+00  0.49734171701E+01  0.51100000000E-03 0. -1.
        -11    1    3    3    0    0  0.39274996945E+01  0.19159048941E+00  0.10955933106E+02  0.11640207526E+02  0.51100000000E-03 0.  1.
         12    1    3    3    0    0  0.19696421144E+02  0.15345159774E+02  0.18664747810E+02  0.31173638626E+02  0.00000000000E+00 0. -1.
</event>
<event>
 7    1  0.2328615E-009  0.4778727E+02  0.7816164E-02  0.1312668E+00
        -11   -1    0    0    0    0  0.00000000000E+00  0.00000000000E+00  0.45593999997E+02  0.45594000000E+02  0.51100000000E-03 0.  1.
         11   -1    0    0    0    0 -0.00000000000E+00 -0.00000000000E+00 -0.45593999997E+02  0.45594000000E+02  0.51100000000E-03 0. -1.
    9900012    2    1    2    0    0  0.80155598401E+01 -0.22931930876E+02 -0.35965267297E+02  0.47787272990E+02  0.20000008870E+02 0.  0.
         12    1    1    2    0    0 -0.80155598401E+01  0.22931930876E+02  0.35965267297E+02  0.43400727010E+02  0.00000000000E+00 0. -1.
         11    1    3    3    0    0  0.31458720758E+01  0.13137062048E+01  0.10575244724E+00  0.34107944751E+01  0.51100000000E-03 0. -1.
        -11    1    3    3    0    0  0.19580285872E+01 -0.82683291199E+01 -0.67247350210E+01  0.10836106485E+02  0.51100000000E-03 0.  1.
        -12    1    3    3    0    0  0.29116591772E+01 -0.15977307961E+02 -0.29346284723E+02  0.33540372030E+02  0.00000000000E+00 0.  1.
</event>
<event>
 7    1  0.2328615E-009  0.4778728E+02  0.7816164E-02  0.1312668E+00
        -11   -1    0    0    0    0  0.00000000000E+00  0.00000000000E+00  0.45593999997E+02  0.45594000000E+02  0.51100000000E-03 0.  1.
         11   -1    0    0    0    0 -0.00000000000E+00 -0.00000000000E+00 -0.45593999997E+02  0.45594000000E+02  0.51100000000E-03 0. -1.
    9900012    2    1    2    0    0  0.34800421261E+02  0.17736202348E+02  0.18920370882E+02  0.47787278486E+02  0.20000033929E+02 0.  0.
         12    1    1    2    0    0 -0.34800421261E+02 -0.17736202348E+02 -0.18920370882E+02  0.43400721514E+02  0.00000000000E+00 0. -1.
         11    1    3    3    0    0  0.33215101747E+01  0.21372053826E+01 -0.25692157464E+01  0.47117880365E+01  0.51100000000E-03 0. -1.
        -11    1    3    3    0    0  0.16999993620E+02  0.14446030932E+01  0.90772588404E+01  0.19325715756E+02  0.51100000000E-03 0.  1.
         12    1    3    3    0    0  0.14478917466E+02  0.14154393872E+02  0.12412327788E+02  0.23749774693E+02  0.00000000000E+00 0. -1.
</event>
<event>
 7    1  0.2328615E-009  0.4778729E+02  0.7816164E-02  0.1312668E+00
        -11   -1    0    0    0    0  0.00000000000E+00  0.00000000000E+00  0.45593999997E+02  0.45594000000E+02  0.51100000000E-03 0.  1.
         11   -1    0    0    0    0 -0.00000000000E+00 -0.00000000000E+00 -0.45593999997E+02  0.45594000000E+02  0.51100000000E-03 0. -1.
    9900012    2    1    2    0    0 -0.18854668982E+02 -0.39088692898E+02 -0.44445763387E+00  0.47787285749E+02  0.20000067043E+02 0.  0.
         12    1    1    2    0    0  0.18854668982E+02  0.39088692898E+02  0.44445763387E+00  0.43400714251E+02  0.00000000000E+00 0. -1.
         11    1    3    3    0    0 -0.14984774059E+01 -0.16565596967E+02  0.48402931235E+00  0.16640274098E+02  0.51100000000E-03 0. -1.
        -11    1    3    3    0    0 -0.31605828445E+01 -0.72735877356E+01  0.51356519713E+01  0.94482423708E+01  0.51100000000E-03 0.  1.
         12    1    3    3    0    0 -0.14195608732E+02 -0.15249508196E+02 -0.60641389176E+01  0.21698769280E+02  0.00000000000E+00 0. -1.
</event>
<event>
 7    1  0.2328615E-009  0.4778727E+02  0.7816164E-02  0.1312668E+00
        -11   -1    0    0    0    0  0.00000000000E+00  0.00000000000E+00  0.45593999997E+02  0.45594000000E+02  0.51100000000E-03 0.  1.
         11   -1    0    0    0    0 -0.00000000000E+00 -0.00000000000E+00 -0.45593999997E+02  0.45594000000E+02  0.51100000000E-03 0. -1.
    9900012    2    1    2    0    0  0.65586763897E+01  0.33250899065E+02  0.27110602657E+02  0.47787270731E+02  0.19999998573E+02 0.  0.
         12    1    1    2    0    0 -0.65586763897E+01 -0.33250899065E+02 -0.27110602657E+02  0.43400729269E+02  0.00000000000E+00 0. -1.
         11    1    3    3    0    0  0.22410478065E+00  0.58389235461E+00 -0.10643674851E+01  0.12345167633E+01  0.51100000000E-03 0. -1.
        -11    1    3    3    0    0  0.84509053352E+01  0.96691617566E+01  0.15769373382E+02  0.20336755572E+02  0.51100000000E-03 0.  1.
         12    1    3    3    0    0 -0.21163337261E+01  0.22997844953E+02  0.12405596760E+02  0.26215998396E+02  0.00000000000E+00 0. -1.
</event>
<event>
 7    1  0.2328615E-009  0.4778727E+02  0.7816164E-02  0.1312668E+00
        -11   -1    0    0    0    0  0.00000000000E+00  0.00000000000E+00  0.45593999997E+02  0.45594000000E+02  0.51100000000E-03 0.  1.
         11   -1    0    0    0    0 -0.00000000000E+00 -0.00000000000E+00 -0.45593999997E+02  0.45594000000E+02  0.51100000000E-03 0. -1.
    9900012    2    1    2    0    0  0.21955179600E+02 -0.23567888171E+02  0.29088621067E+02  0.47787272591E+02  0.20000007050E+02 0.  0.
         12    1    1    2    0    0 -0.21955179600E+02  0.23567888171E+02 -0.29088621067E+02  0.43400727409E+02  0.00000000000E+00 0. -1.
         11    1    3    3    0    0  0.10019133957E+02 -0.18066649139E+02  0.23976489215E+02  0.31648995114E+02  0.51100000000E-03 0. -1.
        -11    1    3    3    0    0  0.56712872448E+01 -0.16362552551E+00  0.54959056117E+01  0.78990664689E+01  0.51100000000E-03 0.  1.
         12    1    3    3    0    0  0.62647583989E+01 -0.53376135061E+01 -0.38377376048E+00  0.82392110081E+01  0.00000000000E+00 0. -1.
</event>
<event>
 7    1  0.2328615E-009  0.4778726E+02  0.7816164E-02  0.1312668E+00
        -11   -1    0    0    0    0  0.00000000000E+00  0.00000000000E+00  0.45593999997E+02  0.45594000000E+02  0.51100000000E-03 0.  1.
         11   -1    0    0    0    0 -0.00000000000E+00 -0.00000000000E+00 -0.45593999997E+02  0.45594000000E+02  0.51100000000E-03 0. -1.
    9900012    2    1    2    0    0 -0.26103889183E+01  0.28323939704E+01  0.43229475820E+02  0.47787260772E+02  0.19999953162E+02 0.  0.
         12    1    1    2    0    0  0.26103889183E+01 -0.28323939704E+01 -0.43229475820E+02  0.43400739228E+02  0.00000000000E+00 0. -1.
         11    1    3    3    0    0 -0.64487471910E+01 -0.43771130051E+01  0.10092137032E+02  0.12751340664E+02  0.51100000000E-03 0. -1.
        -11    1    3    3    0    0  0.32352091041E+01 -0.80309491108E+00  0.10330480839E+02  0.10854970014E+02  0.51100000000E-03 0.  1.
         12    1    3    3    0    0  0.60314916860E+00  0.80126018865E+01  0.22806857949E+02  0.24180950094E+02  0.00000000000E+00 0. -1.
</event>
<event>
 7    1  0.2328615E-009  0.4778728E+02  0.7816164E-02  0.1312668E+00
        -11   -1    0    0    0    0  0.00000000000E+00  0.00000000000E+00  0.45593999997E+02  0.45594000000E+02  0.51100000000E-03 0. -1.
         11   -1    0    0    0    0 -0.00000000000E+00 -0.00000000000E+00 -0.45593999997E+02  0.45594000000E+02  0.51100000000E-03 0.  1.
    9900012    2    1    2    0    0 -0.79825809642E+01  0.30147808015E+02 -0.30182952996E+02  0.47787279055E+02  0.20000036523E+02 0.  0.
         12    1    1    2    0    0  0.79825809642E+01 -0.30147808015E+02  0.30182952996E+02  0.43400720945E+02  0.00000000000E+00 0. -1.
         11    1    3    3    0    0 -0.34679950168E+01  0.62187293913E+01 -0.71261433389E+01  0.10073802848E+02  0.51100000000E-03 0. -1.
        -11    1    3    3    0    0 -0.46429332929E+01  0.26221648452E+02 -0.17950533890E+02  0.32114690475E+02  0.51100000000E-03 0.  1.
         12    1    3    3    0    0  0.12834734546E+00 -0.22925698280E+01 -0.51062757669E+01  0.55987857313E+01  0.00000000000E+00 0. -1.
</event>
<event>
 7    1  0.2328615E-009  0.4778727E+02  0.7816164E-02  0.1312668E+00
        -11   -1    0    0    0    0  0.00000000000E+00  0.00000000000E+00  0.45593999997E+02  0.45594000000E+02  0.51100000000E-03 0. -1.
         11   -1    0    0    0    0 -0.00000000000E+00 -0.00000000000E+00 -0.45593999997E+02  0.45594000000E+02  0.51100000000E-03 0.  1.
    9900012    2    1    2    0    0  0.16619427673E+02 -0.29104345717E+02 -0.27574534012E+02  0.47787271414E+02  0.20000001687E+02 0.  0.
         12    1    1    2    0    0 -0.16619427673E+02  0.29104345717E+02  0.27574534012E+02  0.43400728586E+02  0.00000000000E+00 0. -1.
         11    1    3    3    0    0  0.12971951631E+02 -0.69297672320E+01 -0.70010309887E+01  0.16288266886E+02  0.51100000000E-03 0. -1.
        -11    1    3    3    0    0  0.25998940117E+01 -0.57449347357E+01 -0.10350652294E+02  0.12120219765E+02  0.51100000000E-03 0.  1.
        -12    1    3    3    0    0  0.10475820303E+01 -0.16429643749E+02 -0.10222850730E+02  0.19378784763E+02  0.00000000000E+00 0.  1.
</event>
<event>
 7    1  0.2328615E-009  0.4778727E+02  0.7816164E-02  0.1312668E+00
        -11   -1    0    0    0    0  0.00000000000E+00  0.00000000000E+00  0.45593999997E+02  0.45594000000E+02  0.51100000000E-03 0. -1.
         11   -1    0    0    0    0 -0.00000000000E+00 -0.00000000000E+00 -0.45593999997E+02  0.45594000000E+02  0.51100000000E-03 0.  1.
    9900012    2    1    2    0    0  0.34992585163E+01 -0.41280703210E+02 -0.12933750452E+02  0.47787272259E+02  0.20000005539E+02 0.  0.
         12    1    1    2    0    0 -0.34992585163E+01  0.41280703210E+02  0.12933750452E+02  0.43400727741E+02  0.00000000000E+00 0. -1.
         11    1    3    3    0    0  0.32598750983E+01 -0.29854083525E+02 -0.86365598409E+01  0.31248732053E+02  0.51100000000E-03 0. -1.
        -11    1    3    3    0    0 -0.17417294176E+01 -0.99273379621E+01  0.15387553336E+01  0.10195755422E+02  0.51100000000E-03 0.  1.
         12    1    3    3    0    0  0.19811128356E+01 -0.14992817226E+01 -0.58359459447E+01  0.63427847844E+01  0.00000000000E+00 0. -1.
</event>
<event>
 7    1  0.2328615E-009  0.4778727E+02  0.7816164E-02  0.1312668E+00
        -11   -1    0    0    0    0  0.00000000000E+00  0.00000000000E+00  0.45593999997E+02  0.45594000000E+02  0.51100000000E-03 0.  1.
         11   -1    0    0    0    0 -0.00000000000E+00 -0.00000000000E+00 -0.45593999997E+02  0.45594000000E+02  0.51100000000E-03 0. -1.
    9900012    2    1    2    0    0  0.17834370272E+02 -0.23621544103E+02  0.31742418385E+02  0.47787271507E+02  0.20000002107E+02 0.  0.
         12    1    1    2    0    0 -0.17834370272E+02  0.23621544103E+02 -0.31742418385E+02  0.43400728493E+02  0.00000000000E+00 0. -1.
         11    1    3    3    0    0 -0.15251184118E+01 -0.17258550251E+01 -0.39609621957E+00  0.23369754415E+01  0.51100000000E-03 0. -1.
        -11    1    3    3    0    0  0.48566142407E+01 -0.13570995775E+02  0.20566305897E+02  0.25114369726E+02  0.51100000000E-03 0.  1.
         12    1    3    3    0    0  0.14502874443E+02 -0.83246933035E+01  0.11572208707E+02  0.20335926339E+02  0.00000000000E+00 0. -1.
</event>
<event>
 7    1  0.2328615E-009  0.4778727E+02  0.7816164E-02  0.1312668E+00
        -11   -1    0    0    0    0  0.00000000000E+00  0.00000000000E+00  0.45593999997E+02  0.45594000000E+02  0.51100000000E-03 0. -1.
         11   -1    0    0    0    0 -0.00000000000E+00 -0.00000000000E+00 -0.45593999997E+02  0.45594000000E+02  0.51100000000E-03 0.  1.
    9900012    2    1    2    0    0  0.35083185665E+02  0.62886004887E+01 -0.24763819239E+02  0.47787272405E+02  0.20000006203E+02 0.  0.
         12    1    1    2    0    0 -0.35083185665E+02 -0.62886004887E+01  0.24763819239E+02  0.43400727595E+02  0.00000000000E+00 0. -1.
         11    1    3    3    0    0  0.16976253819E+02  0.17994564220E+01 -0.12573299182E+02  0.21201865242E+02  0.51100000000E-03 0.  1.
        -11    1    3    3    0    0  0.26672239424E+01  0.25816760073E+00 -0.10089393377E+02  0.10439185459E+02  0.51100000000E-03 0. -1.
         12    1    3    3    0    0  0.15439707904E+02  0.42309764659E+01 -0.21011266795E+01  0.16146221704E+02  0.00000000000E+00 0. -1.
</event>
<event>
 7    1  0.2328615E-009  0.4778727E+02  0.7816164E-02  0.1312668E+00
        -11   -1    0    0    0    0  0.00000000000E+00  0.00000000000E+00  0.45593999997E+02  0.45594000000E+02  0.51100000000E-03 0. -1.
         11   -1    0    0    0    0 -0.00000000000E+00 -0.00000000000E+00 -0.45593999997E+02  0.45594000000E+02  0.51100000000E-03 0.  1.
    9900012    2    1    2    0    0  0.37785650636E+02  0.20606214845E+02 -0.55903466141E+01  0.47787268906E+02  0.19999990249E+02 0.  0.
         12    1    1    2    0    0 -0.37785650636E+02 -0.20606214845E+02  0.55903466141E+01  0.43400731094E+02  0.00000000000E+00 0. -1.
         11    1    3    3    0    0  0.31087537604E+01 -0.14993708523E+01  0.28344615907E+01  0.44661656559E+01  0.51100000000E-03 0. -1.
        -11    1    3    3    0    0  0.13282448547E+02  0.28596501367E+01 -0.11301163197E+01  0.13633715615E+02  0.51100000000E-03 0.  1.
        -12    1    3    3    0    0  0.21394448329E+02  0.19245935560E+02 -0.72946918852E+01  0.29687387635E+02  0.00000000000E+00 0.  1.
</event>
<event>
 7    1  0.2328615E-009  0.4778727E+02  0.7816164E-02  0.1312668E+00
        -11   -1    0    0    0    0  0.00000000000E+00  0.00000000000E+00  0.45593999997E+02  0.45594000000E+02  0.51100000000E-03 0.  1.
         11   -1    0    0    0    0 -0.00000000000E+00 -0.00000000000E+00 -0.45593999997E+02  0.45594000000E+02  0.51100000000E-03 0. -1.
    9900012    2    1    2    0    0  0.54793235797E+01 -0.39360976997E+02  0.17444603119E+02  0.47787266423E+02  0.19999978929E+02 0.  0.
         12    1    1    2    0    0 -0.54793235797E+01  0.39360976997E+02 -0.17444603119E+02  0.43400733577E+02  0.00000000000E+00 0. -1.
         11    1    3    3    0    0 -0.19596637082E+01 -0.50701454659E+01  0.10954171283E+01  0.55449613020E+01  0.51100000000E-03 0. -1.
        -11    1    3    3    0    0 -0.53650278908E+01 -0.12826242998E+02  0.47878386046E+01  0.14704401806E+02  0.51100000000E-03 0.  1.
        -12    1    3    3    0    0  0.12804015179E+02 -0.21464588533E+02  0.11561347387E+02  0.27537903315E+02  0.00000000000E+00 0.  1.
</event>
<event>
 7    1  0.2328615E-009  0.4778727E+02  0.7816164E-02  0.1312668E+00
        -11   -1    0    0    0    0  0.00000000000E+00  0.00000000000E+00  0.45593999997E+02  0.45594000000E+02  0.51100000000E-03 0. -1.
         11   -1    0    0    0    0 -0.00000000000E+00 -0.00000000000E+00 -0.45593999997E+02  0.45594000000E+02  0.51100000000E-03 0.  1.
    9900012    2    1    2    0    0 -0.22277054293E+02  0.36738607670E+02 -0.61344026617E+01  0.47787270311E+02  0.19999996655E+02 0.  0.
         12    1    1    2    0    0  0.22277054293E+02 -0.36738607670E+02  0.61344026617E+01  0.43400729689E+02  0.00000000000E+00 0. -1.
         11    1    3    3    0    0 -0.39486401161E+00 -0.21875465254E+01  0.53506526736E+00  0.22863885256E+01  0.51100000000E-03 0. -1.
        -11    1    3    3    0    0 -0.58034446311E+01  0.63774097842E+01 -0.19761388439E+00  0.86249856029E+01  0.51100000000E-03 0.  1.
        -12    1    3    3    0    0 -0.16078745650E+02  0.32548744412E+02 -0.64718540447E+01  0.36875896182E+02  0.00000000000E+00 0.  1.
</event>
<event>
 7    1  0.2328615E-009  0.4778727E+02  0.7816164E-02  0.1312668E+00
        -11   -1    0    0    0    0  0.00000000000E+00  0.00000000000E+00  0.45593999997E+02  0.45594000000E+02  0.51100000000E-03 0. -1.
         11   -1    0    0    0    0 -0.00000000000E+00 -0.00000000000E+00 -0.45593999997E+02  0.45594000000E+02  0.51100000000E-03 0.  1.
    9900012    2    1    2    0    0 -0.61557146616E+01 -0.25065526358E+02 -0.34891975862E+02  0.47787269428E+02  0.19999992631E+02 0.  0.
         12    1    1    2    0    0  0.61557146616E+01  0.25065526358E+02  0.34891975862E+02  0.43400730572E+02  0.00000000000E+00 0. -1.
         11    1    3    3    0    0 -0.26352537216E+01  0.24274482464E+01 -0.19081680609E+01  0.40593315677E+01  0.51100000000E-03 0. -1.
        -11    1    3    3    0    0 -0.62434138054E+00 -0.21637186064E+01 -0.29241316133E+00  0.22708998404E+01  0.51100000000E-03 0.  1.
        -12    1    3    3    0    0 -0.28961195594E+01 -0.25329255998E+02 -0.32691394640E+02  0.41457038020E+02  0.00000000000E+00 0.  1.
</event>
<event>
 7    1  0.2328615E-009  0.4778727E+02  0.7816164E-02  0.1312668E+00
        -11   -1    0    0    0    0  0.00000000000E+00  0.00000000000E+00  0.45593999997E+02  0.45594000000E+02  0.51100000000E-03 0.  1.
         11   -1    0    0    0    0 -0.00000000000E+00 -0.00000000000E+00 -0.45593999997E+02  0.45594000000E+02  0.51100000000E-03 0. -1.
    9900012    2    1    2    0    0 -0.22160897701E+02  0.71726111143E+01  0.36620645389E+02  0.47787269524E+02  0.19999993068E+02 0.  0.
         12    1    1    2    0    0  0.22160897701E+02 -0.71726111143E+01 -0.36620645389E+02  0.43400730476E+02  0.00000000000E+00 0. -1.
         11    1    3    3    0    0 -0.13418499629E+02  0.75124528174E+01  0.22464618227E+02  0.27224109755E+02  0.51100000000E-03 0. -1.
        -11    1    3    3    0    0 -0.99526765791E+01 -0.12123163028E+01  0.15562593421E+02  0.18512692839E+02  0.51100000000E-03 0.  1.
         12    1    3    3    0    0  0.12102785070E+01  0.87247459964E+00 -0.14065662583E+01  0.20504669299E+01  0.00000000000E+00 0. -1.
</event>
<event>
 7    1  0.2328615E-009  0.4778727E+02  0.7816164E-02  0.1312668E+00
        -11   -1    0    0    0    0  0.00000000000E+00  0.00000000000E+00  0.45593999997E+02  0.45594000000E+02  0.51100000000E-03 0.  1.
         11   -1    0    0    0    0 -0.00000000000E+00 -0.00000000000E+00 -0.45593999997E+02  0.45594000000E+02  0.51100000000E-03 0. -1.
    9900012    2    1    2    0    0 -0.17674950887E+02  0.39495795392E+01  0.39441350245E+02  0.47787272166E+02  0.20000005112E+02 0.  0.
         12    1    1    2    0    0  0.17674950887E+02 -0.39495795392E+01 -0.39441350245E+02  0.43400727834E+02  0.00000000000E+00 0. -1.
         11    1    3    3    0    0 -0.30445080813E+01  0.43786327093E+00 -0.52974316080E+00  0.31211186742E+01  0.51100000000E-03 0. -1.
        -11    1    3    3    0    0 -0.95123879974E+01 -0.43204666773E+01  0.18524364397E+02  0.21267440709E+02  0.51100000000E-03 0.  1.
         12    1    3    3    0    0 -0.51180548081E+01  0.78321829456E+01  0.21446729009E+02  0.23398712783E+02  0.00000000000E+00 0. -1.
</event>
<event>
 7    1  0.2328615E-009  0.4778727E+02  0.7816164E-02  0.1312668E+00
        -11   -1    0    0    0    0  0.00000000000E+00  0.00000000000E+00  0.45593999997E+02  0.45594000000E+02  0.51100000000E-03 0.  1.
         11   -1    0    0    0    0 -0.00000000000E+00 -0.00000000000E+00 -0.45593999997E+02  0.45594000000E+02  0.51100000000E-03 0. -1.
    9900012    2    1    2    0    0 -0.21831577797E+02  0.35136214524E+02  0.13132087955E+02  0.47787273114E+02  0.20000009437E+02 0.  0.
         12    1    1    2    0    0  0.21831577797E+02 -0.35136214524E+02 -0.13132087955E+02  0.43400726886E+02  0.00000000000E+00 0. -1.
         11    1    3    3    0    0 -0.48150905130E+01  0.10310579548E+02  0.12599029205E+01  0.11449039387E+02  0.51100000000E-03 0. -1.
        -11    1    3    3    0    0 -0.14675281391E+02  0.27097747706E+02  0.12007067044E+02  0.33072971954E+02  0.51100000000E-03 0.  1.
         12    1    3    3    0    0 -0.23412058930E+01 -0.22721127296E+01 -0.13488201015E+00  0.32652617730E+01  0.00000000000E+00 0. -1.
</event>
<event>
 7    1  0.2328615E-009  0.4778728E+02  0.7816164E-02  0.1312668E+00
        -11   -1    0    0    0    0  0.00000000000E+00  0.00000000000E+00  0.45593999997E+02  0.45594000000E+02  0.51100000000E-03 0.  1.
         11   -1    0    0    0    0 -0.00000000000E+00 -0.00000000000E+00 -0.45593999997E+02  0.45594000000E+02  0.51100000000E-03 0. -1.
    9900012    2    1    2    0    0  0.95148393805E+01 -0.97446163127E+01  0.41208411672E+02  0.47787275259E+02  0.20000019215E+02 0.  0.
         12    1    1    2    0    0 -0.95148393805E+01  0.97446163127E+01 -0.41208411672E+02  0.43400724741E+02  0.00000000000E+00 0. -1.
         11    1    3    3    0    0  0.65424721767E+01 -0.41515577959E+01  0.58133566127E+01  0.96868204114E+01  0.51100000000E-03 0.  1.
        -11    1    3    3    0    0 -0.10678496773E-01 -0.75497687322E+01  0.10396334627E+02  0.12848458892E+02  0.51100000000E-03 0. -1.
        -12    1    3    3    0    0  0.29830457006E+01  0.19567102154E+01  0.24998720432E+02  0.25251995956E+02  0.00000000000E+00 0.  1.
</event>
<event>
 7    1  0.2328615E-009  0.4778727E+02  0.7816164E-02  0.1312668E+00
        -11   -1    0    0    0    0  0.00000000000E+00  0.00000000000E+00  0.45593999997E+02  0.45594000000E+02  0.51100000000E-03 0.  1.
         11   -1    0    0    0    0 -0.00000000000E+00 -0.00000000000E+00 -0.45593999997E+02  0.45594000000E+02  0.51100000000E-03 0. -1.
    9900012    2    1    2    0    0 -0.72470024961E+01  0.22696883551E+02  0.36276107642E+02  0.47787267820E+02  0.19999985297E+02 0.  0.
         12    1    1    2    0    0  0.72470024961E+01 -0.22696883551E+02 -0.36276107642E+02  0.43400732180E+02  0.00000000000E+00 0. -1.
         11    1    3    3    0    0 -0.20422167034E+01  0.54516242099E+01  0.55328281385E+01  0.80313786526E+01  0.51100000000E-03 0. -1.
        -11    1    3    3    0    0 -0.96673188928E+01  0.14521620848E+02  0.29670253863E+02  0.34418868243E+02  0.51100000000E-03 0.  1.
         12    1    3    3    0    0  0.44625331001E+01  0.27236384936E+01  0.10730256411E+01  0.53370209236E+01  0.00000000000E+00 0. -1.
</event>
<event>
 7    1  0.2328615E-009  0.4778727E+02  0.7816164E-02  0.1312668E+00
        -11   -1    0    0    0    0  0.00000000000E+00  0.00000000000E+00  0.45593999997E+02  0.45594000000E+02  0.51100000000E-03 0.  1.
         11   -1    0    0    0    0 -0.00000000000E+00 -0.00000000000E+00 -0.45593999997E+02  0.45594000000E+02  0.51100000000E-03 0. -1.
    9900012    2    1    2    0    0  0.36106892683E+02  0.22360297847E+01  0.23977398404E+02  0.47787272326E+02  0.20000005844E+02 0.  0.
         12    1    1    2    0    0 -0.36106892683E+02 -0.22360297847E+01 -0.23977398404E+02  0.43400727674E+02  0.00000000000E+00 0. -1.
         11    1    3    3    0    0  0.24956637325E+02  0.72579191618E+01  0.75648761739E+01  0.27069142745E+02  0.51100000000E-03 0. -1.
        -11    1    3    3    0    0  0.76449207786E+00 -0.40475103711E+00  0.15071504144E+00  0.87805855385E+00  0.51100000000E-03 0.  1.
        -12    1    3    3    0    0  0.10385763280E+02 -0.46171383399E+01  0.16261807188E+02  0.19840071028E+02  0.00000000000E+00 0.  1.
</event>
<event>
 7    1  0.3127083E-009  0.4778727E+02  0.7816164E-02  0.1312668E+00
        -11   -1    0    0    0    0  0.00000000000E+00  0.00000000000E+00  0.45593999997E+02  0.45594000000E+02  0.51100000000E-03 0.  1.
         11   -1    0    0    0    0 -0.00000000000E+00 -0.00000000000E+00 -0.45593999997E+02  0.45594000000E+02  0.51100000000E-03 0. -1.
    9900012    2    1    2    0    0  0.36003593385E+02  0.24041178607E+02 -0.30637371524E+01  0.47787268545E+02  0.19999988604E+02 0.  0.
         12    1    1    2    0    0 -0.36003593385E+02 -0.24041178607E+02  0.30637371524E+01  0.43400731455E+02  0.00000000000E+00 0. -1.
         11    1    3    3    0    0 -0.43825340019E+00 -0.10609400362E+00  0.24672146707E+01  0.25080810339E+01  0.51100000000E-03 0. -1.
        -11    1    3    3    0    0  0.12715616376E+02  0.36225542026E+01 -0.42245008786E+01  0.13880065083E+02  0.51100000000E-03 0.  1.
        -12    1    3    3    0    0  0.23726230410E+02  0.20524718408E+02 -0.13064509445E+01  0.31399122428E+02  0.00000000000E+00 0.  1.
</event>
<event>
 7    1  0.2328615E-009  0.4778728E+02  0.7816164E-02  0.1312668E+00
        -11   -1    0    0    0    0  0.00000000000E+00  0.00000000000E+00  0.45593999997E+02  0.45594000000E+02  0.51100000000E-03 0.  1.
         11   -1    0    0    0    0 -0.00000000000E+00 -0.00000000000E+00 -0.45593999997E+02  0.45594000000E+02  0.51100000000E-03 0. -1.
    9900012    2    1    2    0    0  0.22993142210E+01  0.24013390021E+02  0.36078980276E+02  0.47787279224E+02  0.20000037292E+02 0.  0.
         12    1    1    2    0    0 -0.22993142210E+01 -0.24013390021E+02 -0.36078980276E+02  0.43400720776E+02  0.00000000000E+00 0. -1.
         11    1    3    3    0    0 -0.26088535202E+01  0.93188410161E+01  0.56469591160E+01  0.11204243040E+02  0.51100000000E-03 0. -1.
        -11    1    3    3    0    0  0.41733553982E+01  0.16106612206E+02  0.19935923525E+02  0.25966919322E+02  0.51100000000E-03 0.  1.
        -12    1    3    3    0    0  0.73481234299E+00 -0.14120632011E+01  0.10496097635E+02  0.10616116862E+02  0.00000000000E+00 0.  1.
</event>
<event>
 7    1  0.2328615E-009  0.4778727E+02  0.7816164E-02  0.1312668E+00
        -11   -1    0    0    0    0  0.00000000000E+00  0.00000000000E+00  0.45593999997E+02  0.45594000000E+02  0.51100000000E-03 0.  1.
         11   -1    0    0    0    0 -0.00000000000E+00 -0.00000000000E+00 -0.45593999997E+02  0.45594000000E+02  0.51100000000E-03 0. -1.
    9900012    2    1    2    0    0 -0.38469362144E+01  0.25191747967E+02  0.35131183810E+02  0.47787272359E+02  0.20000005996E+02 0.  0.
         12    1    1    2    0    0  0.38469362144E+01 -0.25191747967E+02 -0.35131183810E+02  0.43400727641E+02  0.00000000000E+00 0. -1.
         11    1    3    3    0    0  0.36081054552E+01  0.47043440901E+01  0.33959590022E+01  0.68324092457E+01  0.51100000000E-03 0. -1.
        -11    1    3    3    0    0 -0.67049738905E+00 -0.42135833716E+00  0.10035193554E+02  0.10066390591E+02  0.51100000000E-03 0.  1.
        -12    1    3    3    0    0 -0.67845442806E+01  0.20908762214E+02  0.21700031254E+02  0.30888472523E+02  0.00000000000E+00 0.  1.
</event>
<event>
 7    1  0.2328615E-009  0.4778725E+02  0.7816164E-02  0.1312668E+00
        -11   -1    0    0    0    0  0.00000000000E+00  0.00000000000E+00  0.45593999997E+02  0.45594000000E+02  0.51100000000E-03 0. -1.
         11   -1    0    0    0    0 -0.00000000000E+00 -0.00000000000E+00 -0.45593999997E+02  0.45594000000E+02  0.51100000000E-03 0.  1.
    9900012    2    1    2    0    0  0.56805983416E+01 -0.38249072049E+02 -0.19706963667E+02  0.47787249694E+02  0.19999902656E+02 0.  0.
         12    1    1    2    0    0 -0.56805983416E+01  0.38249072049E+02  0.19706963667E+02  0.43400750306E+02  0.00000000000E+00 0. -1.
         11    1    3    3    0    0  0.11444015032E-01 -0.79034192990E+01 -0.56778390021E+01  0.97314964715E+01  0.51100000000E-03 0. -1.
        -11    1    3    3    0    0  0.84153313905E+01 -0.25740148574E+02 -0.16951689171E+02  0.31948909481E+02  0.51100000000E-03 0.  1.
         12    1    3    3    0    0 -0.27461770640E+01 -0.46055041763E+01  0.29225645069E+01  0.61068437414E+01  0.00000000000E+00 0. -1.
</event>
<event>
 7    1  0.2328615E-009  0.4778728E+02  0.7816164E-02  0.1312668E+00
        -11   -1    0    0    0    0  0.00000000000E+00  0.00000000000E+00  0.45593999997E+02  0.45594000000E+02  0.51100000000E-03 0.  1.
         11   -1    0    0    0    0 -0.00000000000E+00 -0.00000000000E+00 -0.45593999997E+02  0.45594000000E+02  0.51100000000E-03 0. -1.
    9900012    2    1    2    0    0  0.29911803770E+02 -0.14201335992E+02  0.28057599520E+02  0.47787276048E+02  0.20000022812E+02 0.  0.
         12    1    1    2    0    0 -0.29911803770E+02  0.14201335992E+02 -0.28057599520E+02  0.43400723952E+02  0.00000000000E+00 0. -1.
         11    1    3    3    0    0  0.40291508671E+01 -0.22155308762E+00 -0.10741988123E+01  0.41757688908E+01  0.51100000000E-03 0. -1.
        -11    1    3    3    0    0  0.20470674771E+01 -0.57722550617E+01  0.17009552674E+01  0.63563089003E+01  0.51100000000E-03 0.  1.
         12    1    3    3    0    0  0.23835585426E+02 -0.82075278426E+01  0.27430843065E+02  0.37255198257E+02  0.00000000000E+00 0. -1.
</event>
<event>
 7    1  0.2328615E-009  0.4778727E+02  0.7816164E-02  0.1312668E+00
        -11   -1    0    0    0    0  0.00000000000E+00  0.00000000000E+00  0.45593999997E+02  0.45594000000E+02  0.51100000000E-03 0.  1.
         11   -1    0    0    0    0 -0.00000000000E+00 -0.00000000000E+00 -0.45593999997E+02  0.45594000000E+02  0.51100000000E-03 0. -1.
    9900012    2    1    2    0    0  0.32469428789E+02 -0.19850362232E+02  0.20864383396E+02  0.47787272113E+02  0.20000004871E+02 0.  0.
         12    1    1    2    0    0 -0.32469428789E+02  0.19850362232E+02 -0.20864383396E+02  0.43400727887E+02  0.00000000000E+00 0. -1.
         11    1    3    3    0    0  0.18959423225E+01  0.58087263360E-01 -0.64105181760E+00  0.20022285370E+01  0.51100000000E-03 0. -1.
        -11    1    3    3    0    0  0.25558008630E+02 -0.22967438826E+02  0.19843719716E+02  0.39679821872E+02  0.51100000000E-03 0.  1.
        -12    1    3    3    0    0  0.50154778368E+01  0.30589893306E+01  0.16617154982E+01  0.61052217039E+01  0.00000000000E+00 0.  1.
</event>
<event>
 7    1  0.2328615E-009  0.4778727E+02  0.7816164E-02  0.1312668E+00
        -11   -1    0    0    0    0  0.00000000000E+00  0.00000000000E+00  0.45593999997E+02  0.45594000000E+02  0.51100000000E-03 0.  1.
         11   -1    0    0    0    0 -0.00000000000E+00 -0.00000000000E+00 -0.45593999997E+02  0.45594000000E+02  0.51100000000E-03 0. -1.
    9900012    2    1    2    0    0 -0.25809783050E+02 -0.32894571414E+02  0.11637248138E+02  0.47787271045E+02  0.20000000001E+02 0.  0.
         12    1    1    2    0    0  0.25809783050E+02  0.32894571414E+02 -0.11637248138E+02  0.43400728955E+02  0.00000000000E+00 0. -1.
         11    1    3    3    0    0 -0.96586881935E+01 -0.22687988576E+01  0.11909390826E+01  0.99927995094E+01  0.51100000000E-03 0. -1.
        -11    1    3    3    0    0 -0.38287260769E+01 -0.61091361856E+01  0.71569625578E+01  0.10158877971E+02  0.51100000000E-03 0.  1.
         12    1    3    3    0    0 -0.12322368780E+02 -0.24516636371E+02  0.32893464976E+01  0.27635593565E+02  0.00000000000E+00 0. -1.
</event>
<event>
 7    1  0.2328615E-009  0.4778727E+02  0.7816164E-02  0.1312668E+00
        -11   -1    0    0    0    0  0.00000000000E+00  0.00000000000E+00  0.45593999997E+02  0.45594000000E+02  0.51100000000E-03 0. -1.
         11   -1    0    0    0    0 -0.00000000000E+00 -0.00000000000E+00 -0.45593999997E+02  0.45594000000E+02  0.51100000000E-03 0.  1.
    9900012    2    1    2    0    0 -0.52437114283E+01 -0.91984090001E+01 -0.42089379200E+02  0.47787273288E+02  0.20000010228E+02 0.  0.
         12    1    1    2    0    0  0.52437114283E+01  0.91984090001E+01  0.42089379200E+02  0.43400726712E+02  0.00000000000E+00 0. -1.
         11    1    3    3    0    0  0.31767938870E+01 -0.85629787935E+01 -0.14741976303E+02  0.17341928693E+02  0.51100000000E-03 0. -1.
        -11    1    3    3    0    0  0.12333117934E+01  0.16317217402E+01 -0.96651389786E+00  0.22622385358E+01  0.51100000000E-03 0.  1.
        -12    1    3    3    0    0 -0.96538171087E+01 -0.22671519468E+01 -0.26380888999E+02  0.28183106058E+02  0.00000000000E+00 0.  1.
</event>
<event>
 7    1  0.2328615E-009  0.4778727E+02  0.7816164E-02  0.1312668E+00
        -11   -1    0    0    0    0  0.00000000000E+00  0.00000000000E+00  0.45593999997E+02  0.45594000000E+02  0.51100000000E-03 0.  1.
         11   -1    0    0    0    0 -0.00000000000E+00 -0.00000000000E+00 -0.45593999997E+02  0.45594000000E+02  0.51100000000E-03 0. -1.
    9900012    2    1    2    0    0  0.18915945853E+02  0.37150958145E+02  0.12067168935E+02  0.47787271150E+02  0.20000000480E+02 0.  0.
         12    1    1    2    0    0 -0.18915945853E+02 -0.37150958145E+02 -0.12067168935E+02  0.43400728850E+02  0.00000000000E+00 0. -1.
         11    1    3    3    0    0  0.13480683666E+02  0.18006766910E+02 -0.19972980859E+01  0.22582331291E+02  0.51100000000E-03 0. -1.
        -11    1    3    3    0    0  0.33341155863E+01  0.11350371762E+02  0.44211425673E+01  0.12629084200E+02  0.51100000000E-03 0.  1.
         12    1    3    3    0    0  0.21011466014E+01  0.77938194740E+01  0.96433244534E+01  0.12575855659E+02  0.00000000000E+00 0. -1.
</event>
<event>
 7    1  0.2328615E-009  0.4778727E+02  0.7816164E-02  0.1312668E+00
        -11   -1    0    0    0    0  0.00000000000E+00  0.00000000000E+00  0.45593999997E+02  0.45594000000E+02  0.51100000000E-03 0. -1.
         11   -1    0    0    0    0 -0.00000000000E+00 -0.00000000000E+00 -0.45593999997E+02  0.45594000000E+02  0.51100000000E-03 0.  1.
    9900012    2    1    2    0    0 -0.12613048405E+02  0.18359487094E+02 -0.37248671342E+02  0.47787271052E+02  0.20000000037E+02 0.  0.
         12    1    1    2    0    0  0.12613048405E+02 -0.18359487094E+02  0.37248671342E+02  0.43400728948E+02  0.00000000000E+00 0. -1.
         11    1    3    3    0    0 -0.22309218720E+01 -0.38369550426E+01 -0.67144616349E+01  0.80488031225E+01  0.51100000000E-03 0. -1.
        -11    1    3    3    0    0  0.52200958670E+00  0.25862797802E+01 -0.56274260797E+01  0.62152442955E+01  0.51100000000E-03 0.  1.
        -12    1    3    3    0    0 -0.10904136120E+02  0.19610162357E+02 -0.24906783627E+02  0.33523223634E+02  0.00000000000E+00 0.  1.
</event>
<event>
 7    1  0.2328615E-009  0.4778727E+02  0.7816164E-02  0.1312668E+00
        -11   -1    0    0    0    0  0.00000000000E+00  0.00000000000E+00  0.45593999997E+02  0.45594000000E+02  0.51100000000E-03 0.  1.
         11   -1    0    0    0    0 -0.00000000000E+00 -0.00000000000E+00 -0.45593999997E+02  0.45594000000E+02  0.51100000000E-03 0. -1.
    9900012    2    1    2    0    0 -0.37195186047E+01 -0.17884143835E+02  0.39369353849E+02  0.47787269110E+02  0.19999991179E+02 0.  0.
         12    1    1    2    0    0  0.37195186047E+01  0.17884143835E+02 -0.39369353849E+02  0.43400730890E+02  0.00000000000E+00 0. -1.
         11    1    3    3    0    0  0.10044531918E+01  0.37455052530E+00 -0.78126453507E+00  0.13264949474E+01  0.51100000000E-03 0. -1.
        -11    1    3    3    0    0  0.19339328892E+01 -0.50556997060E+00 -0.64580798362E-01  0.19999670887E+01  0.51100000000E-03 0.  1.
        -12    1    3    3    0    0 -0.66579046857E+01 -0.17753124389E+02  0.40215199182E+02  0.44460807074E+02  0.00000000000E+00 0.  1.
</event>
<event>
 7    1  0.2328615E-009  0.4778728E+02  0.7816164E-02  0.1312668E+00
        -11   -1    0    0    0    0  0.00000000000E+00  0.00000000000E+00  0.45593999997E+02  0.45594000000E+02  0.51100000000E-03 0.  1.
         11   -1    0    0    0    0 -0.00000000000E+00 -0.00000000000E+00 -0.45593999997E+02  0.45594000000E+02  0.51100000000E-03 0. -1.
    9900012    2    1    2    0    0  0.17195264927E+02  0.32744042983E+01  0.39714280182E+02  0.47787275239E+02  0.20000019124E+02 0.  0.
         12    1    1    2    0    0 -0.17195264927E+02 -0.32744042983E+01 -0.39714280182E+02  0.43400724761E+02  0.00000000000E+00 0. -1.
         11    1    3    3    0    0  0.40748685754E+01 -0.39527244364E+01  0.11488617935E+02  0.12814715240E+02  0.51100000000E-03 0.  1.
        -11    1    3    3    0    0 -0.25325041831E+01  0.82931525800E-02  0.80353263230E+01  0.84249697680E+01  0.51100000000E-03 0. -1.
         12    1    3    3    0    0  0.15652900535E+02  0.72188355821E+01  0.20190335924E+02  0.26547590230E+02  0.00000000000E+00 0. -1.
</event>
<event>
 7    1  0.2328615E-009  0.4778725E+02  0.7816164E-02  0.1312668E+00
        -11   -1    0    0    0    0  0.00000000000E+00  0.00000000000E+00  0.45593999997E+02  0.45594000000E+02  0.51100000000E-03 0.  1.
         11   -1    0    0    0    0 -0.00000000000E+00 -0.00000000000E+00 -0.45593999997E+02  0.45594000000E+02  0.51100000000E-03 0. -1.
    9900012    2    1    2    0    0  0.24588111281E+02  0.34518870318E+02  0.93540229408E+01  0.47787246901E+02  0.19999889919E+02 0.  0.
         12    1    1    2    0    0 -0.24588111281E+02 -0.34518870318E+02 -0.93540229408E+01  0.43400753099E+02  0.00000000000E+00 0. -1.
         11    1    3    3    0    0  0.14429264825E+02  0.17663620870E+02  0.51230358498E+00  0.22813803735E+02  0.51100000000E-03 0. -1.
        -11    1    3    3    0    0  0.28260086994E+01  0.15076922340E+02  0.35144131789E+01  0.15736931488E+02  0.51100000000E-03 0.  1.
         12    1    3    3    0    0  0.73328377564E+01  0.17783271079E+01  0.53273061769E+01  0.92365116774E+01  0.00000000000E+00 0. -1.
</event>
<event>
 7    1  0.2328615E-009  0.4778728E+02  0.7816164E-02  0.1312668E+00
        -11   -1    0    0    0    0  0.00000000000E+00  0.00000000000E+00  0.45593999997E+02  0.45594000000E+02  0.51100000000E-03 0. -1.
         11   -1    0    0    0    0 -0.00000000000E+00 -0.00000000000E+00 -0.45593999997E+02  0.45594000000E+02  0.51100000000E-03 0.  1.
    9900012    2    1    2    0    0  0.26195524449E+01 -0.29096846757E+02 -0.32095695287E+02  0.47787283391E+02  0.20000056294E+02 0.  0.
         12    1    1    2    0    0 -0.26195524449E+01  0.29096846757E+02  0.32095695287E+02  0.43400716609E+02  0.00000000000E+00 0. -1.
         11    1    3    3    0    0 -0.30825092956E+01 -0.33599459629E+01 -0.72669963079E+00  0.46172711687E+01  0.51100000000E-03 0. -1.
        -11    1    3    3    0    0  0.40129764517E-01 -0.19137321436E+02 -0.13887595995E+02  0.23645380203E+02  0.51100000000E-03 0.  1.
         12    1    3    3    0    0  0.56619319760E+01 -0.65995793581E+01 -0.17481399661E+02  0.19524632020E+02  0.00000000000E+00 0. -1.
</event>
<event>
 7    1  0.2328615E-009  0.4778727E+02  0.7816164E-02  0.1312668E+00
        -11   -1    0    0    0    0  0.00000000000E+00  0.00000000000E+00  0.45593999997E+02  0.45594000000E+02  0.51100000000E-03 0.  1.
         11   -1    0    0    0    0 -0.00000000000E+00 -0.00000000000E+00 -0.45593999997E+02  0.45594000000E+02  0.51100000000E-03 0. -1.
    9900012    2    1    2    0    0 -0.36438124558E+01 -0.21189488333E+02  0.37700821943E+02  0.47787265441E+02  0.19999974454E+02 0.  0.
         12    1    1    2    0    0  0.36438124558E+01  0.21189488333E+02 -0.37700821943E+02  0.43400734559E+02  0.00000000000E+00 0. -1.
         11    1    3    3    0    0 -0.49401732482E+01 -0.46052171303E+01  0.25896193008E+02  0.26762401781E+02  0.51100000000E-03 0.  1.
        -11    1    3    3    0    0 -0.17483276803E+01 -0.66742799489E+01  0.59990556015E+01  0.91428294792E+01  0.51100000000E-03 0. -1.
         12    1    3    3    0    0  0.30446884727E+01 -0.99099912538E+01  0.58055733339E+01  0.11882034181E+02  0.00000000000E+00 0. -1.
</event>
<event>
 7    1  0.2328615E-009  0.4778727E+02  0.7816164E-02  0.1312668E+00
        -11   -1    0    0    0    0  0.00000000000E+00  0.00000000000E+00  0.45593999997E+02  0.45594000000E+02  0.51100000000E-03 0.  1.
         11   -1    0    0    0    0 -0.00000000000E+00 -0.00000000000E+00 -0.45593999997E+02  0.45594000000E+02  0.51100000000E-03 0. -1.
    9900012    2    1    2    0    0 -0.33580001758E+01 -0.38973105442E+01  0.43094757050E+02  0.47787270975E+02  0.19999999685E+02 0.  0.
         12    1    1    2    0    0  0.33580001758E+01  0.38973105442E+01 -0.43094757050E+02  0.43400729025E+02  0.00000000000E+00 0. -1.
         11    1    3    3    0    0 -0.49156962043E+01 -0.10985213176E+01  0.27125891464E+01  0.57209228623E+01  0.51100000000E-03 0. -1.
        -11    1    3    3    0    0 -0.30358039867E+01  0.29746279266E+01  0.18188799407E+02  0.18678783185E+02  0.51100000000E-03 0.  1.
         12    1    3    3    0    0  0.45935000152E+01 -0.57734171533E+01  0.22193368497E+02  0.23387564928E+02  0.00000000000E+00 0. -1.
</event>
<event>
 7    1  0.2328615E-009  0.4778727E+02  0.7816164E-02  0.1312668E+00
        -11   -1    0    0    0    0  0.00000000000E+00  0.00000000000E+00  0.45593999997E+02  0.45594000000E+02  0.51100000000E-03 0.  1.
         11   -1    0    0    0    0 -0.00000000000E+00 -0.00000000000E+00 -0.45593999997E+02  0.45594000000E+02  0.51100000000E-03 0. -1.
    9900012    2    1    2    0    0 -0.41390539053E+02  0.82506926614E+01 -0.10117932888E+02  0.47787271683E+02  0.20000002912E+02 0.  0.
         12    1    1    2    0    0  0.41390539053E+02 -0.82506926614E+01  0.10117932888E+02  0.43400728317E+02  0.00000000000E+00 0. -1.
         11    1    3    3    0    0 -0.67650073956E+01  0.54440186057E+01 -0.38124840303E+01  0.94835488286E+01  0.51100000000E-03 0. -1.
        -11    1    3    3    0    0 -0.33942983260E+02 -0.16973174264E+00 -0.34419088121E+01  0.34117468517E+02  0.51100000000E-03 0.  1.
         12    1    3    3    0    0 -0.68254839774E+00  0.29764057983E+01 -0.28635400451E+01  0.41862543379E+01  0.00000000000E+00 0. -1.
</event>
<event>
 7    1  0.2328615E-009  0.4778727E+02  0.7816164E-02  0.1312668E+00
        -11   -1    0    0    0    0  0.00000000000E+00  0.00000000000E+00  0.45593999997E+02  0.45594000000E+02  0.51100000000E-03 0. -1.
         11   -1    0    0    0    0 -0.00000000000E+00 -0.00000000000E+00 -0.45593999997E+02  0.45594000000E+02  0.51100000000E-03 0.  1.
    9900012    2    1    2    0    0  0.21188015335E+01 -0.24462054373E+02 -0.35787455600E+02  0.47787269563E+02  0.19999993246E+02 0.  0.
         12    1    1    2    0    0 -0.21188015335E+01  0.24462054373E+02  0.35787455600E+02  0.43400730437E+02  0.00000000000E+00 0. -1.
         11    1    3    3    0    0 -0.32344876026E+01 -0.96286298000E+01 -0.13722239990E+02  0.17072559635E+02  0.51100000000E-03 0. -1.
        -11    1    3    3    0    0  0.83895832049E+01 -0.12637077928E+02 -0.10218188282E+02  0.18289128381E+02  0.51100000000E-03 0.  1.
         12    1    3    3    0    0 -0.30362940688E+01 -0.21963466449E+01 -0.11847027329E+02  0.12425581547E+02  0.00000000000E+00 0. -1.
</event>
<event>
 7    1  0.2328615E-009  0.4778727E+02  0.7816164E-02  0.1312668E+00
        -11   -1    0    0    0    0  0.00000000000E+00  0.00000000000E+00  0.45593999997E+02  0.45594000000E+02  0.51100000000E-03 0.  1.
         11   -1    0    0    0    0 -0.00000000000E+00 -0.00000000000E+00 -0.45593999997E+02  0.45594000000E+02  0.51100000000E-03 0. -1.
    9900012    2    1    2    0    0 -0.24060170408E+02  0.30916964195E+01  0.35988509568E+02  0.47787271806E+02  0.20000003473E+02 0.  0.
         12    1    1    2    0    0  0.24060170408E+02 -0.30916964195E+01 -0.35988509568E+02  0.43400728194E+02  0.00000000000E+00 0. -1.
         11    1    3    3    0    0 -0.20786828613E+02  0.81599760373E+01  0.26235470224E+02  0.34452537655E+02  0.51100000000E-03 0. -1.
        -11    1    3    3    0    0 -0.30261910520E+01  0.54061018590E+00  0.16853513091E+01  0.35057810760E+01  0.51100000000E-03 0.  1.
         12    1    3    3    0    0 -0.24715074271E+00 -0.56088898037E+01  0.80676880350E+01  0.98289530750E+01  0.00000000000E+00 0. -1.
</event>
<event>
 7    1  0.2328615E-009  0.4778728E+02  0.7816164E-02  0.1312668E+00
        -11   -1    0    0    0    0  0.00000000000E+00  0.00000000000E+00  0.45593999997E+02  0.45594000000E+02  0.51100000000E-03 0.  1.
         11   -1    0    0    0    0 -0.00000000000E+00 -0.00000000000E+00 -0.45593999997E+02  0.45594000000E+02  0.51100000000E-03 0. -1.
    9900012    2    1    2    0    0 -0.62671208169E+01 -0.98495481398E+00  0.42934549430E+02  0.47787280259E+02  0.20000042013E+02 0.  0.
         12    1    1    2    0    0  0.62671208169E+01  0.98495481398E+00 -0.42934549430E+02  0.43400719741E+02  0.00000000000E+00 0. -1.
         11    1    3    3    0    0 -0.48118994916E+01  0.39932801433E+01  0.13702733390E+02  0.15062057152E+02  0.51100000000E-03 0. -1.
        -11    1    3    3    0    0 -0.65767527578E+01  0.88970339095E+00  0.16698147464E+02  0.17968677691E+02  0.51100000000E-03 0.  1.
         12    1    3    3    0    0  0.51215314325E+01 -0.58679383482E+01  0.12533668575E+02  0.14756545417E+02  0.00000000000E+00 0. -1.
</event>
<event>
 7    1  0.2447076E-009  0.4778727E+02  0.7816164E-02  0.1312668E+00
        -11   -1    0    0    0    0  0.00000000000E+00  0.00000000000E+00  0.45593999997E+02  0.45594000000E+02  0.51100000000E-03 0. -1.
         11   -1    0    0    0    0 -0.00000000000E+00 -0.00000000000E+00 -0.45593999997E+02  0.45594000000E+02  0.51100000000E-03 0.  1.
    9900012    2    1    2    0    0 -0.13750896261E+02  0.34746956392E+02 -0.22072268471E+02  0.47787272334E+02  0.20000005881E+02 0.  0.
         12    1    1    2    0    0  0.13750896261E+02 -0.34746956392E+02  0.22072268471E+02  0.43400727666E+02  0.00000000000E+00 0. -1.
         11    1    3    3    0    0 -0.32762608097E+01  0.91324121486E+00 -0.73246078349E+00  0.34791368858E+01  0.51100000000E-03 0. -1.
        -11    1    3    3    0    0  0.35915758630E+01  0.13716389406E+02 -0.62619004430E+01  0.15500004933E+02  0.51100000000E-03 0.  1.
        -12    1    3    3    0    0 -0.14066211314E+02  0.20117325771E+02 -0.15077907245E+02  0.28808130515E+02  0.00000000000E+00 0.  1.
</event>
<event>
 7    1  0.2328615E-009  0.4778728E+02  0.7816164E-02  0.1312668E+00
        -11   -1    0    0    0    0  0.00000000000E+00  0.00000000000E+00  0.45593999997E+02  0.45594000000E+02  0.51100000000E-03 0. -1.
         11   -1    0    0    0    0 -0.00000000000E+00 -0.00000000000E+00 -0.45593999997E+02  0.45594000000E+02  0.51100000000E-03 0.  1.
    9900012    2    1    2    0    0 -0.18154229272E+02 -0.12850722566E+02 -0.37268025922E+02  0.47787275731E+02  0.20000021368E+02 0.  0.
         12    1    1    2    0    0  0.18154229272E+02  0.12850722566E+02  0.37268025922E+02  0.43400724269E+02  0.00000000000E+00 0. -1.
         11    1    3    3    0    0 -0.71771354649E+01 -0.74041487913E+01 -0.73367277588E+01  0.12655444175E+02  0.51100000000E-03 0. -1.
        -11    1    3    3    0    0 -0.12130329713E+02 -0.35678086520E+01 -0.13285256952E+02  0.18340452832E+02  0.51100000000E-03 0.  1.
         12    1    3    3    0    0  0.11532359062E+01 -0.18787651231E+01 -0.16646041211E+02  0.16791378724E+02  0.00000000000E+00 0. -1.
</event>
<event>
 7    1  0.2328615E-009  0.4778727E+02  0.7816164E-02  0.1312668E+00
        -11   -1    0    0    0    0  0.00000000000E+00  0.00000000000E+00  0.45593999997E+02  0.45594000000E+02  0.51100000000E-03 0.  1.
         11   -1    0    0    0    0 -0.00000000000E+00 -0.00000000000E+00 -0.45593999997E+02  0.45594000000E+02  0.51100000000E-03 0. -1.
    9900012    2    1    2    0    0 -0.16190196768E+02  0.40217623398E+02 -0.20108961746E+01  0.47787269516E+02  0.19999993029E+02 0.  0.
         12    1    1    2    0    0  0.16190196768E+02 -0.40217623398E+02  0.20108961746E+01  0.43400730484E+02  0.00000000000E+00 0. -1.
         11    1    3    3    0    0 -0.68552209764E+01  0.12194901858E+02 -0.33230989653E+01  0.14378896792E+02  0.51100000000E-03 0. -1.
        -11    1    3    3    0    0  0.33231979114E+01  0.10882917441E+02 -0.27752349800E+01  0.11712534561E+02  0.51100000000E-03 0.  1.
        -12    1    3    3    0    0 -0.12658173703E+02  0.17139804099E+02  0.40874377707E+01  0.21695838163E+02  0.00000000000E+00 0.  1.
</event>
<event>
 7    1  0.2328615E-009  0.4778727E+02  0.7816164E-02  0.1312668E+00
        -11   -1    0    0    0    0  0.00000000000E+00  0.00000000000E+00  0.45593999997E+02  0.45594000000E+02  0.51100000000E-03 0. -1.
         11   -1    0    0    0    0 -0.00000000000E+00 -0.00000000000E+00 -0.45593999997E+02  0.45594000000E+02  0.51100000000E-03 0.  1.
    9900012    2    1    2    0    0 -0.16260795275E+02 -0.34536452904E+02  0.20650493871E+02  0.47787274899E+02  0.20000017573E+02 0.  0.
         12    1    1    2    0    0  0.16260795275E+02  0.34536452904E+02 -0.20650493871E+02  0.43400725101E+02  0.00000000000E+00 0. -1.
         11    1    3    3    0    0 -0.70862365469E+01 -0.12012070938E+02  0.12569127467E+02  0.18774652118E+02  0.51100000000E-03 0. -1.
        -11    1    3    3    0    0 -0.12294544290E+02 -0.19644711255E+02  0.86342683121E+01  0.24730974286E+02  0.51100000000E-03 0.  1.
        -12    1    3    3    0    0  0.31199855615E+01 -0.28796707112E+01 -0.55290190795E+00  0.42816484943E+01  0.00000000000E+00 0.  1.
</event>
<event>
 7    1  0.2328615E-009  0.4778728E+02  0.7816164E-02  0.1312668E+00
        -11   -1    0    0    0    0  0.00000000000E+00  0.00000000000E+00  0.45593999997E+02  0.45594000000E+02  0.51100000000E-03 0. -1.
         11   -1    0    0    0    0 -0.00000000000E+00 -0.00000000000E+00 -0.45593999997E+02  0.45594000000E+02  0.51100000000E-03 0.  1.
    9900012    2    1    2    0    0  0.31114216194E+02 -0.21362347753E+02  0.21428444161E+02  0.47787279153E+02  0.20000036971E+02 0.  0.
         12    1    1    2    0    0 -0.31114216194E+02  0.21362347753E+02 -0.21428444161E+02  0.43400720847E+02  0.00000000000E+00 0. -1.
         11    1    3    3    0    0  0.18513567270E+01 -0.37141737895E+01 -0.12571536157E+00  0.41519168203E+01  0.51100000000E-03 0. -1.
        -11    1    3    3    0    0  0.25790120122E+02 -0.20873132670E+02  0.18353860627E+02  0.37916779445E+02  0.51100000000E-03 0.  1.
         12    1    3    3    0    0  0.34727393447E+01  0.32249587066E+01  0.32002988963E+01  0.57185828875E+01  0.00000000000E+00 0. -1.
</event>
<event>
 7    1  0.2328615E-009  0.4778728E+02  0.7816164E-02  0.1312668E+00
        -11   -1    0    0    0    0  0.00000000000E+00  0.00000000000E+00  0.45593999997E+02  0.45594000000E+02  0.51100000000E-03 0.  1.
         11   -1    0    0    0    0 -0.00000000000E+00 -0.00000000000E+00 -0.45593999997E+02  0.45594000000E+02  0.51100000000E-03 0. -1.
    9900012    2    1    2    0    0 -0.31735747221E+02 -0.30240223027E+01  0.29450293331E+02  0.47787284109E+02  0.20000059566E+02 0.  0.
         12    1    1    2    0    0  0.31735747221E+02  0.30240223027E+01 -0.29450293331E+02  0.43400715891E+02  0.00000000000E+00 0. -1.
         11    1    3    3    0    0 -0.22048300390E+02 -0.29557698488E+01  0.28440195406E+02  0.36106908487E+02  0.51100000000E-03 0. -1.
        -11    1    3    3    0    0 -0.37143009394E+01  0.23856783491E+01  0.24718863769E+01  0.50594184621E+01  0.51100000000E-03 0.  1.
        -12    1    3    3    0    0 -0.59731458920E+01 -0.24539308030E+01 -0.14617884519E+01  0.66209571598E+01  0.00000000000E+00 0.  1.
</event>
<event>
 7    1  0.2328615E-009  0.4778727E+02  0.7816164E-02  0.1312668E+00
        -11   -1    0    0    0    0  0.00000000000E+00  0.00000000000E+00  0.45593999997E+02  0.45594000000E+02  0.51100000000E-03 0.  1.
         11   -1    0    0    0    0 -0.00000000000E+00 -0.00000000000E+00 -0.45593999997E+02  0.45594000000E+02  0.51100000000E-03 0. -1.
    9900012    2    1    2    0    0 -0.10697130680E+02 -0.31711416922E+02  0.27632964375E+02  0.47787270880E+02  0.19999999250E+02 0.  0.
         12    1    1    2    0    0  0.10697130680E+02  0.31711416922E+02 -0.27632964375E+02  0.43400729120E+02  0.00000000000E+00 0. -1.
         11    1    3    3    0    0  0.23612570728E+01 -0.23726383675E-01  0.11371917686E+01  0.26209355743E+01  0.51100000000E-03 0. -1.
        -11    1    3    3    0    0  0.68106453130E+00 -0.28251450470E+01  0.73541109116E+01  0.79074800660E+01  0.51100000000E-03 0.  1.
        -12    1    3    3    0    0 -0.13739452284E+02 -0.28862545492E+02  0.19141661695E+02  0.37258855240E+02  0.00000000000E+00 0.  1.
</event>
<event>
 7    1  0.2328615E-009  0.4778727E+02  0.7816164E-02  0.1312668E+00
        -11   -1    0    0    0    0  0.00000000000E+00  0.00000000000E+00  0.45593999997E+02  0.45594000000E+02  0.51100000000E-03 0. -1.
         11   -1    0    0    0    0 -0.00000000000E+00 -0.00000000000E+00 -0.45593999997E+02  0.45594000000E+02  0.51100000000E-03 0.  1.
    9900012    2    1    2    0    0  0.42446390781E+02 -0.29676719960E+01  0.85510498206E+01  0.47787267052E+02  0.19999981795E+02 0.  0.
         12    1    1    2    0    0 -0.42446390781E+02  0.29676719960E+01 -0.85510498206E+01  0.43400732948E+02  0.00000000000E+00 0. -1.
         11    1    3    3    0    0  0.38428782247E+01  0.14114405931E+01  0.22144575664E+01  0.46544280178E+01  0.51100000000E-03 0. -1.
        -11    1    3    3    0    0  0.36362988088E+02 -0.67327155453E+01  0.99270454611E+01  0.38290241487E+02  0.51100000000E-03 0.  1.
        -12    1    3    3    0    0  0.22405244684E+01  0.23536029562E+01 -0.35904532069E+01  0.48425975467E+01  0.00000000000E+00 0.  1.
</event>
<event>
 7    1  0.2328615E-009  0.4778727E+02  0.7816164E-02  0.1312668E+00
        -11   -1    0    0    0    0  0.00000000000E+00  0.00000000000E+00  0.45593999997E+02  0.45594000000E+02  0.51100000000E-03 0.  1.
         11   -1    0    0    0    0 -0.00000000000E+00 -0.00000000000E+00 -0.45593999997E+02  0.45594000000E+02  0.51100000000E-03 0. -1.
    9900012    2    1    2    0    0  0.12693820712E+02  0.32750248388E+02  0.25493360113E+02  0.47787271163E+02  0.20000000540E+02 0.  0.
         12    1    1    2    0    0 -0.12693820712E+02 -0.32750248388E+02 -0.25493360113E+02  0.43400728837E+02  0.00000000000E+00 0. -1.
         11    1    3    3    0    0  0.93122643310E+00  0.37684326856E+01  0.99031739705E+01  0.10636781587E+02  0.51100000000E-03 0.  1.
        -11    1    3    3    0    0 -0.25833282997E+01  0.54876668554E+01  0.40989777859E+01  0.73204980548E+01  0.51100000000E-03 0. -1.
         12    1    3    3    0    0  0.14345922579E+02  0.23494148847E+02  0.11491208357E+02  0.29829991521E+02  0.00000000000E+00 0. -1.
</event>
<event>
 7    1  0.2702518E-009  0.4778727E+02  0.7816164E-02  0.1312668E+00
        -11   -1    0    0    0    0  0.00000000000E+00  0.00000000000E+00  0.45593999997E+02  0.45594000000E+02  0.51100000000E-03 0. -1.
         11   -1    0    0    0    0 -0.00000000000E+00 -0.00000000000E+00 -0.45593999997E+02  0.45594000000E+02  0.51100000000E-03 0.  1.
    9900012    2    1    2    0    0 -0.55840731919E+01 -0.20694596186E+01 -0.42990217589E+02  0.47787270226E+02  0.19999996269E+02 0.  0.
         12    1    1    2    0    0  0.55840731919E+01  0.20694596186E+01  0.42990217589E+02  0.43400729774E+02  0.00000000000E+00 0. -1.
         11    1    3    3    0    0  0.38723773034E+01 -0.33828816357E+01 -0.50227551468E+01  0.71879944120E+01  0.51100000000E-03 0. -1.
        -11    1    3    3    0    0 -0.48443579001E+01 -0.24433935488E+01 -0.60261994236E+01  0.81088257629E+01  0.51100000000E-03 0.  1.
        -12    1    3    3    0    0 -0.46120925952E+01  0.37568155659E+01 -0.31941263019E+02  0.32490450051E+02  0.00000000000E+00 0.  1.
</event>
<event>
 7    1  0.2328615E-009  0.4778727E+02  0.7816164E-02  0.1312668E+00
        -11   -1    0    0    0    0  0.00000000000E+00  0.00000000000E+00  0.45593999997E+02  0.45594000000E+02  0.51100000000E-03 0.  1.
         11   -1    0    0    0    0 -0.00000000000E+00 -0.00000000000E+00 -0.45593999997E+02  0.45594000000E+02  0.51100000000E-03 0. -1.
    9900012    2    1    2    0    0 -0.26366917548E+02  0.27206154529E+02 -0.21171543041E+02  0.47787269361E+02  0.19999992325E+02 0.  0.
         12    1    1    2    0    0  0.26366917548E+02 -0.27206154529E+02  0.21171543041E+02  0.43400730639E+02  0.00000000000E+00 0. -1.
         11    1    3    3    0    0  0.90938392348E+00 -0.79309131295E+00 -0.13826376574E+01  0.18351185531E+01  0.51100000000E-03 0. -1.
        -11    1    3    3    0    0 -0.10110971637E+01 -0.14435290672E+01  0.10392185437E+00  0.17654726436E+01  0.51100000000E-03 0.  1.
        -12    1    3    3    0    0 -0.26265204308E+02  0.29442774909E+02 -0.19892827238E+02  0.44186678164E+02  0.00000000000E+00 0.  1.
</event>
<event>
 7    1  0.2328615E-009  0.4778727E+02  0.7816164E-02  0.1312668E+00
        -11   -1    0    0    0    0  0.00000000000E+00  0.00000000000E+00  0.45593999997E+02  0.45594000000E+02  0.51100000000E-03 0.  1.
         11   -1    0    0    0    0 -0.00000000000E+00 -0.00000000000E+00 -0.45593999997E+02  0.45594000000E+02  0.51100000000E-03 0. -1.
    9900012    2    1    2    0    0 -0.16381547179E+02  0.47036037751E+01  0.39914209166E+02  0.47787273395E+02  0.20000010719E+02 0.  0.
         12    1    1    2    0    0  0.16381547179E+02 -0.47036037751E+01 -0.39914209166E+02  0.43400726605E+02  0.00000000000E+00 0. -1.
         11    1    3    3    0    0 -0.17664624381E+02  0.29404369712E+01  0.29302815036E+02  0.34341521419E+02  0.51100000000E-03 0. -1.
        -11    1    3    3    0    0 -0.11327825923E+01 -0.26188226668E+01  0.19942934221E+01  0.34811829995E+01  0.51100000000E-03 0.  1.
        -12    1    3    3    0    0  0.24158597947E+01  0.43819894706E+01  0.86171007083E+01  0.99645689764E+01  0.00000000000E+00 0.  1.
</event>
<event>
 7    1  0.2328615E-009  0.4778727E+02  0.7816164E-02  0.1312668E+00
        -11   -1    0    0    0    0  0.00000000000E+00  0.00000000000E+00  0.45593999997E+02  0.45594000000E+02  0.51100000000E-03 0.  1.
         11   -1    0    0    0    0 -0.00000000000E+00 -0.00000000000E+00 -0.45593999997E+02  0.45594000000E+02  0.51100000000E-03 0. -1.
    9900012    2    1    2    0    0 -0.40248236079E+02 -0.16024606587E+02  0.26295429673E+01  0.47787273969E+02  0.20000013335E+02 0.  0.
         12    1    1    2    0    0  0.40248236079E+02  0.16024606587E+02 -0.26295429673E+01  0.43400726031E+02  0.00000000000E+00 0. -1.
         11    1    3    3    0    0 -0.20467113795E+01 -0.11432857976E+01 -0.28451683190E+01  0.36866126608E+01  0.51100000000E-03 0. -1.
        -11    1    3    3    0    0 -0.12411082593E+02  0.20864387208E+01 -0.75100685279E+00  0.12607625043E+02  0.51100000000E-03 0.  1.
        -12    1    3    3    0    0 -0.25790442107E+02 -0.16967759511E+02  0.62257181391E+01  0.31493036266E+02  0.00000000000E+00 0.  1.
</event>
<event>
 7    1  0.2328615E-009  0.4778727E+02  0.7816164E-02  0.1312668E+00
        -11   -1    0    0    0    0  0.00000000000E+00  0.00000000000E+00  0.45593999997E+02  0.45594000000E+02  0.51100000000E-03 0.  1.
         11   -1    0    0    0    0 -0.00000000000E+00 -0.00000000000E+00 -0.45593999997E+02  0.45594000000E+02  0.51100000000E-03 0. -1.
    9900012    2    1    2    0    0 -0.32867717452E+02 -0.11385989541E+02  0.25955647318E+02  0.47787271480E+02  0.20000001988E+02 0.  0.
         12    1    1    2    0    0  0.32867717452E+02  0.11385989541E+02 -0.25955647318E+02  0.43400728520E+02  0.00000000000E+00 0. -1.
         11    1    3    3    0    0 -0.12757153696E+02 -0.59135023989E+01  0.52947505527E+01  0.15024941422E+02  0.51100000000E-03 0. -1.
        -11    1    3    3    0    0 -0.19179161821E+02 -0.92928182732E+01  0.15912186883E+02  0.26596887248E+02  0.51100000000E-03 0.  1.
         12    1    3    3    0    0 -0.93140193518E+00  0.38203311308E+01  0.47487098814E+01  0.61654428107E+01  0.00000000000E+00 0. -1.
</event>
<event>
 7    1  0.2328615E-009  0.4778727E+02  0.7816164E-02  0.1312668E+00
        -11   -1    0    0    0    0  0.00000000000E+00  0.00000000000E+00  0.45593999997E+02  0.45594000000E+02  0.51100000000E-03 0. -1.
         11   -1    0    0    0    0 -0.00000000000E+00 -0.00000000000E+00 -0.45593999997E+02  0.45594000000E+02  0.51100000000E-03 0.  1.
    9900012    2    1    2    0    0 -0.55747909815E+01  0.42849872427E+02  0.40538512198E+01  0.47787267619E+02  0.19999984381E+02 0.  0.
         12    1    1    2    0    0  0.55747909815E+01 -0.42849872427E+02 -0.40538512198E+01  0.43400732381E+02  0.00000000000E+00 0. -1.
         11    1    3    3    0    0  0.56602912769E+00  0.33586033944E+01 -0.55365548809E+01  0.65003112191E+01  0.51100000000E-03 0. -1.
        -11    1    3    3    0    0 -0.75779798016E+00  0.79441538436E+01  0.34789142400E+01  0.87055546992E+01  0.51100000000E-03 0.  1.
         12    1    3    3    0    0 -0.53830221290E+01  0.31547115189E+02  0.61114918607E+01  0.32581401700E+02  0.00000000000E+00 0. -1.
</event>
<event>
 7    1  0.2328615E-009  0.4778726E+02  0.7816164E-02  0.1312668E+00
        -11   -1    0    0    0    0  0.00000000000E+00  0.00000000000E+00  0.45593999997E+02  0.45594000000E+02  0.51100000000E-03 0. -1.
         11   -1    0    0    0    0 -0.00000000000E+00 -0.00000000000E+00 -0.45593999997E+02  0.45594000000E+02  0.51100000000E-03 0.  1.
    9900012    2    1    2    0    0 -0.23132526806E+02 -0.23437662647E+02 -0.28269885212E+02  0.47787259952E+02  0.19999949427E+02 0.  0.
         12    1    1    2    0    0  0.23132526806E+02  0.23437662647E+02  0.28269885212E+02  0.43400740048E+02  0.00000000000E+00 0. -1.
         11    1    3    3    0    0 -0.95400104250E+01 -0.21707012268E+02 -0.15807493114E+02  0.28497070364E+02  0.51100000000E-03 0. -1.
        -11    1    3    3    0    0 -0.14556454434E+01 -0.36319300744E+00 -0.44169168767E+01  0.46647580617E+01  0.51100000000E-03 0.  1.
         12    1    3    3    0    0 -0.12136870937E+02 -0.13674573717E+01 -0.80454752213E+01  0.14625431527E+02  0.00000000000E+00 0. -1.
</event>
<event>
 7    1  0.2328615E-009  0.4778728E+02  0.7816164E-02  0.1312668E+00
        -11   -1    0    0    0    0  0.00000000000E+00  0.00000000000E+00  0.45593999997E+02  0.45594000000E+02  0.51100000000E-03 0.  1.
         11   -1    0    0    0    0 -0.00000000000E+00 -0.00000000000E+00 -0.45593999997E+02  0.45594000000E+02  0.51100000000E-03 0. -1.
    9900012    2    1    2    0    0 -0.22319691591E+02 -0.29411950666E+02  0.22812088208E+02  0.47787276007E+02  0.20000022625E+02 0.  0.
         12    1    1    2    0    0  0.22319691591E+02  0.29411950666E+02 -0.22812088208E+02  0.43400723993E+02  0.00000000000E+00 0. -1.
         11    1    3    3    0    0 -0.10254062191E+02 -0.18729094504E+02  0.14070258788E+02  0.25571408936E+02  0.51100000000E-03 0. -1.
        -11    1    3    3    0    0 -0.34614622164E+01 -0.11165614765E+02  0.38554542400E+01  0.12309232365E+02  0.51100000000E-03 0.  1.
         12    1    3    3    0    0 -0.86041671839E+01  0.48275860256E+00  0.48863751804E+01  0.99066347061E+01  0.00000000000E+00 0. -1.
</event>
<event>
 7    1  0.2328615E-009  0.4778727E+02  0.7816164E-02  0.1312668E+00
        -11   -1    0    0    0    0  0.00000000000E+00  0.00000000000E+00  0.45593999997E+02  0.45594000000E+02  0.51100000000E-03 0.  1.
         11   -1    0    0    0    0 -0.00000000000E+00 -0.00000000000E+00 -0.45593999997E+02  0.45594000000E+02  0.51100000000E-03 0. -1.
    9900012    2    1    2    0    0 -0.80044170010E+01 -0.36952504239E+02  0.21308798166E+02  0.47787272583E+02  0.20000007015E+02 0.  0.
         12    1    1    2    0    0  0.80044170010E+01  0.36952504239E+02 -0.21308798166E+02  0.43400727417E+02  0.00000000000E+00 0. -1.
         11    1    3    3    0    0  0.89711822342E+00 -0.10780835328E+02  0.77427227112E+00  0.10845770110E+02  0.51100000000E-03 0. -1.
        -11    1    3    3    0    0 -0.74970234669E+00 -0.21080122367E+02  0.14372766087E+02  0.25524694276E+02  0.51100000000E-03 0.  1.
         12    1    3    3    0    0 -0.81518328778E+01 -0.50915465434E+01  0.61617598083E+01  0.11416808197E+02  0.00000000000E+00 0. -1.
</event>
<event>
 7    1  0.2328615E-009  0.4778727E+02  0.7816164E-02  0.1312668E+00
        -11   -1    0    0    0    0  0.00000000000E+00  0.00000000000E+00  0.45593999997E+02  0.45594000000E+02  0.51100000000E-03 0.  1.
         11   -1    0    0    0    0 -0.00000000000E+00 -0.00000000000E+00 -0.45593999997E+02  0.45594000000E+02  0.51100000000E-03 0. -1.
    9900012    2    1    2    0    0  0.35436059515E+02 -0.49592471236E+00  0.25053199762E+02  0.47787273352E+02  0.20000010521E+02 0.  0.
         12    1    1    2    0    0 -0.35436059515E+02  0.49592471236E+00 -0.25053199762E+02  0.43400726648E+02  0.00000000000E+00 0. -1.
         11    1    3    3    0    0  0.16441757122E+02 -0.84274867677E+01  0.91306703978E+01  0.20608810073E+02  0.51100000000E-03 0. -1.
        -11    1    3    3    0    0 -0.62782270121E+00  0.92746108107E+00  0.37141297313E+00  0.11799547698E+01  0.51100000000E-03 0.  1.
        -12    1    3    3    0    0  0.19622125094E+02  0.70041009743E+01  0.15551116391E+02  0.25998508509E+02  0.00000000000E+00 0.  1.
</event>
<event>
 7    1  0.2328615E-009  0.4778727E+02  0.7816164E-02  0.1312668E+00
        -11   -1    0    0    0    0  0.00000000000E+00  0.00000000000E+00  0.45593999997E+02  0.45594000000E+02  0.51100000000E-03 0.  1.
         11   -1    0    0    0    0 -0.00000000000E+00 -0.00000000000E+00 -0.45593999997E+02  0.45594000000E+02  0.51100000000E-03 0. -1.
    9900012    2    1    2    0    0 -0.33891932083E+02 -0.22529683453E+02 -0.15078915785E+02  0.47787269614E+02  0.19999993480E+02 0.  0.
         12    1    1    2    0    0  0.33891932083E+02  0.22529683453E+02  0.15078915785E+02  0.43400730386E+02  0.00000000000E+00 0. -1.
         11    1    3    3    0    0 -0.17387164312E+01  0.94830381550E+00  0.11803072455E+01  0.23055455774E+01  0.51100000000E-03 0. -1.
        -11    1    3    3    0    0 -0.12161460066E+01 -0.27187435315E+00 -0.50719537525E+01  0.52228001974E+01  0.51100000000E-03 0.  1.
        -12    1    3    3    0    0 -0.30937069645E+02 -0.23206112915E+02 -0.11187269278E+02  0.40258923840E+02  0.00000000000E+00 0.  1.
</event>
<event>
 7    1  0.2328615E-009  0.4778727E+02  0.7816164E-02  0.1312668E+00
        -11   -1    0    0    0    0  0.00000000000E+00  0.00000000000E+00  0.45593999997E+02  0.45594000000E+02  0.51100000000E-03 0. -1.
         11   -1    0    0    0    0 -0.00000000000E+00 -0.00000000000E+00 -0.45593999997E+02  0.45594000000E+02  0.51100000000E-03 0.  1.
    9900012    2    1    2    0    0  0.26053454109E+02  0.16542085254E+02 -0.30515568694E+02  0.47787274335E+02  0.20000015001E+02 0.  0.
         12    1    1    2    0    0 -0.26053454109E+02 -0.16542085254E+02  0.30515568694E+02  0.43400725665E+02  0.00000000000E+00 0. -1.
         11    1    3    3    0    0 -0.72726381947E+00  0.16917167445E+01 -0.20092301913E+00  0.18523467622E+01  0.51100000000E-03 0. -1.
        -11    1    3    3    0    0  0.84695278567E+01 -0.11415843182E+01 -0.14814248407E+02  0.17102575040E+02  0.51100000000E-03 0.  1.
         12    1    3    3    0    0  0.18311190072E+02  0.15991952827E+02 -0.15500397268E+02  0.28832352532E+02  0.00000000000E+00 0. -1.
</event>
<event>
 7    1  0.2328615E-009  0.4778727E+02  0.7816164E-02  0.1312668E+00
        -11   -1    0    0    0    0  0.00000000000E+00  0.00000000000E+00  0.45593999997E+02  0.45594000000E+02  0.51100000000E-03 0. -1.
         11   -1    0    0    0    0 -0.00000000000E+00 -0.00000000000E+00 -0.45593999997E+02  0.45594000000E+02  0.51100000000E-03 0.  1.
    9900012    2    1    2    0    0  0.28020942636E+02 -0.14060591797E+02  0.30012497393E+02  0.47787268812E+02  0.19999989820E+02 0.  0.
         12    1    1    2    0    0 -0.28020942636E+02  0.14060591797E+02 -0.30012497393E+02  0.43400731188E+02  0.00000000000E+00 0. -1.
         11    1    3    3    0    0  0.39632172754E-01 -0.13518357818E+01  0.78990153398E+01  0.80139549718E+01  0.51100000000E-03 0. -1.
        -11    1    3    3    0    0  0.18326894278E+02 -0.97681495685E+01  0.21139770840E+02  0.29634130851E+02  0.51100000000E-03 0.  1.
         12    1    3    3    0    0  0.96544161855E+01 -0.29406064464E+01  0.97371121347E+00  0.10139182989E+02  0.00000000000E+00 0. -1.
</event>
<event>
 7    1  0.2328615E-009  0.4778727E+02  0.7816164E-02  0.1312668E+00
        -11   -1    0    0    0    0  0.00000000000E+00  0.00000000000E+00  0.45593999997E+02  0.45594000000E+02  0.51100000000E-03 0. -1.
         11   -1    0    0    0    0 -0.00000000000E+00 -0.00000000000E+00 -0.45593999997E+02  0.45594000000E+02  0.51100000000E-03 0.  1.
    9900012    2    1    2    0    0  0.13796674698E+02 -0.17475518490E+02 -0.37254283038E+02  0.47787267473E+02  0.19999983715E+02 0.  0.
         12    1    1    2    0    0 -0.13796674698E+02  0.17475518490E+02  0.37254283038E+02  0.43400732527E+02  0.00000000000E+00 0. -1.
         11    1    3    3    0    0 -0.13539569384E+01 -0.39910870179E+01 -0.13632130612E+02  0.14268740668E+02  0.51100000000E-03 0. -1.
        -11    1    3    3    0    0  0.47597606949E+01 -0.12108335187E+02 -0.10465804817E+02  0.16697310370E+02  0.51100000000E-03 0.  1.
         12    1    3    3    0    0  0.10390870941E+02 -0.13760962853E+01 -0.13156347609E+02  0.16821216434E+02  0.00000000000E+00 0. -1.
</event>
<event>
 7    1  0.2328615E-009  0.4778727E+02  0.7816164E-02  0.1312668E+00
        -11   -1    0    0    0    0  0.00000000000E+00  0.00000000000E+00  0.45593999997E+02  0.45594000000E+02  0.51100000000E-03 0.  1.
         11   -1    0    0    0    0 -0.00000000000E+00 -0.00000000000E+00 -0.45593999997E+02  0.45594000000E+02  0.51100000000E-03 0. -1.
    9900012    2    1    2    0    0  0.35618778222E+02 -0.20608976288E+02  0.13791168802E+02  0.47787267257E+02  0.19999982734E+02 0.  0.
         12    1    1    2    0    0 -0.35618778222E+02  0.20608976288E+02 -0.13791168802E+02  0.43400732743E+02  0.00000000000E+00 0. -1.
         11    1    3    3    0    0  0.14648973455E+02 -0.77677446554E+00  0.59747239771E+01  0.15839606331E+02  0.51100000000E-03 0. -1.
        -11    1    3    3    0    0  0.17709192471E+02 -0.99978340359E+01  0.71821138248E+01  0.21567451000E+02  0.51100000000E-03 0.  1.
         12    1    3    3    0    0  0.32606122964E+01 -0.98343677863E+01  0.63433099974E+00  0.10380209927E+02  0.00000000000E+00 0. -1.
</event>
<event>
 7    1  0.2328615E-009  0.4778727E+02  0.7816164E-02  0.1312668E+00
        -11   -1    0    0    0    0  0.00000000000E+00  0.00000000000E+00  0.45593999997E+02  0.45594000000E+02  0.51100000000E-03 0.  1.
         11   -1    0    0    0    0 -0.00000000000E+00 -0.00000000000E+00 -0.45593999997E+02  0.45594000000E+02  0.51100000000E-03 0. -1.
    9900012    2    1    2    0    0  0.20545090369E+02 -0.17884242164E+02  0.33788700573E+02  0.47787272559E+02  0.20000006904E+02 0.  0.
         12    1    1    2    0    0 -0.20545090369E+02  0.17884242164E+02 -0.33788700573E+02  0.43400727441E+02  0.00000000000E+00 0. -1.
         11    1    3    3    0    0  0.14617083332E+02 -0.14736970311E+02  0.13123453463E+02  0.24557329866E+02  0.51100000000E-03 0. -1.
        -11    1    3    3    0    0  0.52425898810E+00 -0.22112677823E+01  0.49291406953E+00  0.23254068962E+01  0.51100000000E-03 0.  1.
        -12    1    3    3    0    0  0.54037480486E+01 -0.93600407046E+00  0.20172333040E+02  0.20904535797E+02  0.00000000000E+00 0.  1.
</event>
<event>
 7    1  0.2328615E-009  0.4778727E+02  0.7816164E-02  0.1312668E+00
        -11   -1    0    0    0    0  0.00000000000E+00  0.00000000000E+00  0.45593999997E+02  0.45594000000E+02  0.51100000000E-03 0.  1.
         11   -1    0    0    0    0 -0.00000000000E+00 -0.00000000000E+00 -0.45593999997E+02  0.45594000000E+02  0.51100000000E-03 0. -1.
    9900012    2    1    2    0    0 -0.98840299104E+01 -0.26656178261E+02  0.32792946635E+02  0.47787271483E+02  0.20000002000E+02 0.  0.
         12    1    1    2    0    0  0.98840299104E+01  0.26656178261E+02 -0.32792946635E+02  0.43400728517E+02  0.00000000000E+00 0. -1.
         11    1    3    3    0    0  0.56491747397E+00  0.51773314886E+00  0.18638514992E+01  0.20152225778E+01  0.51100000000E-03 0. -1.
        -11    1    3    3    0    0 -0.92558413344E+01 -0.21554879980E+02  0.32248730600E+02  0.39878115243E+02  0.51100000000E-03 0.  1.
         12    1    3    3    0    0 -0.11931060500E+01 -0.56190314304E+01 -0.13196354638E+01  0.58939336627E+01  0.00000000000E+00 0. -1.
</event>
<event>
 7    1  0.2328615E-009  0.4778727E+02  0.7816164E-02  0.1312668E+00
        -11   -1    0    0    0    0  0.00000000000E+00  0.00000000000E+00  0.45593999997E+02  0.45594000000E+02  0.51100000000E-03 0. -1.
         11   -1    0    0    0    0 -0.00000000000E+00 -0.00000000000E+00 -0.45593999997E+02  0.45594000000E+02  0.51100000000E-03 0.  1.
    9900012    2    1    2    0    0  0.24110455222E+02  0.35739323866E+02  0.50009791269E+01  0.47787272891E+02  0.20000008418E+02 0.  0.
         12    1    1    2    0    0 -0.24110455222E+02 -0.35739323866E+02 -0.50009791269E+01  0.43400727109E+02  0.00000000000E+00 0. -1.
         11    1    3    3    0    0  0.84385677993E+01  0.24758088474E+01  0.13928727183E+01  0.89038840190E+01  0.51100000000E-03 0. -1.
        -11    1    3    3    0    0  0.62258391661E+01  0.29041150668E+01  0.14058296837E+01  0.70122261090E+01  0.51100000000E-03 0.  1.
        -12    1    3    3    0    0  0.94460482563E+01  0.30359399952E+02  0.22022767250E+01  0.31871162763E+02  0.00000000000E+00 0.  1.
</event>
<event>
 7    1  0.2328615E-009  0.4778727E+02  0.7816164E-02  0.1312668E+00
        -11   -1    0    0    0    0  0.00000000000E+00  0.00000000000E+00  0.45593999997E+02  0.45594000000E+02  0.51100000000E-03 0.  1.
         11   -1    0    0    0    0 -0.00000000000E+00 -0.00000000000E+00 -0.45593999997E+02  0.45594000000E+02  0.51100000000E-03 0. -1.
    9900012    2    1    2    0    0  0.12360759311E+02  0.28305422504E+02  0.30489964395E+02  0.47787271403E+02  0.20000001636E+02 0.  0.
         12    1    1    2    0    0 -0.12360759311E+02 -0.28305422504E+02 -0.30489964395E+02  0.43400728597E+02  0.00000000000E+00 0. -1.
         11    1    3    3    0    0  0.35287453336E+01  0.50958190616E+00  0.32178178053E+01  0.48027147571E+01  0.51100000000E-03 0. -1.
        -11    1    3    3    0    0 -0.13316927764E+01  0.16093036671E+02  0.20430448428E+02  0.26041552530E+02  0.51100000000E-03 0.  1.
        -12    1    3    3    0    0  0.10163706754E+02  0.11702803927E+02  0.68416981621E+01  0.16943004116E+02  0.00000000000E+00 0.  1.
</event>
<event>
 7    1  0.2328615E-009  0.4778727E+02  0.7816164E-02  0.1312668E+00
        -11   -1    0    0    0    0  0.00000000000E+00  0.00000000000E+00  0.45593999997E+02  0.45594000000E+02  0.51100000000E-03 0. -1.
         11   -1    0    0    0    0 -0.00000000000E+00 -0.00000000000E+00 -0.45593999997E+02  0.45594000000E+02  0.51100000000E-03 0.  1.
    9900012    2    1    2    0    0 -0.33382757026E+02  0.72108625890E+01 -0.26780927248E+02  0.47787273391E+02  0.20000010699E+02 0.  0.
         12    1    1    2    0    0  0.33382757026E+02 -0.72108625890E+01  0.26780927248E+02  0.43400726609E+02  0.00000000000E+00 0. -1.
         11    1    3    3    0    0 -0.21713627326E+02  0.50714217623E+01 -0.13663266702E+02  0.26151210060E+02  0.51100000000E-03 0. -1.
        -11    1    3    3    0    0 -0.59131897630E+01  0.69026915143E+01 -0.10074971823E+02  0.13569009573E+02  0.51100000000E-03 0.  1.
         12    1    3    3    0    0 -0.57559399361E+01 -0.47632506876E+01 -0.30426887240E+01  0.80670537578E+01  0.00000000000E+00 0. -1.
</event>
<event>
 7    1  0.2328615E-009  0.4778727E+02  0.7816164E-02  0.1312668E+00
        -11   -1    0    0    0    0  0.00000000000E+00  0.00000000000E+00  0.45593999997E+02  0.45594000000E+02  0.51100000000E-03 0.  1.
         11   -1    0    0    0    0 -0.00000000000E+00 -0.00000000000E+00 -0.45593999997E+02  0.45594000000E+02  0.51100000000E-03 0. -1.
    9900012    2    1    2    0    0  0.15230859951E+02 -0.25726665435E+02  0.31460816601E+02  0.47787269701E+02  0.19999993875E+02 0.  0.
         12    1    1    2    0    0 -0.15230859951E+02  0.25726665435E+02 -0.31460816601E+02  0.43400730299E+02  0.00000000000E+00 0. -1.
         11    1    3    3    0    0  0.39998571561E+01 -0.22533231169E+02  0.17972823009E+02  0.29099273725E+02  0.51100000000E-03 0.  1.
        -11    1    3    3    0    0  0.14420393607E+01 -0.13513425585E+01  0.70739624650E-01  0.19775258744E+01  0.51100000000E-03 0. -1.
        -12    1    3    3    0    0  0.97889634338E+01 -0.18420917080E+01  0.13417253968E+02  0.16710470101E+02  0.00000000000E+00 0.  1.
</event>
<event>
 7    1  0.2328615E-009  0.4778728E+02  0.7816164E-02  0.1312668E+00
        -11   -1    0    0    0    0  0.00000000000E+00  0.00000000000E+00  0.45593999997E+02  0.45594000000E+02  0.51100000000E-03 0.  1.
         11   -1    0    0    0    0 -0.00000000000E+00 -0.00000000000E+00 -0.45593999997E+02  0.45594000000E+02  0.51100000000E-03 0. -1.
    9900012    2    1    2    0    0  0.69458176176E+01  0.42839494513E+02 -0.39496352466E+00  0.47787278016E+02  0.20000031788E+02 0.  0.
         12    1    1    2    0    0 -0.69458176176E+01 -0.42839494513E+02  0.39496352466E+00  0.43400721984E+02  0.00000000000E+00 0. -1.
         11    1    3    3    0    0  0.48173759039E+01  0.89237927115E+01 -0.28341233069E+01  0.10529645870E+02  0.51100000000E-03 0. -1.
        -11    1    3    3    0    0  0.13027892421E+01  0.31896142514E+02 -0.23355328695E+01  0.32008059627E+02  0.51100000000E-03 0.  1.
         12    1    3    3    0    0  0.82565247160E+00  0.20195592878E+01  0.47746926517E+01  0.52495725196E+01  0.00000000000E+00 0. -1.
</event>
<event>
 7    1  0.2328615E-009  0.4778727E+02  0.7816164E-02  0.1312668E+00
        -11   -1    0    0    0    0  0.00000000000E+00  0.00000000000E+00  0.45593999997E+02  0.45594000000E+02  0.51100000000E-03 0. -1.
         11   -1    0    0    0    0 -0.00000000000E+00 -0.00000000000E+00 -0.45593999997E+02  0.45594000000E+02  0.51100000000E-03 0.  1.
    9900012    2    1    2    0    0  0.11236241514E+02 -0.19508150277E+02 -0.37105284378E+02  0.47787272133E+02  0.20000004964E+02 0.  0.
         12    1    1    2    0    0 -0.11236241514E+02  0.19508150277E+02  0.37105284378E+02  0.43400727867E+02  0.00000000000E+00 0. -1.
         11    1    3    3    0    0  0.50195066199E+01 -0.19240716048E+01 -0.37681927330E+01  0.65648134004E+01  0.51100000000E-03 0. -1.
        -11    1    3    3    0    0  0.79923345358E+01 -0.19668557969E+01 -0.14652309816E+02  0.16805835780E+02  0.51100000000E-03 0.  1.
         12    1    3    3    0    0 -0.17755996419E+01 -0.15617222875E+02 -0.18684781829E+02  0.24416622953E+02  0.00000000000E+00 0. -1.
</event>
<event>
 7    1  0.2328615E-009  0.4778727E+02  0.7816164E-02  0.1312668E+00
        -11   -1    0    0    0    0  0.00000000000E+00  0.00000000000E+00  0.45593999997E+02  0.45594000000E+02  0.51100000000E-03 0. -1.
         11   -1    0    0    0    0 -0.00000000000E+00 -0.00000000000E+00 -0.45593999997E+02  0.45594000000E+02  0.51100000000E-03 0.  1.
    9900012    2    1    2    0    0 -0.12746532729E+02  0.27040425513E+02 -0.31463699231E+02  0.47787273303E+02  0.20000010298E+02 0.  0.
         12    1    1    2    0    0  0.12746532729E+02 -0.27040425513E+02  0.31463699231E+02  0.43400726697E+02  0.00000000000E+00 0. -1.
         11    1    3    3    0    0 -0.52503902496E+01  0.51623581412E+01 -0.17521670094E+02  0.19005932297E+02  0.51100000000E-03 0. -1.
        -11    1    3    3    0    0  0.14812708561E+01  0.47975188588E+01 -0.62293659211E+01  0.80009593544E+01  0.51100000000E-03 0.  1.
         12    1    3    3    0    0 -0.89774133354E+01  0.17080548513E+02 -0.77126632158E+01  0.20780381651E+02  0.00000000000E+00 0. -1.
</event>
<event>
 7    1  0.2328615E-009  0.4778727E+02  0.7816164E-02  0.1312668E+00
        -11   -1    0    0    0    0  0.00000000000E+00  0.00000000000E+00  0.45593999997E+02  0.45594000000E+02  0.51100000000E-03 0.  1.
         11   -1    0    0    0    0 -0.00000000000E+00 -0.00000000000E+00 -0.45593999997E+02  0.45594000000E+02  0.51100000000E-03 0. -1.
    9900012    2    1    2    0    0  0.39892566079E+02  0.13381658772E+02  0.10636618433E+02  0.47787271071E+02  0.20000000120E+02 0.  0.
         12    1    1    2    0    0 -0.39892566079E+02 -0.13381658772E+02 -0.10636618433E+02  0.43400728929E+02  0.00000000000E+00 0. -1.
         11    1    3    3    0    0  0.11332442179E+02  0.56068625218E+01  0.12355515231E+01  0.12703847484E+02  0.51100000000E-03 0. -1.
        -11    1    3    3    0    0  0.30211155678E+02  0.91461953327E+01  0.94067117590E+01  0.32937107384E+02  0.51100000000E-03 0.  1.
         12    1    3    3    0    0 -0.16510317778E+01 -0.13713990823E+01 -0.56448487104E-02  0.21463162019E+01  0.00000000000E+00 0. -1.
</event>
<event>
 7    1  0.2328615E-009  0.4778727E+02  0.7816164E-02  0.1312668E+00
        -11   -1    0    0    0    0  0.00000000000E+00  0.00000000000E+00  0.45593999997E+02  0.45594000000E+02  0.51100000000E-03 0.  1.
         11   -1    0    0    0    0 -0.00000000000E+00 -0.00000000000E+00 -0.45593999997E+02  0.45594000000E+02  0.51100000000E-03 0. -1.
    9900012    2    1    2    0    0 -0.15775868389E+02 -0.20444455112E+02  0.34882221638E+02  0.47787272418E+02  0.20000006264E+02 0.  0.
         12    1    1    2    0    0  0.15775868389E+02  0.20444455112E+02 -0.34882221638E+02  0.43400727582E+02  0.00000000000E+00 0. -1.
         11    1    3    3    0    0 -0.11149247394E+02 -0.17336008189E+02  0.11695307415E+02  0.23698588844E+02  0.51100000000E-03 0. -1.
        -11    1    3    3    0    0 -0.97761717861E+00 -0.23517125395E+01  0.62971361429E+01  0.67926586165E+01  0.51100000000E-03 0.  1.
        -12    1    3    3    0    0 -0.36490038166E+01 -0.75673438268E+00  0.16889778079E+02  0.17296024958E+02  0.00000000000E+00 0.  1.
</event>
<event>
 7    1  0.2328615E-009  0.4778726E+02  0.7816164E-02  0.1312668E+00
        -11   -1    0    0    0    0  0.00000000000E+00  0.00000000000E+00  0.45593999997E+02  0.45594000000E+02  0.51100000000E-03 0.  1.
         11   -1    0    0    0    0 -0.00000000000E+00 -0.00000000000E+00 -0.45593999997E+02  0.45594000000E+02  0.51100000000E-03 0. -1.
    9900012    2    1    2    0    0  0.15659791000E+02  0.11027531108E+01  0.40462074959E+02  0.47787255437E+02  0.19999928841E+02 0.  0.
         12    1    1    2    0    0 -0.15659791000E+02 -0.11027531108E+01 -0.40462074959E+02  0.43400744563E+02  0.00000000000E+00 0. -1.
         11    1    3    3    0    0  0.16571821569E+01 -0.26650069897E+01  0.49546993640E+01  0.58649433932E+01  0.51100000000E-03 0. -1.
        -11    1    3    3    0    0  0.57894673951E+01  0.24906884879E+01  0.94307564962E+00  0.63726645765E+01  0.51100000000E-03 0.  1.
        -12    1    3    3    0    0  0.82131414479E+01  0.12770716127E+01  0.34564299946E+02  0.35549647468E+02  0.00000000000E+00 0.  1.
</event>
<event>
 7    1  0.2328615E-009  0.4778727E+02  0.7816164E-02  0.1312668E+00
        -11   -1    0    0    0    0  0.00000000000E+00  0.00000000000E+00  0.45593999997E+02  0.45594000000E+02  0.51100000000E-03 0. -1.
         11   -1    0    0    0    0 -0.00000000000E+00 -0.00000000000E+00 -0.45593999997E+02  0.45594000000E+02  0.51100000000E-03 0.  1.
    9900012    2    1    2    0    0  0.13772128847E+02  0.39243971199E+02 -0.12404127515E+02  0.47787272035E+02  0.20000004516E+02 0.  0.
         12    1    1    2    0    0 -0.13772128847E+02 -0.39243971199E+02  0.12404127515E+02  0.43400727965E+02  0.00000000000E+00 0. -1.
         11    1    3    3    0    0  0.22731684256E+01 -0.27653343237E+00 -0.55401602833E+01  0.59947595161E+01  0.51100000000E-03 0. -1.
        -11    1    3    3    0    0  0.15308534137E+01  0.32246537323E+01 -0.92083196125E+00  0.36864394244E+01  0.51100000000E-03 0.  1.
         12    1    3    3    0    0  0.99681070078E+01  0.36295850900E+02 -0.59431352707E+01  0.38106073095E+02  0.00000000000E+00 0. -1.
</event>
<event>
 7    1  0.2328615E-009  0.4778727E+02  0.7816164E-02  0.1312668E+00
        -11   -1    0    0    0    0  0.00000000000E+00  0.00000000000E+00  0.45593999997E+02  0.45594000000E+02  0.51100000000E-03 0.  1.
         11   -1    0    0    0    0 -0.00000000000E+00 -0.00000000000E+00 -0.45593999997E+02  0.45594000000E+02  0.51100000000E-03 0. -1.
    9900012    2    1    2    0    0  0.23153325890E+02 -0.12714311157E+02  0.34436794271E+02  0.47787274112E+02  0.20000013985E+02 0.  0.
         12    1    1    2    0    0 -0.23153325890E+02  0.12714311157E+02 -0.34436794271E+02  0.43400725888E+02  0.00000000000E+00 0. -1.
         11    1    3    3    0    0  0.33069983218E+01 -0.73688058077E+01  0.90765067557E+01  0.12149835887E+02  0.51100000000E-03 0. -1.
        -11    1    3    3    0    0  0.87132559939E+01 -0.49013779398E+01  0.26519919076E+01  0.10342987821E+02  0.51100000000E-03 0.  1.
        -12    1    3    3    0    0  0.11133071574E+02 -0.44412740943E+00  0.22708295608E+02  0.25294450404E+02  0.00000000000E+00 0.  1.
</event>
<event>
 7    1  0.2328615E-009  0.4778727E+02  0.7816164E-02  0.1312668E+00
        -11   -1    0    0    0    0  0.00000000000E+00  0.00000000000E+00  0.45593999997E+02  0.45594000000E+02  0.51100000000E-03 0. -1.
         11   -1    0    0    0    0 -0.00000000000E+00 -0.00000000000E+00 -0.45593999997E+02  0.45594000000E+02  0.51100000000E-03 0.  1.
    9900012    2    1    2    0    0  0.21026737037E+02 -0.13840374155E+02 -0.35354542487E+02  0.47787270724E+02  0.19999998539E+02 0.  0.
         12    1    1    2    0    0 -0.21026737037E+02  0.13840374155E+02  0.35354542487E+02  0.43400729276E+02  0.00000000000E+00 0. -1.
         11    1    3    3    0    0  0.74319787798E+01  0.14451390066E+01 -0.11811545322E+01  0.76627580949E+01  0.51100000000E-03 0. -1.
        -11    1    3    3    0    0  0.13766689135E+01 -0.55200970675E+00 -0.88940465089E+00  0.17294429473E+01  0.51100000000E-03 0.  1.
        -12    1    3    3    0    0  0.12218089344E+02 -0.14733503455E+02 -0.33283983304E+02  0.38395069682E+02  0.00000000000E+00 0.  1.
</event>
<event>
 7    1  0.2328615E-009  0.4778727E+02  0.7816164E-02  0.1312668E+00
        -11   -1    0    0    0    0  0.00000000000E+00  0.00000000000E+00  0.45593999997E+02  0.45594000000E+02  0.51100000000E-03 0.  1.
         11   -1    0    0    0    0 -0.00000000000E+00 -0.00000000000E+00 -0.45593999997E+02  0.45594000000E+02  0.51100000000E-03 0. -1.
    9900012    2    1    2    0    0 -0.53372551633E+01  0.13559359464E+02  0.40881299869E+02  0.47787271887E+02  0.20000003843E+02 0.  0.
         12    1    1    2    0    0  0.53372551633E+01 -0.13559359464E+02 -0.40881299869E+02  0.43400728113E+02  0.00000000000E+00 0. -1.
         11    1    3    3    0    0  0.35400842938E+01  0.19747371413E+01  0.14183255970E+02  0.14751153642E+02  0.51100000000E-03 0.  1.
        -11    1    3    3    0    0  0.17495576341E+01  0.59311682327E+01  0.15115023270E+02  0.16331063567E+02  0.51100000000E-03 0. -1.
        -12    1    3    3    0    0 -0.10626897091E+02  0.56534540898E+01  0.11583020629E+02  0.16705054679E+02  0.00000000000E+00 0.  1.
</event>
<event>
 7    1  0.2328615E-009  0.4778725E+02  0.7816164E-02  0.1312668E+00
        -11   -1    0    0    0    0  0.00000000000E+00  0.00000000000E+00  0.45593999997E+02  0.45594000000E+02  0.51100000000E-03 0. -1.
         11   -1    0    0    0    0 -0.00000000000E+00 -0.00000000000E+00 -0.45593999997E+02  0.45594000000E+02  0.51100000000E-03 0.  1.
    9900012    2    1    2    0    0 -0.26441462184E+02  0.29654674923E+02 -0.17466368743E+02  0.47787254565E+02  0.19999924865E+02 0.  0.
         12    1    1    2    0    0  0.26441462184E+02 -0.29654674923E+02  0.17466368743E+02  0.43400745435E+02  0.00000000000E+00 0. -1.
         11    1    3    3    0    0 -0.77620666803E+01  0.90945349424E+00 -0.30228069207E+01  0.83793882085E+01  0.51100000000E-03 0. -1.
        -11    1    3    3    0    0 -0.55425635469E+01  0.61572440496E+00 -0.28978373243E+01  0.62846311454E+01  0.51100000000E-03 0.  1.
         12    1    3    3    0    0 -0.13136831957E+02  0.28129497024E+02 -0.11545724498E+02  0.33123235211E+02  0.00000000000E+00 0. -1.
</event>
<event>
 7    1  0.2328615E-009  0.4778727E+02  0.7816164E-02  0.1312668E+00
        -11   -1    0    0    0    0  0.00000000000E+00  0.00000000000E+00  0.45593999997E+02  0.45594000000E+02  0.51100000000E-03 0. -1.
         11   -1    0    0    0    0 -0.00000000000E+00 -0.00000000000E+00 -0.45593999997E+02  0.45594000000E+02  0.51100000000E-03 0.  1.
    9900012    2    1    2    0    0 -0.22159001116E+02  0.32489514954E+02 -0.18358472399E+02  0.47787269347E+02  0.19999992261E+02 0.  0.
         12    1    1    2    0    0  0.22159001116E+02 -0.32489514954E+02  0.18358472399E+02  0.43400730653E+02  0.00000000000E+00 0. -1.
         11    1    3    3    0    0 -0.13338537851E+02  0.21807547619E+02 -0.11999326086E+02  0.28239503393E+02  0.51100000000E-03 0. -1.
        -11    1    3    3    0    0 -0.10720822514E+02  0.11265644620E+02 -0.74893553348E+01  0.17260974123E+02  0.51100000000E-03 0.  1.
         12    1    3    3    0    0  0.19003592482E+01 -0.58367728460E+00  0.11302090219E+01  0.22867918309E+01  0.00000000000E+00 0. -1.
</event>
<event>
 7    1  0.2328615E-009  0.4778727E+02  0.7816164E-02  0.1312668E+00
        -11   -1    0    0    0    0  0.00000000000E+00  0.00000000000E+00  0.45593999997E+02  0.45594000000E+02  0.51100000000E-03 0. -1.
         11   -1    0    0    0    0 -0.00000000000E+00 -0.00000000000E+00 -0.45593999997E+02  0.45594000000E+02  0.51100000000E-03 0.  1.
    9900012    2    1    2    0    0 -0.18411825739E+02 -0.46028341957E+01 -0.39031294125E+02  0.47787270389E+02  0.19999997011E+02 0.  0.
         12    1    1    2    0    0  0.18411825739E+02  0.46028341957E+01  0.39031294125E+02  0.43400729611E+02  0.00000000000E+00 0. -1.
         11    1    3    3    0    0 -0.15134584475E+02 -0.47180203357E+01 -0.19796553522E+02  0.25361760482E+02  0.51100000000E-03 0. -1.
        -11    1    3    3    0    0 -0.32529721260E+01 -0.37367994703E+01 -0.17523596432E+02  0.18210489562E+02  0.51100000000E-03 0.  1.
         12    1    3    3    0    0 -0.24269138185E-01  0.38519856103E+01 -0.17111441716E+01  0.42150203451E+01  0.00000000000E+00 0. -1.
</event>
<event>
 7    1  0.2328615E-009  0.4778727E+02  0.7816164E-02  0.1312668E+00
        -11   -1    0    0    0    0  0.00000000000E+00  0.00000000000E+00  0.45593999997E+02  0.45594000000E+02  0.51100000000E-03 0.  1.
         11   -1    0    0    0    0 -0.00000000000E+00 -0.00000000000E+00 -0.45593999997E+02  0.45594000000E+02  0.51100000000E-03 0. -1.
    9900012    2    1    2    0    0  0.15395870387E+02  0.78489993353E+00  0.40570608627E+02  0.47787272158E+02  0.20000005078E+02 0.  0.
         12    1    1    2    0    0 -0.15395870387E+02 -0.78489993353E+00 -0.40570608627E+02  0.43400727842E+02  0.00000000000E+00 0. -1.
         11    1    3    3    0    0  0.43672546270E+01  0.88243157664E+00  0.12109333064E+00  0.44571585478E+01  0.51100000000E-03 0. -1.
        -11    1    3    3    0    0 -0.92400575691E+00 -0.29832885199E+01  0.62405482546E+01  0.69784124134E+01  0.51100000000E-03 0.  1.
        -12    1    3    3    0    0  0.11952621517E+02  0.28857568768E+01  0.34208967041E+02  0.36351701197E+02  0.00000000000E+00 0.  1.
</event>
<event>
 7    1  0.2328615E-009  0.4778727E+02  0.7816164E-02  0.1312668E+00
        -11   -1    0    0    0    0  0.00000000000E+00  0.00000000000E+00  0.45593999997E+02  0.45594000000E+02  0.51100000000E-03 0.  1.
         11   -1    0    0    0    0 -0.00000000000E+00 -0.00000000000E+00 -0.45593999997E+02  0.45594000000E+02  0.51100000000E-03 0. -1.
    9900012    2    1    2    0    0  0.34485837573E+02 -0.19038402154E+02  0.18217836548E+02  0.47787270534E+02  0.19999997672E+02 0.  0.
         12    1    1    2    0    0 -0.34485837573E+02  0.19038402154E+02 -0.18217836548E+02  0.43400729466E+02  0.00000000000E+00 0. -1.
         11    1    3    3    0    0  0.14807407766E+02 -0.18276934613E+02  0.92692770742E+01  0.25282902550E+02  0.51100000000E-03 0. -1.
        -11    1    3    3    0    0  0.63773892903E+01 -0.14493594633E+01  0.59732180710E+01  0.88572609422E+01  0.51100000000E-03 0.  1.
        -12    1    3    3    0    0  0.13301040517E+02  0.68789192321E+00  0.29753414031E+01  0.13647107042E+02  0.00000000000E+00 0.  1.
</event>
<event>
 7    1  0.2328615E-009  0.4778727E+02  0.7816164E-02  0.1312668E+00
        -11   -1    0    0    0    0  0.00000000000E+00  0.00000000000E+00  0.45593999997E+02  0.45594000000E+02  0.51100000000E-03 0. -1.
         11   -1    0    0    0    0 -0.00000000000E+00 -0.00000000000E+00 -0.45593999997E+02  0.45594000000E+02  0.51100000000E-03 0.  1.
    9900012    2    1    2    0    0  0.11287611271E+02  0.35306354811E+01 -0.41758206156E+02  0.47787270324E+02  0.19999996713E+02 0.  0.
         12    1    1    2    0    0 -0.11287611271E+02 -0.35306354811E+01  0.41758206156E+02  0.43400729676E+02  0.00000000000E+00 0. -1.
         11    1    3    3    0    0 -0.10877066750E+01  0.18808836719E+01 -0.71022174172E+01  0.74271341512E+01  0.51100000000E-03 0. -1.
        -11    1    3    3    0    0  0.43356954770E+01 -0.50655613644E+01 -0.35839727382E+01  0.75698763566E+01  0.51100000000E-03 0.  1.
         12    1    3    3    0    0  0.80396224693E+01  0.67153131736E+01 -0.31072016000E+02  0.32790259816E+02  0.00000000000E+00 0. -1.
</event>
<event>
 7    1  0.2328615E-009  0.4778728E+02  0.7816164E-02  0.1312668E+00
        -11   -1    0    0    0    0  0.00000000000E+00  0.00000000000E+00  0.45593999997E+02  0.45594000000E+02  0.51100000000E-03 0.  1.
         11   -1    0    0    0    0 -0.00000000000E+00 -0.00000000000E+00 -0.45593999997E+02  0.45594000000E+02  0.51100000000E-03 0. -1.
    9900012    2    1    2    0    0  0.86999007819E+01  0.35282641911E+02  0.23729082378E+02  0.47787280601E+02  0.20000043573E+02 0.  0.
         12    1    1    2    0    0 -0.86999007819E+01 -0.35282641911E+02 -0.23729082378E+02  0.43400719399E+02  0.00000000000E+00 0. -1.
         11    1    3    3    0    0  0.61329989823E+00  0.59367243214E+01  0.10936241167E+00  0.59693209691E+01  0.51100000000E-03 0.  1.
        -11    1    3    3    0    0  0.87299363701E+01  0.29182624382E+02  0.16451743356E+02  0.34619318517E+02  0.51100000000E-03 0. -1.
         12    1    3    3    0    0 -0.64333548637E+00  0.16329320728E+00  0.71679766105E+01  0.71986411154E+01  0.00000000000E+00 0. -1.
</event>
<event>
 7    1  0.2328615E-009  0.4778727E+02  0.7816164E-02  0.1312668E+00
        -11   -1    0    0    0    0  0.00000000000E+00  0.00000000000E+00  0.45593999997E+02  0.45594000000E+02  0.51100000000E-03 0.  1.
         11   -1    0    0    0    0 -0.00000000000E+00 -0.00000000000E+00 -0.45593999997E+02  0.45594000000E+02  0.51100000000E-03 0. -1.
    9900012    2    1    2    0    0  0.38321935978E+02  0.32086397170E+01  0.20118574725E+02  0.47787271955E+02  0.20000004150E+02 0.  0.
         12    1    1    2    0    0 -0.38321935978E+02 -0.32086397170E+01 -0.20118574725E+02  0.43400728045E+02  0.00000000000E+00 0. -1.
         11    1    3    3    0    0  0.65428806970E+01  0.73299740036E+01  0.86308761980E+01  0.13077837394E+02  0.51100000000E-03 0. -1.
        -11    1    3    3    0    0  0.11765224949E+01  0.11137815209E+01  0.11490682909E+01  0.19862206966E+01  0.51100000000E-03 0.  1.
        -12    1    3    3    0    0  0.30602532786E+02 -0.52351158075E+01  0.10338630236E+02  0.32723213864E+02  0.00000000000E+00 0.  1.
</event>
<event>
 7    1  0.2328615E-009  0.4778727E+02  0.7816164E-02  0.1312668E+00
        -11   -1    0    0    0    0  0.00000000000E+00  0.00000000000E+00  0.45593999997E+02  0.45594000000E+02  0.51100000000E-03 0.  1.
         11   -1    0    0    0    0 -0.00000000000E+00 -0.00000000000E+00 -0.45593999997E+02  0.45594000000E+02  0.51100000000E-03 0. -1.
    9900012    2    1    2    0    0 -0.41122674586E+02 -0.15098278290E+01  0.13793814141E+02  0.47787271277E+02  0.20000001059E+02 0.  0.
         12    1    1    2    0    0  0.41122674586E+02  0.15098278290E+01 -0.13793814141E+02  0.43400728723E+02  0.00000000000E+00 0. -1.
         11    1    3    3    0    0 -0.52073710963E+00  0.55503753880E+00 -0.96705372682E+00  0.12306205664E+01  0.51100000000E-03 0. -1.
        -11    1    3    3    0    0 -0.17673925957E+02  0.50669602764E+01  0.12926211687E+02  0.22475068276E+02  0.51100000000E-03 0.  1.
         12    1    3    3    0    0 -0.22928011519E+02 -0.71318256443E+01  0.18346561805E+01  0.24081582434E+02  0.00000000000E+00 0. -1.
</event>
<event>
 7    1  0.2328615E-009  0.4778728E+02  0.7816164E-02  0.1312668E+00
        -11   -1    0    0    0    0  0.00000000000E+00  0.00000000000E+00  0.45593999997E+02  0.45594000000E+02  0.51100000000E-03 0. -1.
         11   -1    0    0    0    0 -0.00000000000E+00 -0.00000000000E+00 -0.45593999997E+02  0.45594000000E+02  0.51100000000E-03 0.  1.
    9900012    2    1    2    0    0 -0.29117304690E+02 -0.31861988000E+02 -0.45408348340E+01  0.47787275436E+02  0.20000020021E+02 0.  0.
         12    1    1    2    0    0  0.29117304690E+02  0.31861988000E+02  0.45408348340E+01  0.43400724564E+02  0.00000000000E+00 0. -1.
         11    1    3    3    0    0 -0.46406210370E+00 -0.67453822803E+01 -0.43764402487E+01  0.80541148027E+01  0.51100000000E-03 0.  1.
        -11    1    3    3    0    0 -0.77720941667E+01 -0.36914324372E+01 -0.41474557690E+01  0.95516234636E+01  0.51100000000E-03 0. -1.
        -12    1    3    3    0    0 -0.20881148420E+02 -0.21425173282E+02  0.39830611837E+01  0.30181537169E+02  0.00000000000E+00 0.  1.
</event>
<event>
 7    1  0.2328615E-009  0.4778727E+02  0.7816164E-02  0.1312668E+00
        -11   -1    0    0    0    0  0.00000000000E+00  0.00000000000E+00  0.45593999997E+02  0.45594000000E+02  0.51100000000E-03 0. -1.
         11   -1    0    0    0    0 -0.00000000000E+00 -0.00000000000E+00 -0.45593999997E+02  0.45594000000E+02  0.51100000000E-03 0.  1.
    9900012    2    1    2    0    0 -0.38465802729E+02 -0.19526691967E+02 -0.47658662756E+01  0.47787272355E+02  0.20000005975E+02 0.  0.
         12    1    1    2    0    0  0.38465802729E+02  0.19526691967E+02  0.47658662756E+01  0.43400727645E+02  0.00000000000E+00 0. -1.
         11    1    3    3    0    0 -0.13830738900E+02 -0.91748318230E+01 -0.15239060873E+01  0.16667008356E+02  0.51100000000E-03 0. -1.
        -11    1    3    3    0    0 -0.24150849126E+02 -0.90517544841E+01  0.18355177234E+01  0.25856660619E+02  0.51100000000E-03 0.  1.
         12    1    3    3    0    0 -0.48421470265E+00 -0.13001056596E+01 -0.50774779117E+01  0.52636033806E+01  0.00000000000E+00 0. -1.
</event>
<event>
 7    1  0.2651845E-009  0.4778727E+02  0.7816164E-02  0.1312668E+00
        -11   -1    0    0    0    0  0.00000000000E+00  0.00000000000E+00  0.45593999997E+02  0.45594000000E+02  0.51100000000E-03 0.  1.
         11   -1    0    0    0    0 -0.00000000000E+00 -0.00000000000E+00 -0.45593999997E+02  0.45594000000E+02  0.51100000000E-03 0. -1.
    9900012    2    1    2    0    0 -0.36826590544E+02 -0.22932152279E+02 -0.12417000063E+01  0.47787271917E+02  0.20000003978E+02 0.  0.
         12    1    1    2    0    0  0.36826590544E+02  0.22932152279E+02  0.12417000063E+01  0.43400728083E+02  0.00000000000E+00 0. -1.
         11    1    3    3    0    0  0.97576611649E+00 -0.29334012498E+01 -0.10883067039E+01  0.32774035683E+01  0.51100000000E-03 0. -1.
        -11    1    3    3    0    0 -0.12839411451E+02 -0.22404143398E+01 -0.40020130680E+01  0.13634003509E+02  0.51100000000E-03 0.  1.
        -12    1    3    3    0    0 -0.24962945209E+02 -0.17758336690E+02  0.38486197655E+01  0.30875864840E+02  0.00000000000E+00 0.  1.
</event>
<event>
 7    1  0.2328615E-009  0.4778727E+02  0.7816164E-02  0.1312668E+00
        -11   -1    0    0    0    0  0.00000000000E+00  0.00000000000E+00  0.45593999997E+02  0.45594000000E+02  0.51100000000E-03 0.  1.
         11   -1    0    0    0    0 -0.00000000000E+00 -0.00000000000E+00 -0.45593999997E+02  0.45594000000E+02  0.51100000000E-03 0. -1.
    9900012    2    1    2    0    0  0.18991340987E+02  0.60001570471E+01  0.38561001461E+02  0.47787265550E+02  0.19999974949E+02 0.  0.
         12    1    1    2    0    0 -0.18991340987E+02 -0.60001570471E+01 -0.38561001461E+02  0.43400734450E+02  0.00000000000E+00 0. -1.
         11    1    3    3    0    0  0.34940328673E+01 -0.22316728635E+01  0.10329214648E+01  0.42726521577E+01  0.51100000000E-03 0. -1.
        -11    1    3    3    0    0  0.26726639885E+01  0.71609793590E+01  0.69181071781E+01  0.10309362995E+02  0.51100000000E-03 0.  1.
         12    1    3    3    0    0  0.12824644132E+02  0.10708505516E+01  0.30609972818E+02  0.33205250397E+02  0.00000000000E+00 0. -1.
</event>
<event>
 7    1  0.2328615E-009  0.4778727E+02  0.7816164E-02  0.1312668E+00
        -11   -1    0    0    0    0  0.00000000000E+00  0.00000000000E+00  0.45593999997E+02  0.45594000000E+02  0.51100000000E-03 0.  1.
         11   -1    0    0    0    0 -0.00000000000E+00 -0.00000000000E+00 -0.45593999997E+02  0.45594000000E+02  0.51100000000E-03 0. -1.
    9900012    2    1    2    0    0  0.38474800285E+02  0.29671593666E+01  0.19862256419E+02  0.47787268189E+02  0.19999986982E+02 0.  0.
         12    1    1    2    0    0 -0.38474800285E+02 -0.29671593666E+01 -0.19862256419E+02  0.43400731811E+02  0.00000000000E+00 0. -1.
         11    1    3    3    0    0  0.16139981781E+02 -0.93902714794E+00  0.13742398065E+02  0.21218724955E+02  0.51100000000E-03 0.  1.
        -11    1    3    3    0    0  0.11718498738E+02 -0.41112194642E+01  0.42945276723E+01  0.13140331288E+02  0.51100000000E-03 0. -1.
        -12    1    3    3    0    0  0.10616319765E+02  0.80174059787E+01  0.18253306817E+01  0.13428211946E+02  0.00000000000E+00 0.  1.
</event>
<event>
 7    1  0.2328615E-009  0.4778727E+02  0.7816164E-02  0.1312668E+00
        -11   -1    0    0    0    0  0.00000000000E+00  0.00000000000E+00  0.45593999997E+02  0.45594000000E+02  0.51100000000E-03 0.  1.
         11   -1    0    0    0    0 -0.00000000000E+00 -0.00000000000E+00 -0.45593999997E+02  0.45594000000E+02  0.51100000000E-03 0. -1.
    9900012    2    1    2    0    0 -0.25219387096E+02  0.56534475836E+01  0.34866097261E+02  0.47787266212E+02  0.19999977968E+02 0.  0.
         12    1    1    2    0    0  0.25219387096E+02 -0.56534475836E+01 -0.34866097261E+02  0.43400733788E+02  0.00000000000E+00 0. -1.
         11    1    3    3    0    0 -0.46209236111E+01 -0.37476976030E+01  0.42230484998E+01  0.72960476448E+01  0.51100000000E-03 0. -1.
        -11    1    3    3    0    0 -0.15181293323E+02  0.37411192921E+01  0.10382710594E+02  0.18768812430E+02  0.51100000000E-03 0.  1.
         12    1    3    3    0    0 -0.54171701620E+01  0.56600258945E+01  0.20260338168E+02  0.21722406137E+02  0.00000000000E+00 0. -1.
</event>
<event>
 7    1  0.2328615E-009  0.4778727E+02  0.7816164E-02  0.1312668E+00
        -11   -1    0    0    0    0  0.00000000000E+00  0.00000000000E+00  0.45593999997E+02  0.45594000000E+02  0.51100000000E-03 0.  1.
         11   -1    0    0    0    0 -0.00000000000E+00 -0.00000000000E+00 -0.45593999997E+02  0.45594000000E+02  0.51100000000E-03 0. -1.
    9900012    2    1    2    0    0 -0.38385284084E+02  0.91052246759E+01  0.18091110569E+02  0.47787269220E+02  0.19999991683E+02 0.  0.
         12    1    1    2    0    0  0.38385284084E+02 -0.91052246759E+01 -0.18091110569E+02  0.43400730780E+02  0.00000000000E+00 0. -1.
         11    1    3    3    0    0 -0.21399465904E+02  0.15528055529E+01  0.96168225225E+01  0.23512371674E+02  0.51100000000E-03 0. -1.
        -11    1    3    3    0    0 -0.78193508750E+01 -0.22275906948E+01  0.71112170369E+01  0.10801565461E+02  0.51100000000E-03 0.  1.
         12    1    3    3    0    0 -0.91664673052E+01  0.97800098178E+01  0.13630710098E+01  0.13473332085E+02  0.00000000000E+00 0. -1.
</event>
<event>
 7    1  0.2328615E-009  0.4778727E+02  0.7816164E-02  0.1312668E+00
        -11   -1    0    0    0    0  0.00000000000E+00  0.00000000000E+00  0.45593999997E+02  0.45594000000E+02  0.51100000000E-03 0.  1.
         11   -1    0    0    0    0 -0.00000000000E+00 -0.00000000000E+00 -0.45593999997E+02  0.45594000000E+02  0.51100000000E-03 0. -1.
    9900012    2    1    2    0    0  0.34244298427E+02 -0.76317136306E+01  0.25548162490E+02  0.47787266892E+02  0.19999981067E+02 0.  0.
         12    1    1    2    0    0 -0.34244298427E+02  0.76317136306E+01 -0.25548162490E+02  0.43400733108E+02  0.00000000000E+00 0. -1.
         11    1    3    3    0    0 -0.32405503659E+00  0.79353904207E+00 -0.80582758349E+00  0.11764668433E+01  0.51100000000E-03 0. -1.
        -11    1    3    3    0    0  0.17207859919E+02  0.19198673758E+01  0.71511759797E+01  0.18733276592E+02  0.51100000000E-03 0.  1.
        -12    1    3    3    0    0  0.17360493544E+02 -0.10345120048E+02  0.19202814094E+02  0.27877523456E+02  0.00000000000E+00 0.  1.
</event>
<event>
 7    1  0.2328615E-009  0.4778727E+02  0.7816164E-02  0.1312668E+00
        -11   -1    0    0    0    0  0.00000000000E+00  0.00000000000E+00  0.45593999997E+02  0.45594000000E+02  0.51100000000E-03 0. -1.
         11   -1    0    0    0    0 -0.00000000000E+00 -0.00000000000E+00 -0.45593999997E+02  0.45594000000E+02  0.51100000000E-03 0.  1.
    9900012    2    1    2    0    0 -0.18967412337E+02  0.21912153979E+02 -0.32306628839E+02  0.47787268558E+02  0.19999988662E+02 0.  0.
         12    1    1    2    0    0  0.18967412337E+02 -0.21912153979E+02  0.32306628839E+02  0.43400731442E+02  0.00000000000E+00 0. -1.
         11    1    3    3    0    0 -0.18374928819E+02  0.13732980660E+02 -0.14158932313E+02  0.26957524579E+02  0.51100000000E-03 0. -1.
        -11    1    3    3    0    0 -0.33564720831E+01  0.41331167718E+01 -0.94942701181E+01  0.10885298546E+02  0.51100000000E-03 0.  1.
         12    1    3    3    0    0  0.27639885650E+01  0.40460565480E+01 -0.86534264075E+01  0.99444454329E+01  0.00000000000E+00 0. -1.
</event>
<event>
 7    1  0.2328615E-009  0.4778727E+02  0.7816164E-02  0.1312668E+00
        -11   -1    0    0    0    0  0.00000000000E+00  0.00000000000E+00  0.45593999997E+02  0.45594000000E+02  0.51100000000E-03 0. -1.
         11   -1    0    0    0    0 -0.00000000000E+00 -0.00000000000E+00 -0.45593999997E+02  0.45594000000E+02  0.51100000000E-03 0.  1.
    9900012    2    1    2    0    0 -0.41471956457E+02 -0.14237272931E+01 -0.12715073758E+02  0.47787271061E+02  0.20000000077E+02 0.  0.
         12    1    1    2    0    0  0.41471956457E+02  0.14237272931E+01  0.12715073758E+02  0.43400728939E+02  0.00000000000E+00 0. -1.
         11    1    3    3    0    0 -0.89113685518E+01 -0.22938203988E+01 -0.14235505604E+01  0.93113155863E+01  0.51100000000E-03 0. -1.
        -11    1    3    3    0    0 -0.26978565909E+02  0.67309221301E+01 -0.50621993556E+01  0.28262593544E+02  0.51100000000E-03 0.  1.
        -12    1    3    3    0    0 -0.55820219957E+01 -0.58608290244E+01 -0.62293238420E+01  0.10213361931E+02  0.00000000000E+00 0.  1.
</event>
<event>
 7    1  0.2328615E-009  0.4778728E+02  0.7816164E-02  0.1312668E+00
        -11   -1    0    0    0    0  0.00000000000E+00  0.00000000000E+00  0.45593999997E+02  0.45594000000E+02  0.51100000000E-03 0.  1.
         11   -1    0    0    0    0 -0.00000000000E+00 -0.00000000000E+00 -0.45593999997E+02  0.45594000000E+02  0.51100000000E-03 0. -1.
    9900012    2    1    2    0    0 -0.24862672900E+02  0.87736438453E+01  0.34474534523E+02  0.47787275805E+02  0.20000021707E+02 0.  0.
         12    1    1    2    0    0  0.24862672900E+02 -0.87736438453E+01 -0.34474534523E+02  0.43400724195E+02  0.00000000000E+00 0. -1.
         11    1    3    3    0    0 -0.59271103010E+01  0.46949939883E+01  0.10850534016E+02  0.13225267247E+02  0.51100000000E-03 0. -1.
        -11    1    3    3    0    0  0.17813104759E+01  0.15911493185E+01 -0.72459945175E+00  0.24959703107E+01  0.51100000000E-03 0.  1.
        -12    1    3    3    0    0 -0.20716873075E+02  0.24875005385E+01  0.24348599959E+02  0.32066038247E+02  0.00000000000E+00 0.  1.
</event>
<event>
 7    1  0.2328615E-009  0.4778727E+02  0.7816164E-02  0.1312668E+00
        -11   -1    0    0    0    0  0.00000000000E+00  0.00000000000E+00  0.45593999997E+02  0.45594000000E+02  0.51100000000E-03 0. -1.
         11   -1    0    0    0    0 -0.00000000000E+00 -0.00000000000E+00 -0.45593999997E+02  0.45594000000E+02  0.51100000000E-03 0.  1.
    9900012    2    1    2    0    0  0.24988302735E+02 -0.32188580870E+02 -0.14936634604E+02  0.47787273447E+02  0.20000010954E+02 0.  0.
         12    1    1    2    0    0 -0.24988302735E+02  0.32188580870E+02  0.14936634604E+02  0.43400726553E+02  0.00000000000E+00 0. -1.
         11    1    3    3    0    0  0.11103830164E+02 -0.93611159791E+01 -0.85541915048E+00  0.14548445926E+02  0.51100000000E-03 0. -1.
        -11    1    3    3    0    0  0.21598887691E+01 -0.59793319676E+01  0.25207689523E+01  0.68389916395E+01  0.51100000000E-03 0.  1.
        -12    1    3    3    0    0  0.11724583802E+02 -0.16848132924E+02 -0.16601984406E+02  0.26399835881E+02  0.00000000000E+00 0.  1.
</event>
<event>
 7    1  0.2328615E-009  0.4778727E+02  0.7816164E-02  0.1312668E+00
        -11   -1    0    0    0    0  0.00000000000E+00  0.00000000000E+00  0.45593999997E+02  0.45594000000E+02  0.51100000000E-03 0. -1.
         11   -1    0    0    0    0 -0.00000000000E+00 -0.00000000000E+00 -0.45593999997E+02  0.45594000000E+02  0.51100000000E-03 0.  1.
    9900012    2    1    2    0    0 -0.80567388804E+01  0.21775303998E+02 -0.36668083076E+02  0.47787271641E+02  0.20000002721E+02 0.  0.
         12    1    1    2    0    0  0.80567388804E+01 -0.21775303998E+02  0.36668083076E+02  0.43400728359E+02  0.00000000000E+00 0. -1.
         11    1    3    3    0    0 -0.10905306757E+02  0.88292594281E+01 -0.19376692417E+02  0.23923581396E+02  0.51100000000E-03 0. -1.
        -11    1    3    3    0    0 -0.67965457402E-01  0.34744516039E+01 -0.12272139876E+02  0.12754679558E+02  0.51100000000E-03 0.  1.
        -12    1    3    3    0    0  0.29165333345E+01  0.94715929663E+01 -0.50192507833E+01  0.11109010687E+02  0.00000000000E+00 0.  1.
</event>
<event>
 7    1  0.2328615E-009  0.4778727E+02  0.7816164E-02  0.1312668E+00
        -11   -1    0    0    0    0  0.00000000000E+00  0.00000000000E+00  0.45593999997E+02  0.45594000000E+02  0.51100000000E-03 0. -1.
         11   -1    0    0    0    0 -0.00000000000E+00 -0.00000000000E+00 -0.45593999997E+02  0.45594000000E+02  0.51100000000E-03 0.  1.
    9900012    2    1    2    0    0 -0.35884654117E+02  0.23894109847E+02 -0.49986349816E+01  0.47787271456E+02  0.20000001877E+02 0.  0.
         12    1    1    2    0    0  0.35884654117E+02 -0.23894109847E+02  0.49986349816E+01  0.43400728544E+02  0.00000000000E+00 0. -1.
         11    1    3    3    0    0  0.58200418908E+00  0.89866415787E+00  0.21942389166E+01  0.24415181402E+01  0.51100000000E-03 0. -1.
        -11    1    3    3    0    0 -0.15115426806E+02  0.43840381397E+01  0.12557366941E+01  0.15788375244E+02  0.51100000000E-03 0.  1.
        -12    1    3    3    0    0 -0.21351231500E+02  0.18611407550E+02 -0.84486105923E+01  0.29557378072E+02  0.00000000000E+00 0.  1.
</event>
<event>
 7    1  0.2328615E-009  0.4778728E+02  0.7816164E-02  0.1312668E+00
        -11   -1    0    0    0    0  0.00000000000E+00  0.00000000000E+00  0.45593999997E+02  0.45594000000E+02  0.51100000000E-03 0.  1.
         11   -1    0    0    0    0 -0.00000000000E+00 -0.00000000000E+00 -0.45593999997E+02  0.45594000000E+02  0.51100000000E-03 0. -1.
    9900012    2    1    2    0    0  0.39377798276E+02 -0.33948135489E+01  0.17930057746E+02  0.47787277346E+02  0.20000028732E+02 0.  0.
         12    1    1    2    0    0 -0.39377798276E+02  0.33948135489E+01 -0.17930057746E+02  0.43400722654E+02  0.00000000000E+00 0. -1.
         11    1    3    3    0    0  0.22891443422E+02 -0.79495249697E+01  0.11985785957E+02  0.27034648036E+02  0.51100000000E-03 0. -1.
        -11    1    3    3    0    0  0.15649253911E+02  0.53758339371E+00  0.37579867287E+01  0.16103124181E+02  0.51100000000E-03 0.  1.
         12    1    3    3    0    0  0.83710094303E+00  0.40171280270E+01  0.21862850605E+01  0.46495051285E+01  0.00000000000E+00 0. -1.
</event>
<event>
 7    1  0.2328615E-009  0.4778729E+02  0.7816164E-02  0.1312668E+00
        -11   -1    0    0    0    0  0.00000000000E+00  0.00000000000E+00  0.45593999997E+02  0.45594000000E+02  0.51100000000E-03 0.  1.
         11   -1    0    0    0    0 -0.00000000000E+00 -0.00000000000E+00 -0.45593999997E+02  0.45594000000E+02  0.51100000000E-03 0. -1.
    9900012    2    1    2    0    0 -0.20337093858E+01  0.39050730218E+02  0.18828871305E+02  0.47787286883E+02  0.20000072214E+02 0.  0.
         12    1    1    2    0    0  0.20337093858E+01 -0.39050730218E+02 -0.18828871305E+02  0.43400713117E+02  0.00000000000E+00 0. -1.
         11    1    3    3    0    0  0.27317538051E+01  0.12791202857E+02  0.53212377332E+01  0.14120655815E+02  0.51100000000E-03 0. -1.
        -11    1    3    3    0    0 -0.66823440041E+01  0.27626570944E+02  0.11889391542E+02  0.30809718840E+02  0.51100000000E-03 0.  1.
         12    1    3    3    0    0  0.19168808132E+01 -0.13670435827E+01  0.16182420293E+01  0.28569122273E+01  0.00000000000E+00 0. -1.
</event>
<event>
 7    1  0.2328615E-009  0.4778727E+02  0.7816164E-02  0.1312668E+00
        -11   -1    0    0    0    0  0.00000000000E+00  0.00000000000E+00  0.45593999997E+02  0.45594000000E+02  0.51100000000E-03 0.  1.
         11   -1    0    0    0    0 -0.00000000000E+00 -0.00000000000E+00 -0.45593999997E+02  0.45594000000E+02  0.51100000000E-03 0. -1.
    9900012    2    1    2    0    0  0.49568385406E+01 -0.29582716496E+02  0.31367438484E+02  0.47787267741E+02  0.19999984937E+02 0.  0.
         12    1    1    2    0    0 -0.49568385406E+01  0.29582716496E+02 -0.31367438484E+02  0.43400732259E+02  0.00000000000E+00 0. -1.
         11    1    3    3    0    0 -0.75701016205E+00 -0.73658431342E+01  0.27996410341E+01  0.79162301409E+01  0.51100000000E-03 0. -1.
        -11    1    3    3    0    0  0.46895422342E+01 -0.23444073425E+02  0.29537764667E+02  0.38001262175E+02  0.51100000000E-03 0.  1.
        -12    1    3    3    0    0  0.10243064684E+01  0.12272000630E+01 -0.96996721737E+00  0.18697754247E+01  0.00000000000E+00 0.  1.
</event>
<event>
 7    1  0.2328615E-009  0.4778727E+02  0.7816164E-02  0.1312668E+00
        -11   -1    0    0    0    0  0.00000000000E+00  0.00000000000E+00  0.45593999997E+02  0.45594000000E+02  0.51100000000E-03 0.  1.
         11   -1    0    0    0    0 -0.00000000000E+00 -0.00000000000E+00 -0.45593999997E+02  0.45594000000E+02  0.51100000000E-03 0. -1.
    9900012    2    1    2    0    0  0.17819790556E+02  0.16664594738E+02  0.35893864493E+02  0.47787272339E+02  0.20000005903E+02 0.  0.
         12    1    1    2    0    0 -0.17819790556E+02 -0.16664594738E+02 -0.35893864493E+02  0.43400727661E+02  0.00000000000E+00 0. -1.
         11    1    3    3    0    0  0.30256269440E+01  0.15006255113E+00  0.24039490975E+00  0.30388693863E+01  0.51100000000E-03 0. -1.
        -11    1    3    3    0    0  0.47841017561E+01  0.14260878619E+02  0.13006253774E+02  0.19885243928E+02  0.51100000000E-03 0.  1.
         12    1    3    3    0    0  0.10010061856E+02  0.22536535677E+01  0.22647215809E+02  0.24863159024E+02  0.00000000000E+00 0. -1.
</event>
<event>
 7    1  0.2328615E-009  0.4778727E+02  0.7816164E-02  0.1312668E+00
        -11   -1    0    0    0    0  0.00000000000E+00  0.00000000000E+00  0.45593999997E+02  0.45594000000E+02  0.51100000000E-03 0.  1.
         11   -1    0    0    0    0 -0.00000000000E+00 -0.00000000000E+00 -0.45593999997E+02  0.45594000000E+02  0.51100000000E-03 0. -1.
    9900012    2    1    2    0    0  0.37992347918E+02 -0.20495697420E+02  0.44868161553E+01  0.47787266916E+02  0.19999981175E+02 0.  0.
         12    1    1    2    0    0 -0.37992347918E+02  0.20495697420E+02 -0.44868161553E+01  0.43400733084E+02  0.00000000000E+00 0. -1.
         11    1    3    3    0    0  0.12981731177E+02 -0.57268465722E+01 -0.19611870052E+00  0.14190157815E+02  0.51100000000E-03 0. -1.
        -11    1    3    3    0    0  0.24138150450E+02 -0.17869010405E+02  0.45363778638E+01  0.30373188248E+02  0.51100000000E-03 0.  1.
         12    1    3    3    0    0  0.87246629109E+00  0.31001595570E+01  0.14655699204E+00  0.32239208520E+01  0.00000000000E+00 0. -1.
</event>
<event>
 7    1  0.2328615E-009  0.4778727E+02  0.7816164E-02  0.1312668E+00
        -11   -1    0    0    0    0  0.00000000000E+00  0.00000000000E+00  0.45593999997E+02  0.45594000000E+02  0.51100000000E-03 0.  1.
         11   -1    0    0    0    0 -0.00000000000E+00 -0.00000000000E+00 -0.45593999997E+02  0.45594000000E+02  0.51100000000E-03 0. -1.
    9900012    2    1    2    0    0  0.42236257017E+01 -0.26365666351E+02  0.34214552066E+02  0.47787274784E+02  0.20000017050E+02 0.  0.
         12    1    1    2    0    0 -0.42236257017E+01  0.26365666351E+02 -0.34214552066E+02  0.43400725216E+02  0.00000000000E+00 0. -1.
         11    1    3    3    0    0 -0.21227628646E+01 -0.83414778778E+01  0.32741418563E+01  0.92090379803E+01  0.51100000000E-03 0. -1.
        -11    1    3    3    0    0  0.49606323383E+01 -0.44628923121E+01  0.26591999967E+01  0.71830791357E+01  0.51100000000E-03 0.  1.
        -12    1    3    3    0    0  0.13857562279E+01 -0.13561296161E+02  0.28281210213E+02  0.31395157668E+02  0.00000000000E+00 0.  1.
</event>
<event>
 7    1  0.2328615E-009  0.4778725E+02  0.7816164E-02  0.1312668E+00
        -11   -1    0    0    0    0  0.00000000000E+00  0.00000000000E+00  0.45593999997E+02  0.45594000000E+02  0.51100000000E-03 0.  1.
         11   -1    0    0    0    0 -0.00000000000E+00 -0.00000000000E+00 -0.45593999997E+02  0.45594000000E+02  0.51100000000E-03 0. -1.
    9900012    2    1    2    0    0 -0.11392783181E+02 -0.39426803066E+02  0.14119384650E+02  0.47787247339E+02  0.19999891919E+02 0.  0.
         12    1    1    2    0    0  0.11392783181E+02  0.39426803066E+02 -0.14119384650E+02  0.43400752661E+02  0.00000000000E+00 0. -1.
         11    1    3    3    0    0  0.30205828126E+00 -0.59205674204E+00 -0.20282928828E+01  0.21344185790E+01  0.51100000000E-03 0. -1.
        -11    1    3    3    0    0 -0.10448556005E+01 -0.12750944851E+01 -0.20074088015E+01  0.25975526038E+01  0.51100000000E-03 0.  1.
        -12    1    3    3    0    0 -0.10649985862E+02 -0.37559651839E+02  0.18155086334E+02  0.43055276157E+02  0.00000000000E+00 0.  1.
</event>
<event>
 7    1  0.2328615E-009  0.4778727E+02  0.7816164E-02  0.1312668E+00
        -11   -1    0    0    0    0  0.00000000000E+00  0.00000000000E+00  0.45593999997E+02  0.45594000000E+02  0.51100000000E-03 0.  1.
         11   -1    0    0    0    0 -0.00000000000E+00 -0.00000000000E+00 -0.45593999997E+02  0.45594000000E+02  0.51100000000E-03 0. -1.
    9900012    2    1    2    0    0 -0.14137840750E+02 -0.48589484657E+01  0.40744760458E+02  0.47787269291E+02  0.19999992006E+02 0.  0.
         12    1    1    2    0    0  0.14137840750E+02  0.48589484657E+01 -0.40744760458E+02  0.43400730709E+02  0.00000000000E+00 0. -1.
         11    1    3    3    0    0 -0.17760000800E+01 -0.88050758899E+01  0.28556663026E+02  0.29936040840E+02  0.51100000000E-03 0. -1.
        -11    1    3    3    0    0 -0.20624585890E+01  0.11844035123E+01  0.23208464274E+01  0.33230822307E+01  0.51100000000E-03 0.  1.
         12    1    3    3    0    0 -0.10299382081E+02  0.27617239118E+01  0.98672510042E+01  0.14528146220E+02  0.00000000000E+00 0. -1.
</event>
<event>
 7    1  0.2570535E-009  0.4778733E+02  0.7816164E-02  0.1312667E+00
        -11   -1    0    0    0    0  0.00000000000E+00  0.00000000000E+00  0.45593999997E+02  0.45594000000E+02  0.51100000000E-03 0. -1.
         11   -1    0    0    0    0 -0.00000000000E+00 -0.00000000000E+00 -0.45593999997E+02  0.45594000000E+02  0.51100000000E-03 0.  1.
    9900012    2    1    2    0    0  0.29155210131E+02  0.20988735753E+02 -0.24352922657E+02  0.47787330094E+02  0.20000269231E+02 0.  0.
         12    1    1    2    0    0 -0.29155210131E+02 -0.20988735753E+02  0.24352922657E+02  0.43400669906E+02  0.00000000000E+00 0. -1.
         11    1    3    3    0    0  0.23891789811E+01  0.57116281060E+01  0.65960028699E+00  0.62262303703E+01  0.51100000000E-03 0. -1.
        -11    1    3    3    0    0  0.13417977983E+02  0.14542885352E+02 -0.15875579511E+02  0.25368714445E+02  0.51100000000E-03 0.  1.
        -12    1    3    3    0    0  0.13348053167E+02  0.73422229482E+00 -0.91369434325E+01  0.16192385279E+02  0.00000000000E+00 0.  1.
</event>
<event>
 7    1  0.2328615E-009  0.4778727E+02  0.7816164E-02  0.1312668E+00
        -11   -1    0    0    0    0  0.00000000000E+00  0.00000000000E+00  0.45593999997E+02  0.45594000000E+02  0.51100000000E-03 0.  1.
         11   -1    0    0    0    0 -0.00000000000E+00 -0.00000000000E+00 -0.45593999997E+02  0.45594000000E+02  0.51100000000E-03 0. -1.
    9900012    2    1    2    0    0 -0.40205714847E+02  0.12650095331E+02  0.10348849817E+02  0.47787272924E+02  0.20000008568E+02 0.  0.
         12    1    1    2    0    0  0.40205714847E+02 -0.12650095331E+02 -0.10348849817E+02  0.43400727076E+02  0.00000000000E+00 0. -1.
         11    1    3    3    0    0 -0.22816727862E+02  0.59431574815E+01  0.27146693691E+01  0.23733807559E+02  0.51100000000E-03 0. -1.
        -11    1    3    3    0    0 -0.18248478577E+02  0.46918080183E+01  0.32057100549E+01  0.19112734239E+02  0.51100000000E-03 0.  1.
         12    1    3    3    0    0  0.85949159322E+00  0.20151298316E+01  0.44284703930E+01  0.49407311259E+01  0.00000000000E+00 0. -1.
</event>
<event>
 7    1  0.2328615E-009  0.4778727E+02  0.7816164E-02  0.1312668E+00
        -11   -1    0    0    0    0  0.00000000000E+00  0.00000000000E+00  0.45593999997E+02  0.45594000000E+02  0.51100000000E-03 0.  1.
         11   -1    0    0    0    0 -0.00000000000E+00 -0.00000000000E+00 -0.45593999997E+02  0.45594000000E+02  0.51100000000E-03 0. -1.
    9900012    2    1    2    0    0  0.26562496082E+02 -0.26567830387E+01  0.34219857183E+02  0.47787270515E+02  0.19999997584E+02 0.  0.
         12    1    1    2    0    0 -0.26562496082E+02  0.26567830387E+01 -0.34219857183E+02  0.43400729485E+02  0.00000000000E+00 0. -1.
         11    1    3    3    0    0  0.12042619924E+02 -0.27122946360E+01  0.19050695326E+02  0.22700445579E+02  0.51100000000E-03 0. -1.
        -11    1    3    3    0    0  0.28811092647E+01  0.40879420632E+01  0.10998825408E+02  0.12082475803E+02  0.51100000000E-03 0.  1.
         12    1    3    3    0    0  0.11638766894E+02 -0.40324304658E+01  0.41703364493E+01  0.13004349133E+02  0.00000000000E+00 0. -1.
</event>
<event>
 7    1  0.2328615E-009  0.4778727E+02  0.7816164E-02  0.1312668E+00
        -11   -1    0    0    0    0  0.00000000000E+00  0.00000000000E+00  0.45593999997E+02  0.45594000000E+02  0.51100000000E-03 0.  1.
         11   -1    0    0    0    0 -0.00000000000E+00 -0.00000000000E+00 -0.45593999997E+02  0.45594000000E+02  0.51100000000E-03 0. -1.
    9900012    2    1    2    0    0 -0.30342391000E+01 -0.19416031263E+02  0.38696700205E+02  0.47787268627E+02  0.19999988978E+02 0.  0.
         12    1    1    2    0    0  0.30342391000E+01  0.19416031263E+02 -0.38696700205E+02  0.43400731373E+02  0.00000000000E+00 0. -1.
         11    1    3    3    0    0 -0.26465653269E+01 -0.15914209538E+02  0.22588573411E+02  0.27758062293E+02  0.51100000000E-03 0. -1.
        -11    1    3    3    0    0 -0.58389927955E+01 -0.16658191870E+01  0.71138745847E+01  0.93528606479E+01  0.51100000000E-03 0.  1.
        -12    1    3    3    0    0  0.54513190224E+01 -0.18360025381E+01  0.89942522098E+01  0.10676345686E+02  0.00000000000E+00 0.  1.
</event>
<event>
 7    1  0.2328615E-009  0.4778727E+02  0.7816164E-02  0.1312668E+00
        -11   -1    0    0    0    0  0.00000000000E+00  0.00000000000E+00  0.45593999997E+02  0.45594000000E+02  0.51100000000E-03 0.  1.
         11   -1    0    0    0    0 -0.00000000000E+00 -0.00000000000E+00 -0.45593999997E+02  0.45594000000E+02  0.51100000000E-03 0. -1.
    9900012    2    1    2    0    0  0.65915783985E+01  0.14779948095E+02  0.40270682425E+02  0.47787266891E+02  0.19999981062E+02 0.  0.
         12    1    1    2    0    0 -0.65915783985E+01 -0.14779948095E+02 -0.40270682425E+02  0.43400733109E+02  0.00000000000E+00 0. -1.
         11    1    3    3    0    0 -0.33648630329E+01 -0.28841305210E+01  0.42166868512E+01  0.61172673928E+01  0.51100000000E-03 0. -1.
        -11    1    3    3    0    0  0.33376923695E+01  0.20250416474E+01  0.63379098294E+01  0.74437950868E+01  0.51100000000E-03 0.  1.
         12    1    3    3    0    0  0.66187490619E+01  0.15639036968E+02  0.29716085744E+02  0.34226204411E+02  0.00000000000E+00 0. -1.
</event>
<event>
 7    1  0.2328615E-009  0.4778728E+02  0.7816164E-02  0.1312668E+00
        -11   -1    0    0    0    0  0.00000000000E+00  0.00000000000E+00  0.45593999997E+02  0.45594000000E+02  0.51100000000E-03 0.  1.
         11   -1    0    0    0    0 -0.00000000000E+00 -0.00000000000E+00 -0.45593999997E+02  0.45594000000E+02  0.51100000000E-03 0. -1.
    9900012    2    1    2    0    0  0.24577160071E+02  0.23558726473E+02  0.26917884208E+02  0.47787275577E+02  0.20000020668E+02 0.  0.
         12    1    1    2    0    0 -0.24577160071E+02 -0.23558726473E+02 -0.26917884208E+02  0.43400724423E+02  0.00000000000E+00 0. -1.
         11    1    3    3    0    0 -0.76482897704E+00  0.28618010727E+01  0.98657662883E+00  0.31222111475E+01  0.51100000000E-03 0. -1.
        -11    1    3    3    0    0  0.17742469790E+02  0.21315583323E+02  0.24287882819E+02  0.36865303183E+02  0.51100000000E-03 0.  1.
         12    1    3    3    0    0  0.75995192572E+01 -0.61865792310E+00  0.16434247603E+01  0.77997612469E+01  0.00000000000E+00 0. -1.
</event>
<event>
 7    1  0.2328615E-009  0.4778727E+02  0.7816164E-02  0.1312668E+00
        -11   -1    0    0    0    0  0.00000000000E+00  0.00000000000E+00  0.45593999997E+02  0.45594000000E+02  0.51100000000E-03 0.  1.
         11   -1    0    0    0    0 -0.00000000000E+00 -0.00000000000E+00 -0.45593999997E+02  0.45594000000E+02  0.51100000000E-03 0. -1.
    9900012    2    1    2    0    0 -0.21462176829E+02 -0.11667357039E+02  0.35872982449E+02  0.47787272767E+02  0.20000007855E+02 0.  0.
         12    1    1    2    0    0  0.21462176829E+02  0.11667357039E+02 -0.35872982449E+02  0.43400727233E+02  0.00000000000E+00 0. -1.
         11    1    3    3    0    0 -0.11651687955E+02 -0.65194978664E+01  0.11369599844E+02  0.17536632673E+02  0.51100000000E-03 0. -1.
        -11    1    3    3    0    0 -0.10933671944E+01 -0.62806108179E+01  0.30518712025E+01  0.70679163949E+01  0.51100000000E-03 0.  1.
        -12    1    3    3    0    0 -0.87171216801E+01  0.11327516448E+01  0.21451511403E+02  0.23182723700E+02  0.00000000000E+00 0.  1.
</event>
<event>
 7    1  0.2328615E-009  0.4778727E+02  0.7816164E-02  0.1312668E+00
        -11   -1    0    0    0    0  0.00000000000E+00  0.00000000000E+00  0.45593999997E+02  0.45594000000E+02  0.51100000000E-03 0.  1.
         11   -1    0    0    0    0 -0.00000000000E+00 -0.00000000000E+00 -0.45593999997E+02  0.45594000000E+02  0.51100000000E-03 0. -1.
    9900012    2    1    2    0    0  0.98472656732E+01 -0.13290122129E+02  0.40125146131E+02  0.47787270289E+02  0.19999996555E+02 0.  0.
         12    1    1    2    0    0 -0.98472656732E+01  0.13290122129E+02 -0.40125146131E+02  0.43400729711E+02  0.00000000000E+00 0. -1.
         11    1    3    3    0    0  0.86485108877E+00 -0.95884331683E+00  0.17422696548E+02  0.17470480908E+02  0.51100000000E-03 0. -1.
        -11    1    3    3    0    0  0.24544636313E+01  0.21386080573E+01  0.95619854588E+00  0.33929857148E+01  0.51100000000E-03 0.  1.
        -12    1    3    3    0    0  0.65279509531E+01 -0.14469886869E+02  0.21746251038E+02  0.26923803666E+02  0.00000000000E+00 0.  1.
</event>
<event>
 7    1  0.2328615E-009  0.4778727E+02  0.7816164E-02  0.1312668E+00
        -11   -1    0    0    0    0  0.00000000000E+00  0.00000000000E+00  0.45593999997E+02  0.45594000000E+02  0.51100000000E-03 0.  1.
         11   -1    0    0    0    0 -0.00000000000E+00 -0.00000000000E+00 -0.45593999997E+02  0.45594000000E+02  0.51100000000E-03 0. -1.
    9900012    2    1    2    0    0  0.21950548100E+02  0.41067674949E-01  0.37440550778E+02  0.47787273151E+02  0.20000009605E+02 0.  0.
         12    1    1    2    0    0 -0.21950548100E+02 -0.41067674949E-01 -0.37440550778E+02  0.43400726849E+02  0.00000000000E+00 0. -1.
         11    1    3    3    0    0  0.89564211050E+01  0.39868427550E+01  0.42938930758E+01  0.10702799268E+02  0.51100000000E-03 0. -1.
        -11    1    3    3    0    0  0.58158415008E+01  0.29766721174E+01  0.10957701871E+02  0.12757578917E+02  0.51100000000E-03 0.  1.
        -12    1    3    3    0    0  0.71782854939E+01 -0.69224471974E+01  0.22188955831E+02  0.24326894966E+02  0.00000000000E+00 0.  1.
</event>
<event>
 7    1  0.2328615E-009  0.4778727E+02  0.7816164E-02  0.1312668E+00
        -11   -1    0    0    0    0  0.00000000000E+00  0.00000000000E+00  0.45593999997E+02  0.45594000000E+02  0.51100000000E-03 0.  1.
         11   -1    0    0    0    0 -0.00000000000E+00 -0.00000000000E+00 -0.45593999997E+02  0.45594000000E+02  0.51100000000E-03 0. -1.
    9900012    2    1    2    0    0 -0.19606023386E+02 -0.11480731611E+02  0.36978641016E+02  0.47787271403E+02  0.20000001635E+02 0.  0.
         12    1    1    2    0    0  0.19606023386E+02  0.11480731611E+02 -0.36978641016E+02  0.43400728597E+02  0.00000000000E+00 0. -1.
         11    1    3    3    0    0  0.73836498959E+00 -0.63465013680E+00 -0.87885672840E+00  0.13116223024E+01  0.51100000000E-03 0. -1.
        -11    1    3    3    0    0 -0.59858473204E+01  0.70630433121E+00  0.19711750743E+02  0.20612674537E+02  0.51100000000E-03 0.  1.
        -12    1    3    3    0    0 -0.14358541055E+02 -0.11552385805E+02  0.18145747002E+02  0.25862974564E+02  0.00000000000E+00 0.  1.
</event>
<event>
 7    1  0.2328615E-009  0.4778727E+02  0.7816164E-02  0.1312668E+00
        -11   -1    0    0    0    0  0.00000000000E+00  0.00000000000E+00  0.45593999997E+02  0.45594000000E+02  0.51100000000E-03 0.  1.
         11   -1    0    0    0    0 -0.00000000000E+00 -0.00000000000E+00 -0.45593999997E+02  0.45594000000E+02  0.51100000000E-03 0. -1.
    9900012    2    1    2    0    0 -0.11717104595E+02  0.26134711594E+02  0.32608424872E+02  0.47787273476E+02  0.20000011087E+02 0.  0.
         12    1    1    2    0    0  0.11717104595E+02 -0.26134711594E+02 -0.32608424872E+02  0.43400726524E+02  0.00000000000E+00 0. -1.
         11    1    3    3    0    0 -0.48489774698E+01  0.13176498078E+02  0.15919029983E+02  0.21226120700E+02  0.51100000000E-03 0.  1.
        -11    1    3    3    0    0 -0.10612053081E+02  0.57221024854E+01  0.12622422317E+02  0.17455190427E+02  0.51100000000E-03 0. -1.
         12    1    3    3    0    0  0.37439259554E+01  0.72361110305E+01  0.40669725716E+01  0.91059623491E+01  0.00000000000E+00 0. -1.
</event>
<event>
 7    1  0.2328615E-009  0.4778727E+02  0.7816164E-02  0.1312668E+00
        -11   -1    0    0    0    0  0.00000000000E+00  0.00000000000E+00  0.45593999997E+02  0.45594000000E+02  0.51100000000E-03 0.  1.
         11   -1    0    0    0    0 -0.00000000000E+00 -0.00000000000E+00 -0.45593999997E+02  0.45594000000E+02  0.51100000000E-03 0. -1.
    9900012    2    1    2    0    0  0.19555085793E+02 -0.26879757298E+02  0.27905211834E+02  0.47787267515E+02  0.19999983907E+02 0.  0.
         12    1    1    2    0    0 -0.19555085793E+02  0.26879757298E+02 -0.27905211834E+02  0.43400732485E+02  0.00000000000E+00 0. -1.
         11    1    3    3    0    0 -0.32502711117E+00 -0.21910568070E+01 -0.25112447078E+01  0.33485403982E+01  0.51100000000E-03 0. -1.
        -11    1    3    3    0    0  0.57783459861E+01 -0.29548211454E+01  0.60320795754E+01  0.88603744053E+01  0.51100000000E-03 0.  1.
         12    1    3    3    0    0  0.14101766918E+02 -0.21733879346E+02  0.24384376966E+02  0.35578352711E+02  0.00000000000E+00 0. -1.
</event>
<event>
 7    1  0.2328615E-009  0.4778728E+02  0.7816164E-02  0.1312668E+00
        -11   -1    0    0    0    0  0.00000000000E+00  0.00000000000E+00  0.45593999997E+02  0.45594000000E+02  0.51100000000E-03 0.  1.
         11   -1    0    0    0    0 -0.00000000000E+00 -0.00000000000E+00 -0.45593999997E+02  0.45594000000E+02  0.51100000000E-03 0. -1.
    9900012    2    1    2    0    0 -0.35206007591E+02 -0.23724350821E+02  0.90174672523E+01  0.47787279867E+02  0.20000040227E+02 0.  0.
         12    1    1    2    0    0  0.35206007591E+02  0.23724350821E+02 -0.90174672523E+01  0.43400720133E+02  0.00000000000E+00 0. -1.
         11    1    3    3    0    0 -0.86981036111E+01 -0.12379826256E+02  0.55055182342E+01  0.16100553899E+02  0.51100000000E-03 0. -1.
        -11    1    3    3    0    0 -0.70299493168E+01 -0.82607626508E+01  0.49306869638E+01  0.11915202943E+02  0.51100000000E-03 0.  1.
        -12    1    3    3    0    0 -0.19477954663E+02 -0.30837619143E+01 -0.14187379458E+01  0.19771523026E+02  0.00000000000E+00 0.  1.
</event>
<event>
 7    1  0.2328615E-009  0.4778727E+02  0.7816164E-02  0.1312668E+00
        -11   -1    0    0    0    0  0.00000000000E+00  0.00000000000E+00  0.45593999997E+02  0.45594000000E+02  0.51100000000E-03 0.  1.
         11   -1    0    0    0    0 -0.00000000000E+00 -0.00000000000E+00 -0.45593999997E+02  0.45594000000E+02  0.51100000000E-03 0. -1.
    9900012    2    1    2    0    0  0.15568996321E+02  0.12452760122E+02  0.38550722742E+02  0.47787272989E+02  0.20000008868E+02 0.  0.
         12    1    1    2    0    0 -0.15568996321E+02 -0.12452760122E+02 -0.38550722742E+02  0.43400727011E+02  0.00000000000E+00 0. -1.
         11    1    3    3    0    0  0.36599244330E+01 -0.35864207709E+01  0.62346353991E+01  0.80702007175E+01  0.51100000000E-03 0. -1.
        -11    1    3    3    0    0  0.44943904019E+01  0.82082345053E+01  0.24976590460E+02  0.26672171454E+02  0.51100000000E-03 0.  1.
        -12    1    3    3    0    0  0.74146814857E+01  0.78309463876E+01  0.73394968830E+01  0.13044900818E+02  0.00000000000E+00 0.  1.
</event>
<event>
 7    1  0.2328615E-009  0.4778727E+02  0.7816164E-02  0.1312668E+00
        -11   -1    0    0    0    0  0.00000000000E+00  0.00000000000E+00  0.45593999997E+02  0.45594000000E+02  0.51100000000E-03 0. -1.
         11   -1    0    0    0    0 -0.00000000000E+00 -0.00000000000E+00 -0.45593999997E+02  0.45594000000E+02  0.51100000000E-03 0.  1.
    9900012    2    1    2    0    0  0.33952258881E+02 -0.26213306028E+02 -0.66128911422E+01  0.47787266996E+02  0.19999981541E+02 0.  0.
         12    1    1    2    0    0 -0.33952258881E+02  0.26213306028E+02  0.66128911422E+01  0.43400733004E+02  0.00000000000E+00 0. -1.
         11    1    3    3    0    0  0.22075245434E+01  0.15772068930E+01 -0.70487349890E+00  0.28031398652E+01  0.51100000000E-03 0. -1.
        -11    1    3    3    0    0  0.15147123942E+02 -0.70923293950E+01  0.30107125922E+01  0.16994142830E+02  0.51100000000E-03 0.  1.
        -12    1    3    3    0    0  0.16597610395E+02 -0.20698183526E+02 -0.89187302355E+01  0.27989984300E+02  0.00000000000E+00 0.  1.
</event>
<event>
 7    1  0.2328615E-009  0.4778727E+02  0.7816164E-02  0.1312668E+00
        -11   -1    0    0    0    0  0.00000000000E+00  0.00000000000E+00  0.45593999997E+02  0.45594000000E+02  0.51100000000E-03 0.  1.
         11   -1    0    0    0    0 -0.00000000000E+00 -0.00000000000E+00 -0.45593999997E+02  0.45594000000E+02  0.51100000000E-03 0. -1.
    9900012    2    1    2    0    0  0.38883353691E+02  0.80052303985E+01  0.17539235395E+02  0.47787266294E+02  0.19999978341E+02 0.  0.
         12    1    1    2    0    0 -0.38883353691E+02 -0.80052303985E+01 -0.17539235395E+02  0.43400733706E+02  0.00000000000E+00 0. -1.
         11    1    3    3    0    0  0.27681515352E+01  0.30587477578E+01  0.54179581116E+01  0.68097629274E+01  0.51100000000E-03 0. -1.
        -11    1    3    3    0    0  0.81934413775E+01  0.67323072620E+01  0.31361485231E+00  0.10609184569E+02  0.51100000000E-03 0.  1.
         12    1    3    3    0    0  0.27921760778E+02 -0.17858246212E+01  0.11807662431E+02  0.30368318798E+02  0.00000000000E+00 0. -1.
</event>
<event>
 7    1  0.2328615E-009  0.4778727E+02  0.7816164E-02  0.1312668E+00
        -11   -1    0    0    0    0  0.00000000000E+00  0.00000000000E+00  0.45593999997E+02  0.45594000000E+02  0.51100000000E-03 0. -1.
         11   -1    0    0    0    0 -0.00000000000E+00 -0.00000000000E+00 -0.45593999997E+02  0.45594000000E+02  0.51100000000E-03 0.  1.
    9900012    2    1    2    0    0 -0.30330857969E+02 -0.24630071545E+02 -0.18895025038E+02  0.47787270275E+02  0.19999996494E+02 0.  0.
         12    1    1    2    0    0  0.30330857969E+02  0.24630071545E+02  0.18895025038E+02  0.43400729725E+02  0.00000000000E+00 0. -1.
         11    1    3    3    0    0 -0.39882942221E+01 -0.89142642373E+01  0.14714354838E+01  0.98760174330E+01  0.51100000000E-03 0. -1.
        -11    1    3    3    0    0 -0.73496832816E+01 -0.94270310742E+01 -0.81929220334E+01  0.14491746993E+02  0.51100000000E-03 0.  1.
        -12    1    3    3    0    0 -0.18992880466E+02 -0.62887762333E+01 -0.12173538488E+02  0.23419505849E+02  0.00000000000E+00 0.  1.
</event>
<event>
 7    1  0.2328615E-009  0.4778727E+02  0.7816164E-02  0.1312668E+00
        -11   -1    0    0    0    0  0.00000000000E+00  0.00000000000E+00  0.45593999997E+02  0.45594000000E+02  0.51100000000E-03 0.  1.
         11   -1    0    0    0    0 -0.00000000000E+00 -0.00000000000E+00 -0.45593999997E+02  0.45594000000E+02  0.51100000000E-03 0. -1.
    9900012    2    1    2    0    0  0.15014174086E+02  0.15460159234E+01  0.40691615827E+02  0.47787272041E+02  0.20000004545E+02 0.  0.
         12    1    1    2    0    0 -0.15014174086E+02 -0.15460159234E+01 -0.40691615827E+02  0.43400727959E+02  0.00000000000E+00 0. -1.
         11    1    3    3    0    0  0.73025455469E+01 -0.75706694049E+01  0.16594593279E+02  0.19647461237E+02  0.51100000000E-03 0. -1.
        -11    1    3    3    0    0  0.47072724030E+01 -0.22884043143E+00  0.80726189603E+01  0.93476178012E+01  0.51100000000E-03 0.  1.
        -12    1    3    3    0    0  0.30043561364E+01  0.93455257597E+01  0.16024403588E+02  0.18792193003E+02  0.00000000000E+00 0.  1.
</event>
<event>
 7    1  0.2328615E-009  0.4778728E+02  0.7816164E-02  0.1312668E+00
        -11   -1    0    0    0    0  0.00000000000E+00  0.00000000000E+00  0.45593999997E+02  0.45594000000E+02  0.51100000000E-03 0. -1.
         11   -1    0    0    0    0 -0.00000000000E+00 -0.00000000000E+00 -0.45593999997E+02  0.45594000000E+02  0.51100000000E-03 0.  1.
    9900012    2    1    2    0    0  0.19481221561E+02  0.34918197383E+02 -0.16876739250E+02  0.47787276162E+02  0.20000023333E+02 0.  0.
         12    1    1    2    0    0 -0.19481221561E+02 -0.34918197383E+02  0.16876739250E+02  0.43400723838E+02  0.00000000000E+00 0. -1.
         11    1    3    3    0    0  0.48394037219E+01  0.19857851851E+02 -0.40525260075E+01  0.20836916179E+02  0.51100000000E-03 0. -1.
        -11    1    3    3    0    0  0.27758025150E+01  0.96228990193E+01 -0.86871601480E+01  0.13257903938E+02  0.51100000000E-03 0.  1.
        -12    1    3    3    0    0  0.11866015324E+02  0.54374465120E+01 -0.41370530940E+01  0.13692456045E+02  0.00000000000E+00 0.  1.
</event>
<event>
 7    1  0.2328615E-009  0.4778728E+02  0.7816164E-02  0.1312668E+00
        -11   -1    0    0    0    0  0.00000000000E+00  0.00000000000E+00  0.45593999997E+02  0.45594000000E+02  0.51100000000E-03 0.  1.
         11   -1    0    0    0    0 -0.00000000000E+00 -0.00000000000E+00 -0.45593999997E+02  0.45594000000E+02  0.51100000000E-03 0. -1.
    9900012    2    1    2    0    0  0.35787601466E+02  0.23056903552E+02  0.84409541406E+01  0.47787275042E+02  0.20000018226E+02 0.  0.
         12    1    1    2    0    0 -0.35787601466E+02 -0.23056903552E+02 -0.84409541406E+01  0.43400724958E+02  0.00000000000E+00 0. -1.
         11    1    3    3    0    0  0.18119063256E+02  0.79210914942E+01  0.58970616917E+01  0.20635393880E+02  0.51100000000E-03 0. -1.
        -11    1    3    3    0    0  0.11770741720E+02  0.15370952429E+01 -0.99622285722E+00  0.11912408768E+02  0.51100000000E-03 0.  1.
         12    1    3    3    0    0  0.58977964903E+01  0.13598716815E+02  0.35401153061E+01  0.15239472393E+02  0.00000000000E+00 0. -1.
</event>
<event>
 7    1  0.2328615E-009  0.4778728E+02  0.7816164E-02  0.1312668E+00
        -11   -1    0    0    0    0  0.00000000000E+00  0.00000000000E+00  0.45593999997E+02  0.45594000000E+02  0.51100000000E-03 0. -1.
         11   -1    0    0    0    0 -0.00000000000E+00 -0.00000000000E+00 -0.45593999997E+02  0.45594000000E+02  0.51100000000E-03 0.  1.
    9900012    2    1    2    0    0  0.17528034578E+02 -0.46017595502E+01 -0.39436203563E+02  0.47787281819E+02  0.20000049125E+02 0.  0.
         12    1    1    2    0    0 -0.17528034578E+02  0.46017595502E+01  0.39436203563E+02  0.43400718181E+02  0.00000000000E+00 0. -1.
         11    1    3    3    0    0  0.35588466676E+01  0.70342014027E+01 -0.72627899717E+01  0.10718838436E+02  0.51100000000E-03 0. -1.
        -11    1    3    3    0    0  0.52717391830E+01 -0.32135301715E+01 -0.88635906287E+01  0.10801909520E+02  0.51100000000E-03 0.  1.
         12    1    3    3    0    0  0.86974487279E+01 -0.84224307814E+01 -0.23309822963E+02  0.26266533863E+02  0.00000000000E+00 0. -1.
</event>
<event>
 7    1  0.2328615E-009  0.4778727E+02  0.7816164E-02  0.1312668E+00
        -11   -1    0    0    0    0  0.00000000000E+00  0.00000000000E+00  0.45593999997E+02  0.45594000000E+02  0.51100000000E-03 0. -1.
         11   -1    0    0    0    0 -0.00000000000E+00 -0.00000000000E+00 -0.45593999997E+02  0.45594000000E+02  0.51100000000E-03 0.  1.
    9900012    2    1    2    0    0 -0.25483734824E+02  0.32513172214E+02 -0.13307754147E+02  0.47787269264E+02  0.19999991882E+02 0.  0.
         12    1    1    2    0    0  0.25483734824E+02 -0.32513172214E+02  0.13307754147E+02  0.43400730736E+02  0.00000000000E+00 0. -1.
         11    1    3    3    0    0 -0.52839186266E+00  0.12486934467E+02 -0.62607676605E+01  0.13978552940E+02  0.51100000000E-03 0. -1.
        -11    1    3    3    0    0 -0.29029032830E+01 -0.44747693054E+00 -0.17279201617E+00  0.29422679035E+01  0.51100000000E-03 0.  1.
        -12    1    3    3    0    0 -0.22052439678E+02  0.20473714678E+02 -0.68741944703E+01  0.30866448420E+02  0.00000000000E+00 0.  1.
</event>
<event>
 7    1  0.2328615E-009  0.4778727E+02  0.7816164E-02  0.1312668E+00
        -11   -1    0    0    0    0  0.00000000000E+00  0.00000000000E+00  0.45593999997E+02  0.45594000000E+02  0.51100000000E-03 0. -1.
         11   -1    0    0    0    0 -0.00000000000E+00 -0.00000000000E+00 -0.45593999997E+02  0.45594000000E+02  0.51100000000E-03 0.  1.
    9900012    2    1    2    0    0  0.10435419748E+02 -0.42109466204E+02 -0.12323083088E+01  0.47787265984E+02  0.19999976929E+02 0.  0.
         12    1    1    2    0    0 -0.10435419748E+02  0.42109466204E+02  0.12323083088E+01  0.43400734016E+02  0.00000000000E+00 0. -1.
         11    1    3    3    0    0 -0.41180267871E+00 -0.25111235243E+02 -0.94264621211E+00  0.25132295936E+02  0.51100000000E-03 0.  1.
        -11    1    3    3    0    0 -0.58663328514E+00 -0.48657296602E+01 -0.30271239106E+01  0.57604637980E+01  0.51100000000E-03 0. -1.
        -12    1    3    3    0    0  0.11433855712E+02 -0.12132501301E+02  0.27374618139E+01  0.16894506250E+02  0.00000000000E+00 0.  1.
</event>
<event>
 7    1  0.2328615E-009  0.4778727E+02  0.7816164E-02  0.1312668E+00
        -11   -1    0    0    0    0  0.00000000000E+00  0.00000000000E+00  0.45593999997E+02  0.45594000000E+02  0.51100000000E-03 0. -1.
         11   -1    0    0    0    0 -0.00000000000E+00 -0.00000000000E+00 -0.45593999997E+02  0.45594000000E+02  0.51100000000E-03 0.  1.
    9900012    2    1    2    0    0 -0.10441233137E+02  0.19422773381E+02 -0.37381273504E+02  0.47787273232E+02  0.20000009972E+02 0.  0.
         12    1    1    2    0    0  0.10441233137E+02 -0.19422773381E+02  0.37381273504E+02  0.43400726768E+02  0.00000000000E+00 0. -1.
         11    1    3    3    0    0 -0.27254344443E+01  0.20706248610E+01 -0.32037120236E+01  0.46882034103E+01  0.51100000000E-03 0. -1.
        -11    1    3    3    0    0 -0.40200500791E+00 -0.15987936446E+01 -0.15235444513E+02  0.15324376624E+02  0.51100000000E-03 0.  1.
        -12    1    3    3    0    0 -0.73137936845E+01  0.18950942165E+02 -0.18942116967E+02  0.27774693197E+02  0.00000000000E+00 0.  1.
</event>
<event>
 7    1  0.2328615E-009  0.4778727E+02  0.7816164E-02  0.1312668E+00
        -11   -1    0    0    0    0  0.00000000000E+00  0.00000000000E+00  0.45593999997E+02  0.45594000000E+02  0.51100000000E-03 0.  1.
         11   -1    0    0    0    0 -0.00000000000E+00 -0.00000000000E+00 -0.45593999997E+02  0.45594000000E+02  0.51100000000E-03 0. -1.
    9900012    2    1    2    0    0 -0.39816336975E+02 -0.17777221161E+01  0.17179122720E+02  0.47787271395E+02  0.20000001599E+02 0.  0.
         12    1    1    2    0    0  0.39816336975E+02  0.17777221161E+01 -0.17179122720E+02  0.43400728605E+02  0.00000000000E+00 0. -1.
         11    1    3    3    0    0 -0.14380331422E+02 -0.44119561539E+01  0.67107125129E+01  0.16470973001E+02  0.51100000000E-03 0. -1.
        -11    1    3    3    0    0 -0.24514127929E+02 -0.20782733390E+01  0.97380593976E+01  0.26459242039E+02  0.51100000000E-03 0.  1.
         12    1    3    3    0    0 -0.92187762374E+00  0.47125073768E+01  0.73035080944E+00  0.48570563548E+01  0.00000000000E+00 0. -1.
</event>
<event>
 7    1  0.2328615E-009  0.4778727E+02  0.7816164E-02  0.1312668E+00
        -11   -1    0    0    0    0  0.00000000000E+00  0.00000000000E+00  0.45593999997E+02  0.45594000000E+02  0.51100000000E-03 0.  1.
         11   -1    0    0    0    0 -0.00000000000E+00 -0.00000000000E+00 -0.45593999997E+02  0.45594000000E+02  0.51100000000E-03 0. -1.
    9900012    2    1    2    0    0 -0.89399571904E+01 -0.26614174869E+02  0.33096623408E+02  0.47787267062E+02  0.19999981843E+02 0.  0.
         12    1    1    2    0    0  0.89399571904E+01  0.26614174869E+02 -0.33096623408E+02  0.43400732938E+02  0.00000000000E+00 0. -1.
         11    1    3    3    0    0 -0.74504366798E+01 -0.80722881792E+01  0.63016445040E+01  0.12664184414E+02  0.51100000000E-03 0. -1.
        -11    1    3    3    0    0 -0.50475650895E+01 -0.10292441537E+02  0.71218437936E+01  0.13495663207E+02  0.51100000000E-03 0.  1.
         12    1    3    3    0    0  0.35580445789E+01 -0.82494451526E+01  0.19673135111E+02  0.21627419440E+02  0.00000000000E+00 0. -1.
</event>
<event>
 7    1  0.2328615E-009  0.4778728E+02  0.7816164E-02  0.1312668E+00
        -11   -1    0    0    0    0  0.00000000000E+00  0.00000000000E+00  0.45593999997E+02  0.45594000000E+02  0.51100000000E-03 0.  1.
         11   -1    0    0    0    0 -0.00000000000E+00 -0.00000000000E+00 -0.45593999997E+02  0.45594000000E+02  0.51100000000E-03 0. -1.
    9900012    2    1    2    0    0  0.35363106667E+02 -0.65342476908E+01  0.24297674964E+02  0.47787277487E+02  0.20000029373E+02 0.  0.
         12    1    1    2    0    0 -0.35363106667E+02  0.65342476908E+01 -0.24297674964E+02  0.43400722513E+02  0.00000000000E+00 0. -1.
         11    1    3    3    0    0  0.15809784370E+02 -0.55861111625E+01  0.12060566615E+02  0.20654568189E+02  0.51100000000E-03 0.  1.
        -11    1    3    3    0    0  0.13938169819E+01 -0.97892313882E+00 -0.29852427898E+01  0.34369595671E+01  0.51100000000E-03 0. -1.
        -12    1    3    3    0    0  0.18159505314E+02  0.30786610496E-01  0.15222351139E+02  0.23695749730E+02  0.00000000000E+00 0.  1.
</event>
<event>
 7    1  0.2328615E-009  0.4778727E+02  0.7816164E-02  0.1312668E+00
        -11   -1    0    0    0    0  0.00000000000E+00  0.00000000000E+00  0.45593999997E+02  0.45594000000E+02  0.51100000000E-03 0.  1.
         11   -1    0    0    0    0 -0.00000000000E+00 -0.00000000000E+00 -0.45593999997E+02  0.45594000000E+02  0.51100000000E-03 0. -1.
    9900012    2    1    2    0    0 -0.24058727744E+02  0.26420060864E+02  0.24632933087E+02  0.47787269716E+02  0.19999993942E+02 0.  0.
         12    1    1    2    0    0  0.24058727744E+02 -0.26420060864E+02 -0.24632933087E+02  0.43400730284E+02  0.00000000000E+00 0. -1.
         11    1    3    3    0    0  0.28969379228E+00  0.95449035461E+01  0.12552611229E+02  0.15772037127E+02  0.51100000000E-03 0. -1.
        -11    1    3    3    0    0 -0.44371720853E+01  0.27562856244E+01  0.25351050753E+01  0.58062349730E+01  0.51100000000E-03 0.  1.
         12    1    3    3    0    0 -0.19911249451E+02  0.14118871694E+02  0.95452167828E+01  0.26208997616E+02  0.00000000000E+00 0. -1.
</event>
<event>
 7    1  0.2690470E-009  0.4778727E+02  0.7816164E-02  0.1312668E+00
        -11   -1    0    0    0    0  0.00000000000E+00  0.00000000000E+00  0.45593999997E+02  0.45594000000E+02  0.51100000000E-03 0. -1.
         11   -1    0    0    0    0 -0.00000000000E+00 -0.00000000000E+00 -0.45593999997E+02  0.45594000000E+02  0.51100000000E-03 0.  1.
    9900012    2    1    2    0    0  0.42997913916E+01  0.28887068898E+02 -0.32104082833E+02  0.47787273162E+02  0.20000009654E+02 0.  0.
         12    1    1    2    0    0 -0.42997913916E+01 -0.28887068898E+02  0.32104082833E+02  0.43400726838E+02  0.00000000000E+00 0. -1.
         11    1    3    3    0    0 -0.30192188980E+01  0.21557749355E+01 -0.24102457951E+01  0.44240629946E+01  0.51100000000E-03 0. -1.
        -11    1    3    3    0    0  0.14117964462E+01  0.58042088347E+01 -0.17371079874E+02  0.18369442715E+02  0.51100000000E-03 0.  1.
        -12    1    3    3    0    0  0.59072138434E+01  0.20927085128E+02 -0.12322757164E+02  0.24993767452E+02  0.00000000000E+00 0.  1.
</event>
<event>
 7    1  0.2328615E-009  0.4778727E+02  0.7816164E-02  0.1312668E+00
        -11   -1    0    0    0    0  0.00000000000E+00  0.00000000000E+00  0.45593999997E+02  0.45594000000E+02  0.51100000000E-03 0.  1.
         11   -1    0    0    0    0 -0.00000000000E+00 -0.00000000000E+00 -0.45593999997E+02  0.45594000000E+02  0.51100000000E-03 0. -1.
    9900012    2    1    2    0    0 -0.40450054952E+02 -0.14565363879E+02 -0.59385977046E+01  0.47787265983E+02  0.19999976922E+02 0.  0.
         12    1    1    2    0    0  0.40450054952E+02  0.14565363879E+02  0.59385977046E+01  0.43400734017E+02  0.00000000000E+00 0. -1.
         11    1    3    3    0    0 -0.27997330092E+02 -0.58476181457E+01 -0.11188779658E+02  0.30712113583E+02  0.51100000000E-03 0. -1.
        -11    1    3    3    0    0 -0.22501323161E+01 -0.97551163513E+00 -0.12052439903E+01  0.27326418952E+01  0.51100000000E-03 0.  1.
        -12    1    3    3    0    0 -0.10202592544E+02 -0.77422340981E+01  0.64554259439E+01  0.14342510504E+02  0.00000000000E+00 0.  1.
</event>
<event>
 7    1  0.2328615E-009  0.4778727E+02  0.7816164E-02  0.1312668E+00
        -11   -1    0    0    0    0  0.00000000000E+00  0.00000000000E+00  0.45593999997E+02  0.45594000000E+02  0.51100000000E-03 0.  1.
         11   -1    0    0    0    0 -0.00000000000E+00 -0.00000000000E+00 -0.45593999997E+02  0.45594000000E+02  0.51100000000E-03 0. -1.
    9900012    2    1    2    0    0 -0.26050702856E+02 -0.21473517690E+02  0.27274016666E+02  0.47787273435E+02  0.20000010901E+02 0.  0.
         12    1    1    2    0    0  0.26050702856E+02  0.21473517690E+02 -0.27274016666E+02  0.43400726565E+02  0.00000000000E+00 0. -1.
         11    1    3    3    0    0 -0.12978130893E+02 -0.14182554687E+02  0.19440427980E+02  0.27340573865E+02  0.51100000000E-03 0.  1.
        -11    1    3    3    0    0 -0.11248709789E+02 -0.89205104770E+01  0.24911515011E+01  0.14571026565E+02  0.51100000000E-03 0. -1.
         12    1    3    3    0    0 -0.18238621740E+01  0.16295474748E+01  0.53424371843E+01  0.58756730057E+01  0.00000000000E+00 0. -1.
</event>
<event>
 7    1  0.2755222E-009  0.4778727E+02  0.7816164E-02  0.1312668E+00
        -11   -1    0    0    0    0  0.00000000000E+00  0.00000000000E+00  0.45593999997E+02  0.45594000000E+02  0.51100000000E-03 0. -1.
         11   -1    0    0    0    0 -0.00000000000E+00 -0.00000000000E+00 -0.45593999997E+02  0.45594000000E+02  0.51100000000E-03 0.  1.
    9900012    2    1    2    0    0 -0.26114318287E+02  0.26137633528E+02 -0.22770375064E+02  0.47787268593E+02  0.19999988825E+02 0.  0.
         12    1    1    2    0    0  0.26114318287E+02 -0.26137633528E+02  0.22770375064E+02  0.43400731407E+02  0.00000000000E+00 0. -1.
         11    1    3    3    0    0 -0.57462157342E+01 -0.70279190571E+00 -0.14372033851E+01  0.59647686927E+01  0.51100000000E-03 0.  1.
        -11    1    3    3    0    0 -0.85736616361E+01  0.53890905572E+01 -0.11805546614E+02  0.15553806672E+02  0.51100000000E-03 0. -1.
        -12    1    3    3    0    0 -0.11794440917E+02  0.21451334877E+02 -0.95276250650E+01  0.26268693228E+02  0.00000000000E+00 0.  1.
</event>
<event>
 7    1  0.2328615E-009  0.4778727E+02  0.7816164E-02  0.1312668E+00
        -11   -1    0    0    0    0  0.00000000000E+00  0.00000000000E+00  0.45593999997E+02  0.45594000000E+02  0.51100000000E-03 0.  1.
         11   -1    0    0    0    0 -0.00000000000E+00 -0.00000000000E+00 -0.45593999997E+02  0.45594000000E+02  0.51100000000E-03 0. -1.
    9900012    2    1    2    0    0  0.19932445753E+02 -0.28737788737E+01  0.38445577050E+02  0.47787269667E+02  0.19999993721E+02 0.  0.
         12    1    1    2    0    0 -0.19932445753E+02  0.28737788737E+01 -0.38445577050E+02  0.43400730333E+02  0.00000000000E+00 0. -1.
         11    1    3    3    0    0  0.11571797481E+01  0.13896876647E+01  0.13337575486E+02  0.13459614292E+02  0.51100000000E-03 0. -1.
        -11    1    3    3    0    0 -0.10687898877E+01 -0.33652058251E+01  0.42195846719E+01  0.55019830183E+01  0.51100000000E-03 0.  1.
        -12    1    3    3    0    0  0.19844055893E+02 -0.89826071340E+00  0.20888416892E+02  0.28825672357E+02  0.00000000000E+00 0.  1.
</event>
<event>
 7    1  0.2328615E-009  0.4778727E+02  0.7816164E-02  0.1312668E+00
        -11   -1    0    0    0    0  0.00000000000E+00  0.00000000000E+00  0.45593999997E+02  0.45594000000E+02  0.51100000000E-03 0. -1.
         11   -1    0    0    0    0 -0.00000000000E+00 -0.00000000000E+00 -0.45593999997E+02  0.45594000000E+02  0.51100000000E-03 0.  1.
    9900012    2    1    2    0    0 -0.24146311041E+02 -0.13567623821E+02 -0.33414050543E+02  0.47787268132E+02  0.19999986721E+02 0.  0.
         12    1    1    2    0    0  0.24146311041E+02  0.13567623821E+02  0.33414050543E+02  0.43400731868E+02  0.00000000000E+00 0. -1.
         11    1    3    3    0    0 -0.49861990039E+01 -0.49557981736E+00  0.79738725707E+00  0.50738157791E+01  0.51100000000E-03 0. -1.
        -11    1    3    3    0    0 -0.11199332774E+02 -0.54120018590E+01 -0.95210549953E+01  0.15664140806E+02  0.51100000000E-03 0.  1.
         12    1    3    3    0    0 -0.79607792626E+01 -0.76600421450E+01 -0.24690382804E+02  0.27049311547E+02  0.00000000000E+00 0. -1.
</event>
<event>
 7    1  0.3097165E-009  0.4778727E+02  0.7816164E-02  0.1312668E+00
        -11   -1    0    0    0    0  0.00000000000E+00  0.00000000000E+00  0.45593999997E+02  0.45594000000E+02  0.51100000000E-03 0.  1.
         11   -1    0    0    0    0 -0.00000000000E+00 -0.00000000000E+00 -0.45593999997E+02  0.45594000000E+02  0.51100000000E-03 0. -1.
    9900012    2    1    2    0    0  0.40645845055E+02 -0.56988916992E+01  0.14108911687E+02  0.47787268718E+02  0.19999989392E+02 0.  0.
         12    1    1    2    0    0 -0.40645845055E+02  0.56988916992E+01 -0.14108911687E+02  0.43400731282E+02  0.00000000000E+00 0. -1.
         11    1    3    3    0    0 -0.12375101012E+01 -0.71650276084E+00 -0.79605887974E+00  0.16366176884E+01  0.51100000000E-03 0. -1.
        -11    1    3    3    0    0  0.13416666704E+02 -0.21042629506E+01 -0.62649600595E+00  0.13595122858E+02  0.51100000000E-03 0.  1.
        -12    1    3    3    0    0  0.28466688452E+02 -0.28781259878E+01  0.15531466573E+02  0.32555528171E+02  0.00000000000E+00 0.  1.
</event>
<event>
 7    1  0.2328615E-009  0.4778727E+02  0.7816164E-02  0.1312668E+00
        -11   -1    0    0    0    0  0.00000000000E+00  0.00000000000E+00  0.45593999997E+02  0.45594000000E+02  0.51100000000E-03 0. -1.
         11   -1    0    0    0    0 -0.00000000000E+00 -0.00000000000E+00 -0.45593999997E+02  0.45594000000E+02  0.51100000000E-03 0.  1.
    9900012    2    1    2    0    0 -0.49502848847E+01  0.24616912406E+02 -0.35399512236E+02  0.47787272317E+02  0.20000005802E+02 0.  0.
         12    1    1    2    0    0  0.49502848847E+01 -0.24616912406E+02  0.35399512236E+02  0.43400727683E+02  0.00000000000E+00 0. -1.
         11    1    3    3    0    0 -0.16812334528E+01 -0.47517896178E+00 -0.50273233087E+01  0.53222477281E+01  0.51100000000E-03 0. -1.
        -11    1    3    3    0    0 -0.93376502645E+01  0.12283519170E+02 -0.17336572893E+02  0.23208475081E+02  0.51100000000E-03 0.  1.
         12    1    3    3    0    0  0.60685988326E+01  0.12808572198E+02 -0.13035616034E+02  0.19256549508E+02  0.00000000000E+00 0. -1.
</event>
<event>
 7    1  0.2328615E-009  0.4778727E+02  0.7816164E-02  0.1312668E+00
        -11   -1    0    0    0    0  0.00000000000E+00  0.00000000000E+00  0.45593999997E+02  0.45594000000E+02  0.51100000000E-03 0.  1.
         11   -1    0    0    0    0 -0.00000000000E+00 -0.00000000000E+00 -0.45593999997E+02  0.45594000000E+02  0.51100000000E-03 0. -1.
    9900012    2    1    2    0    0  0.20007472752E+01 -0.13326749752E+02  0.41255523818E+02  0.47787268507E+02  0.19999988433E+02 0.  0.
         12    1    1    2    0    0 -0.20007472752E+01  0.13326749752E+02 -0.41255523818E+02  0.43400731493E+02  0.00000000000E+00 0. -1.
         11    1    3    3    0    0 -0.51438955148E+01 -0.31573391251E+01  0.78766335489E+01  0.99231954401E+01  0.51100000000E-03 0. -1.
        -11    1    3    3    0    0 -0.29751148795E+01 -0.97148612321E+00  0.12644528781E+02  0.13026096967E+02  0.51100000000E-03 0.  1.
        -12    1    3    3    0    0  0.10119757669E+02 -0.91979245037E+01  0.20734361488E+02  0.24837976100E+02  0.00000000000E+00 0.  1.
</event>
<event>
 7    1  0.2328615E-009  0.4778728E+02  0.7816164E-02  0.1312668E+00
        -11   -1    0    0    0    0  0.00000000000E+00  0.00000000000E+00  0.45593999997E+02  0.45594000000E+02  0.51100000000E-03 0.  1.
         11   -1    0    0    0    0 -0.00000000000E+00 -0.00000000000E+00 -0.45593999997E+02  0.45594000000E+02  0.51100000000E-03 0. -1.
    9900012    2    1    2    0    0 -0.10559181965E+02  0.10276040211E+02  0.40823148953E+02  0.47787276313E+02  0.20000024020E+02 0.  0.
         12    1    1    2    0    0  0.10559181965E+02 -0.10276040211E+02 -0.40823148953E+02  0.43400723687E+02  0.00000000000E+00 0. -1.
         11    1    3    3    0    0 -0.96719038386E+00  0.59778768737E+01  0.27630650959E+01  0.66561999775E+01  0.51100000000E-03 0. -1.
        -11    1    3    3    0    0 -0.79264155199E+01  0.56200303272E+00  0.99921860412E+01  0.12766663329E+02  0.51100000000E-03 0.  1.
        -12    1    3    3    0    0 -0.16655760610E+01  0.37361603043E+01  0.28067897815E+02  0.28364413007E+02  0.00000000000E+00 0.  1.
</event>
<event>
 7    1  0.2328615E-009  0.4778728E+02  0.7816164E-02  0.1312668E+00
        -11   -1    0    0    0    0  0.00000000000E+00  0.00000000000E+00  0.45593999997E+02  0.45594000000E+02  0.51100000000E-03 0. -1.
         11   -1    0    0    0    0 -0.00000000000E+00 -0.00000000000E+00 -0.45593999997E+02  0.45594000000E+02  0.51100000000E-03 0.  1.
    9900012    2    1    2    0    0 -0.15247257665E+02  0.39440968504E+02 -0.97751756569E+01  0.47787275099E+02  0.20000018486E+02 0.  0.
         12    1    1    2    0    0  0.15247257665E+02 -0.39440968504E+02  0.97751756569E+01  0.43400724901E+02  0.00000000000E+00 0. -1.
         11    1    3    3    0    0 -0.25251556491E+01  0.23126331976E+02 -0.33359757420E+01  0.23501752618E+02  0.51100000000E-03 0. -1.
        -11    1    3    3    0    0 -0.34080589667E+01  0.11603009274E+02 -0.67374033248E+01  0.13843312246E+02  0.51100000000E-03 0.  1.
         12    1    3    3    0    0 -0.93140430497E+01  0.47116272541E+01  0.29820340985E+00  0.10442210235E+02  0.00000000000E+00 0. -1.
</event>
<event>
 7    1  0.2328615E-009  0.4778725E+02  0.7816164E-02  0.1312668E+00
        -11   -1    0    0    0    0  0.00000000000E+00  0.00000000000E+00  0.45593999997E+02  0.45594000000E+02  0.51100000000E-03 0. -1.
         11   -1    0    0    0    0 -0.00000000000E+00 -0.00000000000E+00 -0.45593999997E+02  0.45594000000E+02  0.51100000000E-03 0.  1.
    9900012    2    1    2    0    0 -0.17658983277E+02  0.27302019384E+02 -0.28746915034E+02  0.47787250273E+02  0.19999905296E+02 0.  0.
         12    1    1    2    0    0  0.17658983277E+02 -0.27302019384E+02  0.28746915034E+02  0.43400749727E+02  0.00000000000E+00 0. -1.
         11    1    3    3    0    0 -0.43912694150E+00  0.16628203036E+02 -0.14425798312E+02  0.22018029564E+02  0.51100000000E-03 0. -1.
        -11    1    3    3    0    0 -0.88299342699E-01  0.21046125362E+01 -0.24618517797E+01  0.32400470904E+01  0.51100000000E-03 0.  1.
        -12    1    3    3    0    0 -0.17131556993E+02  0.85692038119E+01 -0.11859264942E+02  0.22529173619E+02  0.00000000000E+00 0.  1.
</event>
<event>
 7    1  0.2328615E-009  0.4778727E+02  0.7816164E-02  0.1312668E+00
        -11   -1    0    0    0    0  0.00000000000E+00  0.00000000000E+00  0.45593999997E+02  0.45594000000E+02  0.51100000000E-03 0. -1.
         11   -1    0    0    0    0 -0.00000000000E+00 -0.00000000000E+00 -0.45593999997E+02  0.45594000000E+02  0.51100000000E-03 0.  1.
    9900012    2    1    2    0    0 -0.15525262102E+02 -0.40475276391E+02  0.20836318823E+01  0.47787270927E+02  0.19999999464E+02 0.  0.
         12    1    1    2    0    0  0.15525262102E+02  0.40475276391E+02 -0.20836318823E+01  0.43400729073E+02  0.00000000000E+00 0. -1.
         11    1    3    3    0    0  0.75669275717E+00 -0.11853000729E+02  0.72129070333E+01  0.13895763324E+02  0.51100000000E-03 0. -1.
        -11    1    3    3    0    0  0.27905539830E+00  0.51295486033E-01 -0.32635271038E+00  0.43244594449E+00  0.51100000000E-03 0.  1.
        -12    1    3    3    0    0 -0.16561010257E+02 -0.28673571148E+02 -0.48029224406E+01  0.33459061659E+02  0.00000000000E+00 0.  1.
</event>
<event>
 7    1  0.2328615E-009  0.4778727E+02  0.7816164E-02  0.1312668E+00
        -11   -1    0    0    0    0  0.00000000000E+00  0.00000000000E+00  0.45593999997E+02  0.45594000000E+02  0.51100000000E-03 0.  1.
         11   -1    0    0    0    0 -0.00000000000E+00 -0.00000000000E+00 -0.45593999997E+02  0.45594000000E+02  0.51100000000E-03 0. -1.
    9900012    2    1    2    0    0 -0.27131732141E+02 -0.30200533329E+02  0.15343402069E+02  0.47787273170E+02  0.20000009691E+02 0.  0.
         12    1    1    2    0    0  0.27131732141E+02  0.30200533329E+02 -0.15343402069E+02  0.43400726830E+02  0.00000000000E+00 0. -1.
         11    1    3    3    0    0 -0.77792030914E+01 -0.96184734435E+00  0.36194346874E+01  0.86337395587E+01  0.51100000000E-03 0. -1.
        -11    1    3    3    0    0 -0.94501596705E+01 -0.10841539193E+02 -0.14484752249E+01  0.14454845921E+02  0.51100000000E-03 0.  1.
        -12    1    3    3    0    0 -0.99023693796E+01 -0.18397146791E+02  0.13172442606E+02  0.24698687690E+02  0.00000000000E+00 0.  1.
</event>
<event>
 7    1  0.2328615E-009  0.4778728E+02  0.7816164E-02  0.1312668E+00
        -11   -1    0    0    0    0  0.00000000000E+00  0.00000000000E+00  0.45593999997E+02  0.45594000000E+02  0.51100000000E-03 0.  1.
         11   -1    0    0    0    0 -0.00000000000E+00 -0.00000000000E+00 -0.45593999997E+02  0.45594000000E+02  0.51100000000E-03 0. -1.
    9900012    2    1    2    0    0 -0.32139328080E+02  0.24914290036E+02  0.15164567199E+02  0.47787281622E+02  0.20000048226E+02 0.  0.
         12    1    1    2    0    0  0.32139328080E+02 -0.24914290036E+02 -0.15164567199E+02  0.43400718378E+02  0.00000000000E+00 0. -1.
         11    1    3    3    0    0 -0.17827407482E+02  0.95043469033E+01  0.12954017951E+01  0.20244187652E+02  0.51100000000E-03 0. -1.
        -11    1    3    3    0    0 -0.26446489817E+01 -0.16440304004E+01  0.14501507437E+01  0.34351043120E+01  0.51100000000E-03 0.  1.
        -12    1    3    3    0    0 -0.11667271615E+02  0.17053973533E+02  0.12419014660E+02  0.24107989658E+02  0.00000000000E+00 0.  1.
</event>
<event>
 7    1  0.2328615E-009  0.4778727E+02  0.7816164E-02  0.1312668E+00
        -11   -1    0    0    0    0  0.00000000000E+00  0.00000000000E+00  0.45593999997E+02  0.45594000000E+02  0.51100000000E-03 0.  1.
         11   -1    0    0    0    0 -0.00000000000E+00 -0.00000000000E+00 -0.45593999997E+02  0.45594000000E+02  0.51100000000E-03 0. -1.
    9900012    2    1    2    0    0 -0.13837672266E+02  0.25491116317E+01  0.41056596608E+02  0.47787271102E+02  0.20000000264E+02 0.  0.
         12    1    1    2    0    0  0.13837672266E+02 -0.25491116317E+01 -0.41056596608E+02  0.43400728898E+02  0.00000000000E+00 0. -1.
         11    1    3    3    0    0  0.29185119001E+01  0.16983495573E+01  0.48542295754E+01  0.59131757933E+01  0.51100000000E-03 0. -1.
        -11    1    3    3    0    0 -0.49558367326E+01  0.46165487741E+01  0.22049618659E+02  0.23066393814E+02  0.51100000000E-03 0.  1.
         12    1    3    3    0    0 -0.11800347434E+02 -0.37657866997E+01  0.14152748373E+02  0.18807701495E+02  0.00000000000E+00 0. -1.
</event>
<event>
 7    1  0.2328615E-009  0.4778725E+02  0.7816164E-02  0.1312668E+00
        -11   -1    0    0    0    0  0.00000000000E+00  0.00000000000E+00  0.45593999997E+02  0.45594000000E+02  0.51100000000E-03 0. -1.
         11   -1    0    0    0    0 -0.00000000000E+00 -0.00000000000E+00 -0.45593999997E+02  0.45594000000E+02  0.51100000000E-03 0.  1.
    9900012    2    1    2    0    0 -0.29271827137E+02  0.69012112304E+01 -0.31291508064E+02  0.47787250499E+02  0.19999906323E+02 0.  0.
         12    1    1    2    0    0  0.29271827137E+02 -0.69012112304E+01  0.31291508064E+02  0.43400749501E+02  0.00000000000E+00 0. -1.
         11    1    3    3    0    0 -0.91530795623E+01 -0.52964234083E+01 -0.61272403893E+01  0.12221867347E+02  0.51100000000E-03 0.  1.
        -11    1    3    3    0    0 -0.70735724386E+00  0.60196926445E+00 -0.55658667492E+01  0.56428356521E+01  0.51100000000E-03 0. -1.
        -12    1    3    3    0    0 -0.19411390330E+02  0.11595665374E+02 -0.19598400926E+02  0.29922547500E+02  0.00000000000E+00 0.  1.
</event>
<event>
 7    1  0.2328615E-009  0.4778727E+02  0.7816164E-02  0.1312668E+00
        -11   -1    0    0    0    0  0.00000000000E+00  0.00000000000E+00  0.45593999997E+02  0.45594000000E+02  0.51100000000E-03 0.  1.
         11   -1    0    0    0    0 -0.00000000000E+00 -0.00000000000E+00 -0.45593999997E+02  0.45594000000E+02  0.51100000000E-03 0. -1.
    9900012    2    1    2    0    0 -0.31426663863E+02  0.20091588918E+02  0.22188202557E+02  0.47787268676E+02  0.19999989199E+02 0.  0.
         12    1    1    2    0    0  0.31426663863E+02 -0.20091588918E+02 -0.22188202557E+02  0.43400731324E+02  0.00000000000E+00 0. -1.
         11    1    3    3    0    0 -0.15708643382E+02  0.14461031183E+02  0.99211017006E+01  0.23543813603E+02  0.51100000000E-03 0. -1.
        -11    1    3    3    0    0 -0.23505051031E+01  0.66880604385E+01  0.66000059854E+01  0.96858198382E+01  0.51100000000E-03 0.  1.
         12    1    3    3    0    0 -0.13367515378E+02 -0.10575027029E+01  0.56670948706E+01  0.14557635234E+02  0.00000000000E+00 0. -1.
</event>
<event>
 7    1  0.2328615E-009  0.4778727E+02  0.7816164E-02  0.1312668E+00
        -11   -1    0    0    0    0  0.00000000000E+00  0.00000000000E+00  0.45593999997E+02  0.45594000000E+02  0.51100000000E-03 0.  1.
         11   -1    0    0    0    0 -0.00000000000E+00 -0.00000000000E+00 -0.45593999997E+02  0.45594000000E+02  0.51100000000E-03 0. -1.
    9900012    2    1    2    0    0  0.19913237161E+02  0.32153726294E+02  0.21289062614E+02  0.47787270561E+02  0.19999997795E+02 0.  0.
         12    1    1    2    0    0 -0.19913237161E+02 -0.32153726294E+02 -0.21289062614E+02  0.43400729439E+02  0.00000000000E+00 0. -1.
         11    1    3    3    0    0 -0.10543789556E+01  0.87517168125E+01  0.17631158960E+01  0.89895962130E+01  0.51100000000E-03 0. -1.
        -11    1    3    3    0    0  0.92363591866E+01  0.18350432828E+02  0.99051323514E+01  0.22807024425E+02  0.51100000000E-03 0.  1.
         12    1    3    3    0    0  0.11731256931E+02  0.50515766544E+01  0.96208143666E+01  0.15990649922E+02  0.00000000000E+00 0. -1.
</event>
<event>
 7    1  0.2328615E-009  0.4778730E+02  0.7816164E-02  0.1312668E+00
        -11   -1    0    0    0    0  0.00000000000E+00  0.00000000000E+00  0.45593999997E+02  0.45594000000E+02  0.51100000000E-03 0.  1.
         11   -1    0    0    0    0 -0.00000000000E+00 -0.00000000000E+00 -0.45593999997E+02  0.45594000000E+02  0.51100000000E-03 0. -1.
    9900012    2    1    2    0    0  0.24461846073E+02  0.23787136506E+01  0.35771226514E+02  0.47787299104E+02  0.20000127935E+02 0.  0.
         12    1    1    2    0    0 -0.24461846073E+02 -0.23787136506E+01 -0.35771226514E+02  0.43400700896E+02  0.00000000000E+00 0. -1.
         11    1    3    3    0    0 -0.96496976507E+00 -0.97059540715E+00  0.38512565854E+01  0.40872239527E+01  0.51100000000E-03 0. -1.
        -11    1    3    3    0    0  0.37841293630E-03  0.34263895383E+01  0.80927230996E+00  0.35206629126E+01  0.51100000000E-03 0.  1.
        -12    1    3    3    0    0  0.25426437425E+02 -0.77080480602E-01  0.31110697619E+02  0.40179412239E+02  0.00000000000E+00 0.  1.
</event>
<event>
 7    1  0.2328615E-009  0.4778728E+02  0.7816164E-02  0.1312668E+00
        -11   -1    0    0    0    0  0.00000000000E+00  0.00000000000E+00  0.45593999997E+02  0.45594000000E+02  0.51100000000E-03 0.  1.
         11   -1    0    0    0    0 -0.00000000000E+00 -0.00000000000E+00 -0.45593999997E+02  0.45594000000E+02  0.51100000000E-03 0. -1.
    9900012    2    1    2    0    0  0.63166839398E+01 -0.42671697893E+02 -0.47799985534E+01  0.47787277849E+02  0.20000031024E+02 0.  0.
         12    1    1    2    0    0 -0.63166839398E+01  0.42671697893E+02  0.47799985534E+01  0.43400722151E+02  0.00000000000E+00 0. -1.
         11    1    3    3    0    0 -0.10308323228E+00 -0.86912709224E+00 -0.21669024174E+01  0.23369797609E+01  0.51100000000E-03 0. -1.
        -11    1    3    3    0    0 -0.45176441667E+01 -0.41187776326E+01  0.13891827647E+00  0.61149600614E+01  0.51100000000E-03 0.  1.
        -12    1    3    3    0    0  0.10937411339E+02 -0.37683793168E+02 -0.27520144125E+01  0.39335338027E+02  0.00000000000E+00 0.  1.
</event>
<event>
 7    1  0.2328615E-009  0.4778728E+02  0.7816164E-02  0.1312668E+00
        -11   -1    0    0    0    0  0.00000000000E+00  0.00000000000E+00  0.45593999997E+02  0.45594000000E+02  0.51100000000E-03 0.  1.
         11   -1    0    0    0    0 -0.00000000000E+00 -0.00000000000E+00 -0.45593999997E+02  0.45594000000E+02  0.51100000000E-03 0. -1.
    9900012    2    1    2    0    0  0.78484389483E+01  0.37785628494E+02 -0.19856263372E+02  0.47787275240E+02  0.20000019129E+02 0.  0.
         12    1    1    2    0    0 -0.78484389483E+01 -0.37785628494E+02  0.19856263372E+02  0.43400724760E+02  0.00000000000E+00 0. -1.
         11    1    3    3    0    0  0.69923617681E+01  0.10278575692E+02 -0.55421665438E+01  0.13610946022E+02  0.51100000000E-03 0. -1.
        -11    1    3    3    0    0  0.70998311865E+01  0.19098843860E+02 -0.76588301440E+01  0.21767662233E+02  0.51100000000E-03 0.  1.
         12    1    3    3    0    0 -0.62437540063E+01  0.84082089418E+01 -0.66552666847E+01  0.12408666985E+02  0.00000000000E+00 0. -1.
</event>
<event>
 7    1  0.2328615E-009  0.4778726E+02  0.7816164E-02  0.1312668E+00
        -11   -1    0    0    0    0  0.00000000000E+00  0.00000000000E+00  0.45593999997E+02  0.45594000000E+02  0.51100000000E-03 0.  1.
         11   -1    0    0    0    0 -0.00000000000E+00 -0.00000000000E+00 -0.45593999997E+02  0.45594000000E+02  0.51100000000E-03 0. -1.
    9900012    2    1    2    0    0  0.33624903642E+02 -0.27422468844E+02  0.99918816464E+00  0.47787258999E+02  0.19999945082E+02 0.  0.
         12    1    1    2    0    0 -0.33624903642E+02  0.27422468844E+02 -0.99918816464E+00  0.43400741001E+02  0.00000000000E+00 0. -1.
         11    1    3    3    0    0  0.37977826041E+01 -0.33740729712E+01  0.49802210967E+01  0.71140792486E+01  0.51100000000E-03 0. -1.
        -11    1    3    3    0    0  0.68839383088E+00 -0.27770147660E+01 -0.35946900519E+01  0.45942892712E+01  0.51100000000E-03 0.  1.
        -12    1    3    3    0    0  0.29138727207E+02 -0.21271381107E+02 -0.38634288013E+00  0.36078890480E+02  0.00000000000E+00 0.  1.
</event>
<event>
 7    1  0.2328615E-009  0.4778725E+02  0.7816164E-02  0.1312668E+00
        -11   -1    0    0    0    0  0.00000000000E+00  0.00000000000E+00  0.45593999997E+02  0.45594000000E+02  0.51100000000E-03 0.  1.
         11   -1    0    0    0    0 -0.00000000000E+00 -0.00000000000E+00 -0.45593999997E+02  0.45594000000E+02  0.51100000000E-03 0. -1.
    9900012    2    1    2    0    0 -0.12084120132E+02  0.33950286087E+02  0.24186295924E+02  0.47787253517E+02  0.19999920083E+02 0.  0.
         12    1    1    2    0    0  0.12084120132E+02 -0.33950286087E+02 -0.24186295924E+02  0.43400746483E+02  0.00000000000E+00 0. -1.
         11    1    3    3    0    0 -0.18990217816E+01  0.51528179292E+01 -0.23446255624E+00  0.54966161673E+01  0.51100000000E-03 0. -1.
        -11    1    3    3    0    0  0.95562322790E+00 -0.17577303498E+01  0.15601842511E+01  0.25371257152E+01  0.51100000000E-03 0.  1.
         12    1    3    3    0    0 -0.11140721579E+02  0.30555198508E+02  0.22860574229E+02  0.39753511634E+02  0.00000000000E+00 0. -1.
</event>
<event>
 7    1  0.2328615E-009  0.4778727E+02  0.7816164E-02  0.1312668E+00
        -11   -1    0    0    0    0  0.00000000000E+00  0.00000000000E+00  0.45593999997E+02  0.45594000000E+02  0.51100000000E-03 0.  1.
         11   -1    0    0    0    0 -0.00000000000E+00 -0.00000000000E+00 -0.45593999997E+02  0.45594000000E+02  0.51100000000E-03 0. -1.
    9900012    2    1    2    0    0  0.15743721664E+02 -0.36536860772E+02  0.17344056352E+02  0.47787271231E+02  0.20000000852E+02 0.  0.
         12    1    1    2    0    0 -0.15743721664E+02  0.36536860772E+02 -0.17344056352E+02  0.43400728769E+02  0.00000000000E+00 0. -1.
         11    1    3    3    0    0  0.25292441952E+01 -0.20879988124E+01  0.23980674745E+01  0.40629475893E+01  0.51100000000E-03 0. -1.
        -11    1    3    3    0    0 -0.27831224486E+01 -0.15730551848E+02  0.26196618662E+01  0.16188225986E+02  0.51100000000E-03 0.  1.
        -12    1    3    3    0    0  0.15997599917E+02 -0.18718310112E+02  0.12326327011E+02  0.27536097656E+02  0.00000000000E+00 0.  1.
</event>
<event>
 7    1  0.2328615E-009  0.4778727E+02  0.7816164E-02  0.1312668E+00
        -11   -1    0    0    0    0  0.00000000000E+00  0.00000000000E+00  0.45593999997E+02  0.45594000000E+02  0.51100000000E-03 0. -1.
         11   -1    0    0    0    0 -0.00000000000E+00 -0.00000000000E+00 -0.45593999997E+02  0.45594000000E+02  0.51100000000E-03 0.  1.
    9900012    2    1    2    0    0 -0.31490984929E+02 -0.12300338241E+01 -0.29840050065E+02  0.47787266102E+02  0.19999977465E+02 0.  0.
         12    1    1    2    0    0  0.31490984929E+02  0.12300338241E+01  0.29840050065E+02  0.43400733898E+02  0.00000000000E+00 0. -1.
         11    1    3    3    0    0 -0.42356486147E+01 -0.59210065700E+01 -0.96713315577E+01  0.12105110175E+02  0.51100000000E-03 0. -1.
        -11    1    3    3    0    0  0.84538008928E+00  0.59184421538E+00 -0.83472890715E+00  0.13272978868E+01  0.51100000000E-03 0.  1.
        -12    1    3    3    0    0 -0.28100716403E+02  0.40991285305E+01 -0.19333989600E+02  0.34354858040E+02  0.00000000000E+00 0.  1.
</event>
<event>
 7    1  0.2328615E-009  0.4778727E+02  0.7816164E-02  0.1312668E+00
        -11   -1    0    0    0    0  0.00000000000E+00  0.00000000000E+00  0.45593999997E+02  0.45594000000E+02  0.51100000000E-03 0.  1.
         11   -1    0    0    0    0 -0.00000000000E+00 -0.00000000000E+00 -0.45593999997E+02  0.45594000000E+02  0.51100000000E-03 0. -1.
    9900012    2    1    2    0    0  0.10305901398E+02  0.33754203295E+02  0.25259960183E+02  0.47787269221E+02  0.19999991686E+02 0.  0.
         12    1    1    2    0    0 -0.10305901398E+02 -0.33754203295E+02 -0.25259960183E+02  0.43400730779E+02  0.00000000000E+00 0. -1.
         11    1    3    3    0    0  0.22853333516E+00 -0.18104518369E+01 -0.21498438340E+00  0.18374389474E+01  0.51100000000E-03 0. -1.
        -11    1    3    3    0    0  0.74044905028E+01  0.98343830948E+01  0.70003969527E+01  0.14161466316E+02  0.51100000000E-03 0.  1.
        -12    1    3    3    0    0  0.26728775595E+01  0.25730272038E+02  0.18474547614E+02  0.31788363958E+02  0.00000000000E+00 0.  1.
</event>
<event>
 7    1  0.2328615E-009  0.4778727E+02  0.7816164E-02  0.1312668E+00
        -11   -1    0    0    0    0  0.00000000000E+00  0.00000000000E+00  0.45593999997E+02  0.45594000000E+02  0.51100000000E-03 0.  1.
         11   -1    0    0    0    0 -0.00000000000E+00 -0.00000000000E+00 -0.45593999997E+02  0.45594000000E+02  0.51100000000E-03 0. -1.
    9900012    2    1    2    0    0  0.10223863952E+02  0.24661504679E+02  0.34218501508E+02  0.47787273594E+02  0.20000011623E+02 0.  0.
         12    1    1    2    0    0 -0.10223863952E+02 -0.24661504679E+02 -0.34218501508E+02  0.43400726406E+02  0.00000000000E+00 0. -1.
         11    1    3    3    0    0 -0.30038927892E+01  0.71889049295E+01  0.10462958896E+02  0.13045199696E+02  0.51100000000E-03 0. -1.
        -11    1    3    3    0    0  0.87780775742E+01  0.15123568729E+02  0.24011364812E+02  0.29703915860E+02  0.51100000000E-03 0.  1.
        -12    1    3    3    0    0  0.44496791667E+01  0.23490310202E+01 -0.25582219999E+00  0.50381580382E+01  0.00000000000E+00 0.  1.
</event>
<event>
 7    1  0.2328615E-009  0.4778727E+02  0.7816164E-02  0.1312668E+00
        -11   -1    0    0    0    0  0.00000000000E+00  0.00000000000E+00  0.45593999997E+02  0.45594000000E+02  0.51100000000E-03 0. -1.
         11   -1    0    0    0    0 -0.00000000000E+00 -0.00000000000E+00 -0.45593999997E+02  0.45594000000E+02  0.51100000000E-03 0.  1.
    9900012    2    1    2    0    0  0.31094796299E+02  0.70559894401E+00 -0.30269442562E+02  0.47787269825E+02  0.19999994438E+02 0.  0.
         12    1    1    2    0    0 -0.31094796299E+02 -0.70559894401E+00  0.30269442562E+02  0.43400730175E+02  0.00000000000E+00 0. -1.
         11    1    3    3    0    0  0.96428691871E+01 -0.36145494721E+01 -0.17598755666E+02  0.20390343188E+02  0.51100000000E-03 0. -1.
        -11    1    3    3    0    0 -0.40671188763E+00 -0.14782222951E+01 -0.13192298317E+00  0.15388176136E+01  0.51100000000E-03 0.  1.
        -12    1    3    3    0    0  0.21858638999E+02  0.57983707112E+01 -0.12538763913E+02  0.25858109023E+02  0.00000000000E+00 0.  1.
</event>
<event>
 7    1  0.2328615E-009  0.4778727E+02  0.7816164E-02  0.1312668E+00
        -11   -1    0    0    0    0  0.00000000000E+00  0.00000000000E+00  0.45593999997E+02  0.45594000000E+02  0.51100000000E-03 0.  1.
         11   -1    0    0    0    0 -0.00000000000E+00 -0.00000000000E+00 -0.45593999997E+02  0.45594000000E+02  0.51100000000E-03 0. -1.
    9900012    2    1    2    0    0 -0.17855858561E+02  0.19370624330E+02  0.34490153382E+02  0.47787268990E+02  0.19999990633E+02 0.  0.
         12    1    1    2    0    0  0.17855858561E+02 -0.19370624330E+02 -0.34490153382E+02  0.43400731010E+02  0.00000000000E+00 0. -1.
         11    1    3    3    0    0 -0.68351639713E+01  0.94309249508E+00  0.40088718773E+01  0.79799714259E+01  0.51100000000E-03 0. -1.
        -11    1    3    3    0    0 -0.22886079473E+01  0.10874562795E+02  0.57464410540E+01  0.12510612590E+02  0.51100000000E-03 0.  1.
         12    1    3    3    0    0 -0.87320866423E+01  0.75529690396E+01  0.24734840451E+02  0.27296684974E+02  0.00000000000E+00 0. -1.
</event>
<event>
 7    1  0.2328615E-009  0.4778726E+02  0.7816164E-02  0.1312668E+00
        -11   -1    0    0    0    0  0.00000000000E+00  0.00000000000E+00  0.45593999997E+02  0.45594000000E+02  0.51100000000E-03 0.  1.
         11   -1    0    0    0    0 -0.00000000000E+00 -0.00000000000E+00 -0.45593999997E+02  0.45594000000E+02  0.51100000000E-03 0. -1.
    9900012    2    1    2    0    0 -0.85093075870E+00 -0.63402802743E+01  0.42926690978E+02  0.47787262271E+02  0.19999959996E+02 0.  0.
         12    1    1    2    0    0  0.85093075870E+00  0.63402802743E+01 -0.42926690978E+02  0.43400737729E+02  0.00000000000E+00 0. -1.
         11    1    3    3    0    0  0.14489634378E+01  0.47000460609E+00 -0.69622426051E+00  0.16748515922E+01  0.51100000000E-03 0. -1.
        -11    1    3    3    0    0  0.10487617392E+01  0.37237885228E+01  0.10192202379E+02  0.10901719670E+02  0.51100000000E-03 0.  1.
        -12    1    3    3    0    0 -0.33486559357E+01 -0.10534073403E+02  0.33430712859E+02  0.35210691009E+02  0.00000000000E+00 0.  1.
</event>
<event>
 7    1  0.2328615E-009  0.4778728E+02  0.7816164E-02  0.1312668E+00
        -11   -1    0    0    0    0  0.00000000000E+00  0.00000000000E+00  0.45593999997E+02  0.45594000000E+02  0.51100000000E-03 0. -1.
         11   -1    0    0    0    0 -0.00000000000E+00 -0.00000000000E+00 -0.45593999997E+02  0.45594000000E+02  0.51100000000E-03 0.  1.
    9900012    2    1    2    0    0 -0.62055014857E+00 -0.24713854948E+02 -0.35671601566E+02  0.47787275730E+02  0.20000021365E+02 0.  0.
         12    1    1    2    0    0  0.62055014857E+00  0.24713854948E+02  0.35671601566E+02  0.43400724270E+02  0.00000000000E+00 0. -1.
         11    1    3    3    0    0  0.31665281312E+01 -0.10753827814E+01 -0.48621783769E+01  0.59011971127E+01  0.51100000000E-03 0. -1.
        -11    1    3    3    0    0 -0.49419828884E+00 -0.15160938752E+02 -0.76165387487E+01  0.16973802125E+02  0.51100000000E-03 0.  1.
        -12    1    3    3    0    0 -0.32928799909E+01 -0.84775334142E+01 -0.23192884440E+02  0.24912276493E+02  0.00000000000E+00 0.  1.
</event>
<event>
 7    1  0.2328615E-009  0.4778729E+02  0.7816164E-02  0.1312668E+00
        -11   -1    0    0    0    0  0.00000000000E+00  0.00000000000E+00  0.45593999997E+02  0.45594000000E+02  0.51100000000E-03 0.  1.
         11   -1    0    0    0    0 -0.00000000000E+00 -0.00000000000E+00 -0.45593999997E+02  0.45594000000E+02  0.51100000000E-03 0. -1.
    9900012    2    1    2    0    0  0.62354970849E+01  0.39350726016E+02  0.17212217901E+02  0.47787291400E+02  0.20000092811E+02 0.  0.
         12    1    1    2    0    0 -0.62354970849E+01 -0.39350726016E+02 -0.17212217901E+02  0.43400708600E+02  0.00000000000E+00 0. -1.
         11    1    3    3    0    0  0.10715281733E+01  0.44387230807E+01  0.34970310035E+01  0.57514920945E+01  0.51100000000E-03 0. -1.
        -11    1    3    3    0    0 -0.53065522742E+01  0.12347656799E+02 -0.37922547633E+00  0.13444996753E+02  0.51100000000E-03 0.  1.
        -12    1    3    3    0    0  0.10470521186E+02  0.22564346136E+02  0.14094412374E+02  0.28590802553E+02  0.00000000000E+00 0.  1.
</event>
<event>
 7    1  0.2328615E-009  0.4778727E+02  0.7816164E-02  0.1312668E+00
        -11   -1    0    0    0    0  0.00000000000E+00  0.00000000000E+00  0.45593999997E+02  0.45594000000E+02  0.51100000000E-03 0.  1.
         11   -1    0    0    0    0 -0.00000000000E+00 -0.00000000000E+00 -0.45593999997E+02  0.45594000000E+02  0.51100000000E-03 0. -1.
    9900012    2    1    2    0    0  0.22728578181E+02 -0.14926947264E+02  0.33826338737E+02  0.47787271745E+02  0.20000003193E+02 0.  0.
         12    1    1    2    0    0 -0.22728578181E+02  0.14926947264E+02 -0.33826338737E+02  0.43400728255E+02  0.00000000000E+00 0. -1.
         11    1    3    3    0    0  0.10773553242E+02  0.29158869875E+01  0.87780545142E+01  0.14199510122E+02  0.51100000000E-03 0. -1.
        -11    1    3    3    0    0  0.37589750570E+01 -0.18241874319E+01  0.66462514176E+01  0.78504911587E+01  0.51100000000E-03 0.  1.
        -12    1    3    3    0    0  0.81960498815E+01 -0.16018646819E+02  0.18402032805E+02  0.25737270464E+02  0.00000000000E+00 0.  1.
</event>
<event>
 7    1  0.2328615E-009  0.4778727E+02  0.7816164E-02  0.1312668E+00
        -11   -1    0    0    0    0  0.00000000000E+00  0.00000000000E+00  0.45593999997E+02  0.45594000000E+02  0.51100000000E-03 0. -1.
         11   -1    0    0    0    0 -0.00000000000E+00 -0.00000000000E+00 -0.45593999997E+02  0.45594000000E+02  0.51100000000E-03 0.  1.
    9900012    2    1    2    0    0 -0.18242200157E+02 -0.23385836980E+02 -0.31685138280E+02  0.47787271599E+02  0.20000002531E+02 0.  0.
         12    1    1    2    0    0  0.18242200157E+02  0.23385836980E+02  0.31685138280E+02  0.43400728401E+02  0.00000000000E+00 0. -1.
         11    1    3    3    0    0 -0.77788360443E+01 -0.53873842698E+01 -0.14156852890E+02  0.17027938322E+02  0.51100000000E-03 0. -1.
        -11    1    3    3    0    0 -0.10999334508E+02 -0.12730679280E+02 -0.18886051265E+02  0.25293052152E+02  0.51100000000E-03 0.  1.
         12    1    3    3    0    0  0.53597039472E+00 -0.52677734302E+01  0.13577658741E+01  0.54662811256E+01  0.00000000000E+00 0. -1.
</event>
<event>
 7    1  0.2328615E-009  0.4778727E+02  0.7816164E-02  0.1312668E+00
        -11   -1    0    0    0    0  0.00000000000E+00  0.00000000000E+00  0.45593999997E+02  0.45594000000E+02  0.51100000000E-03 0.  1.
         11   -1    0    0    0    0 -0.00000000000E+00 -0.00000000000E+00 -0.45593999997E+02  0.45594000000E+02  0.51100000000E-03 0. -1.
    9900012    2    1    2    0    0 -0.29918247326E+02  0.28434543729E+02  0.13416351364E+02  0.47787270927E+02  0.19999999466E+02 0.  0.
         12    1    1    2    0    0  0.29918247326E+02 -0.28434543729E+02 -0.13416351364E+02  0.43400729073E+02  0.00000000000E+00 0. -1.
         11    1    3    3    0    0 -0.80563582008E+01  0.15613337913E+01  0.15456141731E+01  0.83505445392E+01  0.51100000000E-03 0. -1.
        -11    1    3    3    0    0 -0.15842751413E+02  0.11256765990E+02  0.11729245093E+02  0.22699840167E+02  0.51100000000E-03 0.  1.
        -12    1    3    3    0    0 -0.60191377115E+01  0.15616443948E+02  0.14149209803E+00  0.16736886221E+02  0.00000000000E+00 0.  1.
</event>
<event>
 7    1  0.2328615E-009  0.4778728E+02  0.7816164E-02  0.1312668E+00
        -11   -1    0    0    0    0  0.00000000000E+00  0.00000000000E+00  0.45593999997E+02  0.45594000000E+02  0.51100000000E-03 0.  1.
         11   -1    0    0    0    0 -0.00000000000E+00 -0.00000000000E+00 -0.45593999997E+02  0.45594000000E+02  0.51100000000E-03 0. -1.
    9900012    2    1    2    0    0 -0.29976461565E+02  0.18151525283E+02  0.25603826843E+02  0.47787284948E+02  0.20000063391E+02 0.  0.
         12    1    1    2    0    0  0.29976461565E+02 -0.18151525283E+02 -0.25603826843E+02  0.43400715052E+02  0.00000000000E+00 0. -1.
         11    1    3    3    0    0 -0.15984345385E+02  0.61653342860E+01  0.13237518724E+02  0.21650462962E+02  0.51100000000E-03 0. -1.
        -11    1    3    3    0    0 -0.13735207213E+02  0.59452753754E+01  0.13295696677E+02  0.20019434728E+02  0.51100000000E-03 0.  1.
         12    1    3    3    0    0 -0.25690896705E+00  0.60409156213E+01 -0.92938855792E+00  0.61173872571E+01  0.00000000000E+00 0. -1.
</event>
<event>
 7    1  0.2328615E-009  0.4778727E+02  0.7816164E-02  0.1312668E+00
        -11   -1    0    0    0    0  0.00000000000E+00  0.00000000000E+00  0.45593999997E+02  0.45594000000E+02  0.51100000000E-03 0.  1.
         11   -1    0    0    0    0 -0.00000000000E+00 -0.00000000000E+00 -0.45593999997E+02  0.45594000000E+02  0.51100000000E-03 0. -1.
    9900012    2    1    2    0    0 -0.19518419551E+02  0.50266697503E+01  0.38436796206E+02  0.47787269440E+02  0.19999992684E+02 0.  0.
         12    1    1    2    0    0  0.19518419551E+02 -0.50266697503E+01 -0.38436796206E+02  0.43400730560E+02  0.00000000000E+00 0. -1.
         11    1    3    3    0    0 -0.69603120207E+01 -0.24284109514E+01  0.81115983490E+01  0.10960891899E+02  0.51100000000E-03 0. -1.
        -11    1    3    3    0    0 -0.11706512263E+02  0.89847141540E+01  0.13785380736E+02  0.20194163516E+02  0.51100000000E-03 0.  1.
         12    1    3    3    0    0 -0.85159526755E+00 -0.15296334524E+01  0.16539817121E+02  0.16632214026E+02  0.00000000000E+00 0. -1.
</event>
<event>
 7    1  0.2328615E-009  0.4778728E+02  0.7816164E-02  0.1312668E+00
        -11   -1    0    0    0    0  0.00000000000E+00  0.00000000000E+00  0.45593999997E+02  0.45594000000E+02  0.51100000000E-03 0.  1.
         11   -1    0    0    0    0 -0.00000000000E+00 -0.00000000000E+00 -0.45593999997E+02  0.45594000000E+02  0.51100000000E-03 0. -1.
    9900012    2    1    2    0    0 -0.15664894694E+02  0.28805668259E+02  0.28433559797E+02  0.47787276822E+02  0.20000026344E+02 0.  0.
         12    1    1    2    0    0  0.15664894694E+02 -0.28805668259E+02 -0.28433559797E+02  0.43400723178E+02  0.00000000000E+00 0. -1.
         11    1    3    3    0    0 -0.11638391850E+02  0.92449163076E+01  0.40411130863E+01  0.15402961976E+02  0.51100000000E-03 0. -1.
        -11    1    3    3    0    0  0.13018326044E+01  0.41751227283E+00  0.10150509313E+01  0.17027663616E+01  0.51100000000E-03 0.  1.
        -12    1    3    3    0    0 -0.53283354489E+01  0.19143239679E+02  0.23377395779E+02  0.30681548485E+02  0.00000000000E+00 0.  1.
</event>
<event>
 7    1  0.2328615E-009  0.4778727E+02  0.7816164E-02  0.1312668E+00
        -11   -1    0    0    0    0  0.00000000000E+00  0.00000000000E+00  0.45593999997E+02  0.45594000000E+02  0.51100000000E-03 0. -1.
         11   -1    0    0    0    0 -0.00000000000E+00 -0.00000000000E+00 -0.45593999997E+02  0.45594000000E+02  0.51100000000E-03 0.  1.
    9900012    2    1    2    0    0 -0.17708824132E+02  0.36713942552E+02  0.14903265578E+02  0.47787270113E+02  0.19999995753E+02 0.  0.
         12    1    1    2    0    0  0.17708824132E+02 -0.36713942552E+02 -0.14903265578E+02  0.43400729887E+02  0.00000000000E+00 0. -1.
         11    1    3    3    0    0 -0.15994497694E+02  0.36290103655E+02  0.16309727947E+02  0.42881264041E+02  0.51100000000E-03 0. -1.
        -11    1    3    3    0    0 -0.25310732344E+01  0.17951653701E+01 -0.88314386992E+00  0.32262817266E+01  0.51100000000E-03 0.  1.
         12    1    3    3    0    0  0.81674679701E+00 -0.13713264726E+01 -0.52331849954E+00  0.16797243455E+01  0.00000000000E+00 0. -1.
</event>
<event>
 7    1  0.2328615E-009  0.4778727E+02  0.7816164E-02  0.1312668E+00
        -11   -1    0    0    0    0  0.00000000000E+00  0.00000000000E+00  0.45593999997E+02  0.45594000000E+02  0.51100000000E-03 0. -1.
         11   -1    0    0    0    0 -0.00000000000E+00 -0.00000000000E+00 -0.45593999997E+02  0.45594000000E+02  0.51100000000E-03 0.  1.
    9900012    2    1    2    0    0  0.21863782040E+02 -0.12712785215E+02 -0.35270153018E+02  0.47787267668E+02  0.19999984607E+02 0.  0.
         12    1    1    2    0    0 -0.21863782040E+02  0.12712785215E+02  0.35270153018E+02  0.43400732332E+02  0.00000000000E+00 0. -1.
         11    1    3    3    0    0  0.60102675387E+01 -0.89228262902E+00 -0.18400580803E+01  0.63486453812E+01  0.51100000000E-03 0. -1.
        -11    1    3    3    0    0  0.13625698273E+02 -0.20256722410E+01 -0.23935866150E+02  0.27616818971E+02  0.51100000000E-03 0.  1.
         12    1    3    3    0    0  0.22278162282E+01 -0.97948303450E+01 -0.94942287872E+01  0.13821803316E+02  0.00000000000E+00 0. -1.
</event>
<event>
 7    1  0.2328615E-009  0.4778727E+02  0.7816164E-02  0.1312668E+00
        -11   -1    0    0    0    0  0.00000000000E+00  0.00000000000E+00  0.45593999997E+02  0.45594000000E+02  0.51100000000E-03 0. -1.
         11   -1    0    0    0    0 -0.00000000000E+00 -0.00000000000E+00 -0.45593999997E+02  0.45594000000E+02  0.51100000000E-03 0.  1.
    9900012    2    1    2    0    0  0.27967753193E+02 -0.15742234624E+02 -0.29216611939E+02  0.47787267486E+02  0.19999983773E+02 0.  0.
         12    1    1    2    0    0 -0.27967753193E+02  0.15742234624E+02  0.29216611939E+02  0.43400732514E+02  0.00000000000E+00 0. -1.
         11    1    3    3    0    0  0.26940370710E+01 -0.24612697228E+01 -0.12982594053E+01  0.38731333740E+01  0.51100000000E-03 0.  1.
        -11    1    3    3    0    0 -0.21695730411E+01 -0.45273138771E+01 -0.31708796374E+01  0.59378528155E+01  0.51100000000E-03 0. -1.
         12    1    3    3    0    0  0.27443289163E+02 -0.87536510239E+01 -0.24747472896E+02  0.37976281296E+02  0.00000000000E+00 0. -1.
</event>
<event>
 7    1  0.2328615E-009  0.4778726E+02  0.7816164E-02  0.1312668E+00
        -11   -1    0    0    0    0  0.00000000000E+00  0.00000000000E+00  0.45593999997E+02  0.45594000000E+02  0.51100000000E-03 0.  1.
         11   -1    0    0    0    0 -0.00000000000E+00 -0.00000000000E+00 -0.45593999997E+02  0.45594000000E+02  0.51100000000E-03 0. -1.
    9900012    2    1    2    0    0  0.28337402048E+02 -0.29229142411E+02  0.15042375965E+02  0.47787260426E+02  0.19999951586E+02 0.  0.
         12    1    1    2    0    0 -0.28337402048E+02  0.29229142411E+02 -0.15042375965E+02  0.43400739574E+02  0.00000000000E+00 0. -1.
         11    1    3    3    0    0  0.10186105906E+02 -0.18558065887E+02  0.55673295728E+01  0.21889580212E+02  0.51100000000E-03 0. -1.
        -11    1    3    3    0    0  0.60835709169E+01 -0.95631350182E+01  0.75717314486E+01  0.13630645761E+02  0.51100000000E-03 0.  1.
        -12    1    3    3    0    0  0.12067725225E+02 -0.11079415049E+01  0.19033149437E+01  0.12267034453E+02  0.00000000000E+00 0.  1.
</event>
<event>
 7    1  0.2328615E-009  0.4778726E+02  0.7816164E-02  0.1312668E+00
        -11   -1    0    0    0    0  0.00000000000E+00  0.00000000000E+00  0.45593999997E+02  0.45594000000E+02  0.51100000000E-03 0.  1.
         11   -1    0    0    0    0 -0.00000000000E+00 -0.00000000000E+00 -0.45593999997E+02  0.45594000000E+02  0.51100000000E-03 0. -1.
    9900012    2    1    2    0    0 -0.37830192386E+02 -0.11022947943E+02  0.18193281427E+02  0.47787258919E+02  0.19999944715E+02 0.  0.
         12    1    1    2    0    0  0.37830192386E+02  0.11022947943E+02 -0.18193281427E+02  0.43400741081E+02  0.00000000000E+00 0. -1.
         11    1    3    3    0    0 -0.22956632731E+01  0.37522727040E+01  0.15486019104E+01  0.46634524172E+01  0.51100000000E-03 0. -1.
        -11    1    3    3    0    0 -0.25799513620E+01 -0.72017100059E+00 -0.13858395530E+01  0.30158492715E+01  0.51100000000E-03 0.  1.
        -12    1    3    3    0    0 -0.32954577751E+02 -0.14055049647E+02  0.18030519069E+02  0.40107957230E+02  0.00000000000E+00 0.  1.
</event>
<event>
 7    1  0.2328615E-009  0.4778728E+02  0.7816164E-02  0.1312668E+00
        -11   -1    0    0    0    0  0.00000000000E+00  0.00000000000E+00  0.45593999997E+02  0.45594000000E+02  0.51100000000E-03 0.  1.
         11   -1    0    0    0    0 -0.00000000000E+00 -0.00000000000E+00 -0.45593999997E+02  0.45594000000E+02  0.51100000000E-03 0. -1.
    9900012    2    1    2    0    0 -0.31489970728E+02 -0.66452950038E+01  0.29117767410E+02  0.47787279026E+02  0.20000036391E+02 0.  0.
         12    1    1    2    0    0  0.31489970728E+02  0.66452950038E+01 -0.29117767410E+02  0.43400720974E+02  0.00000000000E+00 0. -1.
         11    1    3    3    0    0 -0.25844988160E+02 -0.52028389597E+01  0.28793321335E+02  0.39039573512E+02  0.51100000000E-03 0. -1.
        -11    1    3    3    0    0 -0.11030601915E+01 -0.26521591404E+01  0.22696100058E+01  0.36608495915E+01  0.51100000000E-03 0.  1.
         12    1    3    3    0    0 -0.45419223770E+01  0.12097030963E+01 -0.19451639311E+01  0.50868559227E+01  0.00000000000E+00 0. -1.
</event>
<event>
 7    1  0.2328615E-009  0.4778727E+02  0.7816164E-02  0.1312668E+00
        -11   -1    0    0    0    0  0.00000000000E+00  0.00000000000E+00  0.45593999997E+02  0.45594000000E+02  0.51100000000E-03 0. -1.
         11   -1    0    0    0    0 -0.00000000000E+00 -0.00000000000E+00 -0.45593999997E+02  0.45594000000E+02  0.51100000000E-03 0.  1.
    9900012    2    1    2    0    0  0.30761170127E+02 -0.22220830627E+00 -0.30615750193E+02  0.47787272771E+02  0.20000007874E+02 0.  0.
         12    1    1    2    0    0 -0.30761170127E+02  0.22220830627E+00  0.30615750193E+02  0.43400727229E+02  0.00000000000E+00 0. -1.
         11    1    3    3    0    0  0.11918252948E+02  0.30744559302E+01 -0.14027081062E+02  0.18661619329E+02  0.51100000000E-03 0. -1.
        -11    1    3    3    0    0  0.79449163888E+01 -0.51641445084E+01 -0.15296312294E+02  0.17993533699E+02  0.51100000000E-03 0.  1.
         12    1    3    3    0    0  0.10898000790E+02  0.18674802719E+01 -0.12923568368E+01  0.11132119743E+02  0.00000000000E+00 0. -1.
</event>
<event>
 7    1  0.2328615E-009  0.4778727E+02  0.7816164E-02  0.1312668E+00
        -11   -1    0    0    0    0  0.00000000000E+00  0.00000000000E+00  0.45593999997E+02  0.45594000000E+02  0.51100000000E-03 0.  1.
         11   -1    0    0    0    0 -0.00000000000E+00 -0.00000000000E+00 -0.45593999997E+02  0.45594000000E+02  0.51100000000E-03 0. -1.
    9900012    2    1    2    0    0  0.37880649073E+02  0.70727778670E+01  0.19966353839E+02  0.47787273664E+02  0.20000011942E+02 0.  0.
         12    1    1    2    0    0 -0.37880649073E+02 -0.70727778670E+01 -0.19966353839E+02  0.43400726336E+02  0.00000000000E+00 0. -1.
         11    1    3    3    0    0  0.46058380241E+01 -0.37688711412E+01  0.18559974502E+01  0.62340083718E+01  0.51100000000E-03 0. -1.
        -11    1    3    3    0    0  0.30484749950E+01 -0.28774038022E+01  0.16891597243E+01  0.45195036532E+01  0.51100000000E-03 0.  1.
         12    1    3    3    0    0  0.30226336053E+02  0.13719052810E+02  0.16421196664E+02  0.37033761639E+02  0.00000000000E+00 0. -1.
</event>
<event>
 7    1  0.2328615E-009  0.4778728E+02  0.7816164E-02  0.1312668E+00
        -11   -1    0    0    0    0  0.00000000000E+00  0.00000000000E+00  0.45593999997E+02  0.45594000000E+02  0.51100000000E-03 0. -1.
         11   -1    0    0    0    0 -0.00000000000E+00 -0.00000000000E+00 -0.45593999997E+02  0.45594000000E+02  0.51100000000E-03 0.  1.
    9900012    2    1    2    0    0 -0.21325812166E+02  0.25127544643E+02 -0.28238951431E+02  0.47787284081E+02  0.20000059440E+02 0.  0.
         12    1    1    2    0    0  0.21325812166E+02 -0.25127544643E+02  0.28238951431E+02  0.43400715919E+02  0.00000000000E+00 0. -1.
         11    1    3    3    0    0 -0.94283323806E+01  0.89277058283E+01 -0.19624408284E+02  0.23531144970E+02  0.51100000000E-03 0. -1.
        -11    1    3    3    0    0 -0.22749980573E+01  0.10513190038E+02 -0.73048672130E+01  0.13002456160E+02  0.51100000000E-03 0.  1.
         12    1    3    3    0    0 -0.96224817281E+01  0.56866487765E+01 -0.13096759348E+01  0.11253682951E+02  0.00000000000E+00 0. -1.
</event>
<event>
 7    1  0.2328615E-009  0.4778727E+02  0.7816164E-02  0.1312668E+00
        -11   -1    0    0    0    0  0.00000000000E+00  0.00000000000E+00  0.45593999997E+02  0.45594000000E+02  0.51100000000E-03 0.  1.
         11   -1    0    0    0    0 -0.00000000000E+00 -0.00000000000E+00 -0.45593999997E+02  0.45594000000E+02  0.51100000000E-03 0. -1.
    9900012    2    1    2    0    0  0.30019638508E+02  0.21125944927E+02  0.23154674298E+02  0.47787272045E+02  0.20000004562E+02 0.  0.
         12    1    1    2    0    0 -0.30019638508E+02 -0.21125944927E+02 -0.23154674298E+02  0.43400727955E+02  0.00000000000E+00 0. -1.
         11    1    3    3    0    0  0.59112936158E+01 -0.91053464104E+00  0.60893283708E+01  0.85353609070E+01  0.51100000000E-03 0. -1.
        -11    1    3    3    0    0  0.15000312081E+02  0.11593523468E+02  0.16894911306E+02  0.25394038222E+02  0.51100000000E-03 0.  1.
        -12    1    3    3    0    0  0.91080328112E+01  0.10442956100E+02  0.17043462082E+00  0.13857872916E+02  0.00000000000E+00 0.  1.
</event>
<event>
 7    1  0.2328615E-009  0.4778727E+02  0.7816164E-02  0.1312668E+00
        -11   -1    0    0    0    0  0.00000000000E+00  0.00000000000E+00  0.45593999997E+02  0.45594000000E+02  0.51100000000E-03 0. -1.
         11   -1    0    0    0    0 -0.00000000000E+00 -0.00000000000E+00 -0.45593999997E+02  0.45594000000E+02  0.51100000000E-03 0.  1.
    9900012    2    1    2    0    0  0.12030869767E+02  0.33527790821E+02 -0.24794533502E+02  0.47787268713E+02  0.19999989371E+02 0.  0.
         12    1    1    2    0    0 -0.12030869767E+02 -0.33527790821E+02  0.24794533502E+02  0.43400731287E+02  0.00000000000E+00 0. -1.
         11    1    3    3    0    0 -0.96858063276E+00  0.12783788362E+02 -0.85864018906E+01  0.15430155249E+02  0.51100000000E-03 0. -1.
        -11    1    3    3    0    0  0.11226937365E+02  0.22125450204E+02 -0.11941975697E+02  0.27535258363E+02  0.51100000000E-03 0.  1.
         12    1    3    3    0    0  0.17725130344E+01 -0.13814477450E+01 -0.42661559146E+01  0.48218551012E+01  0.00000000000E+00 0. -1.
</event>
<event>
 7    1  0.2328615E-009  0.4778728E+02  0.7816164E-02  0.1312668E+00
        -11   -1    0    0    0    0  0.00000000000E+00  0.00000000000E+00  0.45593999997E+02  0.45594000000E+02  0.51100000000E-03 0. -1.
         11   -1    0    0    0    0 -0.00000000000E+00 -0.00000000000E+00 -0.45593999997E+02  0.45594000000E+02  0.51100000000E-03 0.  1.
    9900012    2    1    2    0    0 -0.33942430750E+02  0.86303445382E+01 -0.25633003279E+02  0.47787282159E+02  0.20000050674E+02 0.  0.
         12    1    1    2    0    0  0.33942430750E+02 -0.86303445382E+01  0.25633003279E+02  0.43400717841E+02  0.00000000000E+00 0. -1.
         11    1    3    3    0    0 -0.61282393314E+01 -0.14774626364E+01 -0.95778882797E+00  0.63761722722E+01  0.51100000000E-03 0.  1.
        -11    1    3    3    0    0 -0.14486004192E+02 -0.15211542709E+01 -0.61898884244E+01  0.15826337123E+02  0.51100000000E-03 0. -1.
        -12    1    3    3    0    0 -0.13328187226E+02  0.11628961445E+02 -0.18485326027E+02  0.25584772764E+02  0.00000000000E+00 0.  1.
</event>
<event>
 7    1  0.2328615E-009  0.4778723E+02  0.7816164E-02  0.1312668E+00
        -11   -1    0    0    0    0  0.00000000000E+00  0.00000000000E+00  0.45593999997E+02  0.45594000000E+02  0.51100000000E-03 0.  1.
         11   -1    0    0    0    0 -0.00000000000E+00 -0.00000000000E+00 -0.45593999997E+02  0.45594000000E+02  0.51100000000E-03 0. -1.
    9900012    2    1    2    0    0  0.42657078708E+02  0.79997475503E+01  0.65743960844E-01  0.47787232184E+02  0.19999822818E+02 0.  0.
         12    1    1    2    0    0 -0.42657078708E+02 -0.79997475503E+01 -0.65743960844E-01  0.43400767816E+02  0.00000000000E+00 0. -1.
         11    1    3    3    0    0  0.54105410541E+01 -0.24946665580E+01  0.43228187951E+01  0.73609835165E+01  0.51100000000E-03 0. -1.
        -11    1    3    3    0    0  0.11180550185E+02 -0.90797064478E-02 -0.51494931985E+01  0.12309429936E+02  0.51100000000E-03 0.  1.
         12    1    3    3    0    0  0.26065987469E+02  0.10503493815E+02  0.89241836427E+00  0.28116818731E+02  0.00000000000E+00 0. -1.
</event>
<event>
 7    1  0.2328615E-009  0.4778727E+02  0.7816164E-02  0.1312668E+00
        -11   -1    0    0    0    0  0.00000000000E+00  0.00000000000E+00  0.45593999997E+02  0.45594000000E+02  0.51100000000E-03 0. -1.
         11   -1    0    0    0    0 -0.00000000000E+00 -0.00000000000E+00 -0.45593999997E+02  0.45594000000E+02  0.51100000000E-03 0.  1.
    9900012    2    1    2    0    0 -0.33331238715E+02  0.19113491620E+02 -0.20182327256E+02  0.47787269941E+02  0.19999994969E+02 0.  0.
         12    1    1    2    0    0  0.33331238715E+02 -0.19113491620E+02  0.20182327256E+02  0.43400730059E+02  0.00000000000E+00 0. -1.
         11    1    3    3    0    0 -0.17736695385E+02  0.84512885654E+01 -0.53378223702E+01  0.20359444725E+02  0.51100000000E-03 0. -1.
        -11    1    3    3    0    0 -0.17944194411E+02  0.84806621009E+01 -0.12496091672E+02  0.23453529586E+02  0.51100000000E-03 0.  1.
        -12    1    3    3    0    0  0.23496510803E+01  0.21815409535E+01 -0.23484132140E+01  0.39742956300E+01  0.00000000000E+00 0.  1.
</event>
<event>
 7    1  0.2328615E-009  0.4778727E+02  0.7816164E-02  0.1312668E+00
        -11   -1    0    0    0    0  0.00000000000E+00  0.00000000000E+00  0.45593999997E+02  0.45594000000E+02  0.51100000000E-03 0.  1.
         11   -1    0    0    0    0 -0.00000000000E+00 -0.00000000000E+00 -0.45593999997E+02  0.45594000000E+02  0.51100000000E-03 0. -1.
    9900012    2    1    2    0    0 -0.35760432826E+02  0.24048501450E+02 -0.51462714029E+01  0.47787273195E+02  0.20000009805E+02 0.  0.
         12    1    1    2    0    0  0.35760432826E+02 -0.24048501450E+02  0.51462714029E+01  0.43400726805E+02  0.00000000000E+00 0. -1.
         11    1    3    3    0    0 -0.82313735435E+00 -0.40477932996E+00 -0.20239795687E+01  0.22221374768E+01  0.51100000000E-03 0. -1.
        -11    1    3    3    0    0 -0.28144099204E+02  0.12600676762E+02 -0.64519735904E+01  0.31503894018E+02  0.51100000000E-03 0.  1.
         12    1    3    3    0    0 -0.67931962677E+01  0.11852604018E+02  0.33296817562E+01  0.14061241700E+02  0.00000000000E+00 0. -1.
</event>
<event>
 7    1  0.2328615E-009  0.4778727E+02  0.7816164E-02  0.1312668E+00
        -11   -1    0    0    0    0  0.00000000000E+00  0.00000000000E+00  0.45593999997E+02  0.45594000000E+02  0.51100000000E-03 0.  1.
         11   -1    0    0    0    0 -0.00000000000E+00 -0.00000000000E+00 -0.45593999997E+02  0.45594000000E+02  0.51100000000E-03 0. -1.
    9900012    2    1    2    0    0  0.28271184854E+02  0.23465322178E+02  0.23102858456E+02  0.47787270665E+02  0.19999998270E+02 0.  0.
         12    1    1    2    0    0 -0.28271184854E+02 -0.23465322178E+02 -0.23102858456E+02  0.43400729335E+02  0.00000000000E+00 0. -1.
         11    1    3    3    0    0 -0.13022652810E+01 -0.40031984983E+00 -0.11281357312E+01  0.17688531124E+01  0.51100000000E-03 0. -1.
        -11    1    3    3    0    0 -0.36138471422E+00 -0.13924972293E+00  0.12121332106E+01  0.12725001291E+01  0.51100000000E-03 0.  1.
        -12    1    3    3    0    0  0.29934834849E+02  0.24004891751E+02  0.23018860977E+02  0.44745917424E+02  0.00000000000E+00 0.  1.
</event>
<event>
 7    1  0.2328615E-009  0.4778727E+02  0.7816164E-02  0.1312668E+00
        -11   -1    0    0    0    0  0.00000000000E+00  0.00000000000E+00  0.45593999997E+02  0.45594000000E+02  0.51100000000E-03 0.  1.
         11   -1    0    0    0    0 -0.00000000000E+00 -0.00000000000E+00 -0.45593999997E+02  0.45594000000E+02  0.51100000000E-03 0. -1.
    9900012    2    1    2    0    0  0.36874018429E+02  0.69426862814E+01  0.21811211342E+02  0.47787273415E+02  0.20000010809E+02 0.  0.
         12    1    1    2    0    0 -0.36874018429E+02 -0.69426862814E+01 -0.21811211342E+02  0.43400726585E+02  0.00000000000E+00 0. -1.
         11    1    3    3    0    0  0.70573883389E+01  0.58299989782E+01  0.32901261088E+00  0.91599054478E+01  0.51100000000E-03 0. -1.
        -11    1    3    3    0    0  0.12646268918E+02  0.58666293565E+01  0.12264349993E+02  0.18567706874E+02  0.51100000000E-03 0.  1.
         12    1    3    3    0    0  0.17170361172E+02 -0.47539420534E+01  0.92178487378E+01  0.20059661093E+02  0.00000000000E+00 0. -1.
</event>
<event>
 7    1  0.2328615E-009  0.4778728E+02  0.7816164E-02  0.1312668E+00
        -11   -1    0    0    0    0  0.00000000000E+00  0.00000000000E+00  0.45593999997E+02  0.45594000000E+02  0.51100000000E-03 0.  1.
         11   -1    0    0    0    0 -0.00000000000E+00 -0.00000000000E+00 -0.45593999997E+02  0.45594000000E+02  0.51100000000E-03 0. -1.
    9900012    2    1    2    0    0 -0.33062300260E+02 -0.26565062131E+02 -0.92089049913E+01  0.47787283927E+02  0.20000058739E+02 0.  0.
         12    1    1    2    0    0  0.33062300260E+02  0.26565062131E+02  0.92089049913E+01  0.43400716073E+02  0.00000000000E+00 0. -1.
         11    1    3    3    0    0 -0.12428095445E+02 -0.11360915717E+02 -0.80888003152E+01  0.18680381504E+02  0.51100000000E-03 0. -1.
        -11    1    3    3    0    0 -0.10871102272E+02 -0.15584391059E+02 -0.27564623599E+01  0.19200317557E+02  0.51100000000E-03 0.  1.
         12    1    3    3    0    0 -0.97631025426E+01  0.38024464577E+00  0.16363576838E+01  0.99065848665E+01  0.00000000000E+00 0. -1.
</event>
<event>
 7    1  0.2328615E-009  0.4778730E+02  0.7816164E-02  0.1312668E+00
        -11   -1    0    0    0    0  0.00000000000E+00  0.00000000000E+00  0.45593999997E+02  0.45594000000E+02  0.51100000000E-03 0.  1.
         11   -1    0    0    0    0 -0.00000000000E+00 -0.00000000000E+00 -0.45593999997E+02  0.45594000000E+02  0.51100000000E-03 0. -1.
    9900012    2    1    2    0    0  0.27745708797E+02  0.24703819092E+02  0.22439208452E+02  0.47787295970E+02  0.20000113644E+02 0.  0.
         12    1    1    2    0    0 -0.27745708797E+02 -0.24703819092E+02 -0.22439208452E+02  0.43400704030E+02  0.00000000000E+00 0. -1.
         11    1    3    3    0    0  0.12147858716E+02  0.89766540200E+01  0.17949144800E+02  0.23458955392E+02  0.51100000000E-03 0. -1.
        -11    1    3    3    0    0  0.52525980907E+01  0.97191767070E+01  0.54647675369E+01  0.12325415492E+02  0.51100000000E-03 0.  1.
        -12    1    3    3    0    0  0.10345251990E+02  0.60079883645E+01 -0.97470388514E+00  0.12002925085E+02  0.00000000000E+00 0.  1.
</event>
<event>
 7    1  0.2328615E-009  0.4778726E+02  0.7816164E-02  0.1312668E+00
        -11   -1    0    0    0    0  0.00000000000E+00  0.00000000000E+00  0.45593999997E+02  0.45594000000E+02  0.51100000000E-03 0.  1.
         11   -1    0    0    0    0 -0.00000000000E+00 -0.00000000000E+00 -0.45593999997E+02  0.45594000000E+02  0.51100000000E-03 0. -1.
    9900012    2    1    2    0    0  0.89053907915E+01 -0.28702725316E+01  0.42380179803E+02  0.47787261646E+02  0.19999957147E+02 0.  0.
         12    1    1    2    0    0 -0.89053907915E+01  0.28702725316E+01 -0.42380179803E+02  0.43400738354E+02  0.00000000000E+00 0. -1.
         11    1    3    3    0    0  0.86504446418E+01 -0.96162186161E+01  0.18062374770E+02  0.22216013044E+02  0.51100000000E-03 0. -1.
        -11    1    3    3    0    0  0.12926697095E+01  0.22932579783E+01  0.43319056143E+01  0.50690663484E+01  0.51100000000E-03 0.  1.
         12    1    3    3    0    0 -0.10377235598E+01  0.44526881062E+01  0.19985899419E+02  0.20502182254E+02  0.00000000000E+00 0. -1.
</event>
<event>
 7    1  0.2328615E-009  0.4778727E+02  0.7816164E-02  0.1312668E+00
        -11   -1    0    0    0    0  0.00000000000E+00  0.00000000000E+00  0.45593999997E+02  0.45594000000E+02  0.51100000000E-03 0.  1.
         11   -1    0    0    0    0 -0.00000000000E+00 -0.00000000000E+00 -0.45593999997E+02  0.45594000000E+02  0.51100000000E-03 0. -1.
    9900012    2    1    2    0    0 -0.15280871398E+02 -0.38134540606E+02  0.13995537686E+02  0.47787270824E+02  0.19999998993E+02 0.  0.
         12    1    1    2    0    0  0.15280871398E+02  0.38134540606E+02 -0.13995537686E+02  0.43400729176E+02  0.00000000000E+00 0. -1.
         11    1    3    3    0    0  0.14810259132E+01 -0.33363008186E+01 -0.62405018355E+00  0.37032120923E+01  0.51100000000E-03 0. -1.
        -11    1    3    3    0    0 -0.67367412649E+01 -0.21081885722E+02  0.73768680548E+00  0.22144384628E+02  0.51100000000E-03 0.  1.
         12    1    3    3    0    0 -0.10025156047E+02 -0.13716354066E+02  0.13881901064E+02  0.21939674103E+02  0.00000000000E+00 0. -1.
</event>
<event>
 7    1  0.2328615E-009  0.4778727E+02  0.7816164E-02  0.1312668E+00
        -11   -1    0    0    0    0  0.00000000000E+00  0.00000000000E+00  0.45593999997E+02  0.45594000000E+02  0.51100000000E-03 0.  1.
         11   -1    0    0    0    0 -0.00000000000E+00 -0.00000000000E+00 -0.45593999997E+02  0.45594000000E+02  0.51100000000E-03 0. -1.
    9900012    2    1    2    0    0  0.13582698933E+02 -0.40449364616E+02  0.79361701822E+01  0.47787267226E+02  0.19999982592E+02 0.  0.
         12    1    1    2    0    0 -0.13582698933E+02  0.40449364616E+02 -0.79361701822E+01  0.43400732774E+02  0.00000000000E+00 0. -1.
         11    1    3    3    0    0 -0.56244952229E+00 -0.32259982712E+01 -0.44398099229E+00  0.33046230789E+01  0.51100000000E-03 0. -1.
        -11    1    3    3    0    0  0.12130596246E+02 -0.31984336403E+02  0.13605527338E+02  0.36813849497E+02  0.51100000000E-03 0.  1.
        -12    1    3    3    0    0  0.20145522091E+01 -0.52390299420E+01 -0.52253761637E+01  0.76687946503E+01  0.00000000000E+00 0.  1.
</event>
<event>
 7    1  0.2328615E-009  0.4778727E+02  0.7816164E-02  0.1312668E+00
        -11   -1    0    0    0    0  0.00000000000E+00  0.00000000000E+00  0.45593999997E+02  0.45594000000E+02  0.51100000000E-03 0.  1.
         11   -1    0    0    0    0 -0.00000000000E+00 -0.00000000000E+00 -0.45593999997E+02  0.45594000000E+02  0.51100000000E-03 0. -1.
    9900012    2    1    2    0    0  0.11790849301E+02 -0.13549177904E+02  0.39509731011E+02  0.47787271968E+02  0.20000004213E+02 0.  0.
         12    1    1    2    0    0 -0.11790849301E+02  0.13549177904E+02 -0.39509731011E+02  0.43400728032E+02  0.00000000000E+00 0. -1.
         11    1    3    3    0    0  0.39724117786E+01 -0.52956812683E+01  0.40372154394E+01  0.77539283076E+01  0.51100000000E-03 0.  1.
        -11    1    3    3    0    0  0.90136015370E+01  0.70445947506E+00  0.13222303040E+02  0.16017820506E+02  0.51100000000E-03 0. -1.
         12    1    3    3    0    0 -0.11951640149E+01 -0.89579561103E+01  0.22250212531E+02  0.24015523155E+02  0.00000000000E+00 0. -1.
</event>
<event>
 7    1  0.2328615E-009  0.4778727E+02  0.7816164E-02  0.1312668E+00
        -11   -1    0    0    0    0  0.00000000000E+00  0.00000000000E+00  0.45593999997E+02  0.45594000000E+02  0.51100000000E-03 0.  1.
         11   -1    0    0    0    0 -0.00000000000E+00 -0.00000000000E+00 -0.45593999997E+02  0.45594000000E+02  0.51100000000E-03 0. -1.
    9900012    2    1    2    0    0  0.39030160762E+02  0.12487595422E+02  0.14294399503E+02  0.47787270217E+02  0.19999996227E+02 0.  0.
         12    1    1    2    0    0 -0.39030160762E+02 -0.12487595422E+02 -0.14294399503E+02  0.43400729783E+02  0.00000000000E+00 0. -1.
         11    1    3    3    0    0  0.30349200869E+00 -0.13692555433E+01  0.19984719690E+01  0.24414869678E+01  0.51100000000E-03 0. -1.
        -11    1    3    3    0    0  0.21491637705E+02  0.96770953885E+01  0.14187787756E+02  0.27510543217E+02  0.51100000000E-03 0.  1.
        -12    1    3    3    0    0  0.17235031048E+02  0.41797555771E+01 -0.18918602215E+01  0.17835240033E+02  0.00000000000E+00 0.  1.
</event>
<event>
 7    1  0.2328615E-009  0.4778726E+02  0.7816164E-02  0.1312668E+00
        -11   -1    0    0    0    0  0.00000000000E+00  0.00000000000E+00  0.45593999997E+02  0.45594000000E+02  0.51100000000E-03 0.  1.
         11   -1    0    0    0    0 -0.00000000000E+00 -0.00000000000E+00 -0.45593999997E+02  0.45594000000E+02  0.51100000000E-03 0. -1.
    9900012    2    1    2    0    0  0.43228060444E+02  0.37368637427E+01  0.99752202958E+00  0.47787257949E+02  0.19999940292E+02 0.  0.
         12    1    1    2    0    0 -0.43228060444E+02 -0.37368637427E+01 -0.99752202958E+00  0.43400742051E+02  0.00000000000E+00 0. -1.
         11    1    3    3    0    0  0.25264047566E+01 -0.14142397558E+01 -0.65295185537E+00  0.29680197889E+01  0.51100000000E-03 0. -1.
        -11    1    3    3    0    0  0.39759272089E+02  0.39358033825E+00  0.27150669476E+01  0.39853810499E+02  0.51100000000E-03 0.  1.
         12    1    3    3    0    0  0.94238359870E+00  0.47575231602E+01 -0.10645930626E+01  0.49654276609E+01  0.00000000000E+00 0. -1.
</event>
<event>
 7    1  0.2328615E-009  0.4778726E+02  0.7816164E-02  0.1312668E+00
        -11   -1    0    0    0    0  0.00000000000E+00  0.00000000000E+00  0.45593999997E+02  0.45594000000E+02  0.51100000000E-03 0.  1.
         11   -1    0    0    0    0 -0.00000000000E+00 -0.00000000000E+00 -0.45593999997E+02  0.45594000000E+02  0.51100000000E-03 0. -1.
    9900012    2    1    2    0    0  0.17865710222E+02  0.11455157998E+02  0.37857887114E+02  0.47787264255E+02  0.19999969045E+02 0.  0.
         12    1    1    2    0    0 -0.17865710222E+02 -0.11455157998E+02 -0.37857887114E+02  0.43400735745E+02  0.00000000000E+00 0. -1.
         11    1    3    3    0    0  0.43283168993E+01  0.31564155404E+01  0.28784694456E+02  0.29278933065E+02  0.51100000000E-03 0. -1.
        -11    1    3    3    0    0  0.36584633215E+01  0.88240900143E+00  0.17801099008E+01  0.41631467714E+01  0.51100000000E-03 0.  1.
         12    1    3    3    0    0  0.98789300010E+01  0.74163334564E+01  0.72930827565E+01  0.14345184418E+02  0.00000000000E+00 0. -1.
</event>
<event>
 7    1  0.2328615E-009  0.4778727E+02  0.7816164E-02  0.1312668E+00
        -11   -1    0    0    0    0  0.00000000000E+00  0.00000000000E+00  0.45593999997E+02  0.45594000000E+02  0.51100000000E-03 0. -1.
         11   -1    0    0    0    0 -0.00000000000E+00 -0.00000000000E+00 -0.45593999997E+02  0.45594000000E+02  0.51100000000E-03 0.  1.
    9900012    2    1    2    0    0 -0.21846458332E+02  0.18251078086E+02 -0.32760552273E+02  0.47787269843E+02  0.19999994520E+02 0.  0.
         12    1    1    2    0    0  0.21846458332E+02 -0.18251078086E+02  0.32760552273E+02  0.43400730157E+02  0.00000000000E+00 0. -1.
         11    1    3    3    0    0 -0.48077922806E+01  0.48169157988E+01 -0.84089264164E+01  0.10817929015E+02  0.51100000000E-03 0. -1.
        -11    1    3    3    0    0 -0.19525983711E+02  0.11129368487E+02 -0.24890266961E+02  0.33535835645E+02  0.51100000000E-03 0.  1.
         12    1    3    3    0    0  0.24873176595E+01  0.23047938008E+01  0.53864110383E+00  0.34335051831E+01  0.00000000000E+00 0. -1.
</event>
<event>
 7    1  0.2328615E-009  0.4778727E+02  0.7816164E-02  0.1312668E+00
        -11   -1    0    0    0    0  0.00000000000E+00  0.00000000000E+00  0.45593999997E+02  0.45594000000E+02  0.51100000000E-03 0.  1.
         11   -1    0    0    0    0 -0.00000000000E+00 -0.00000000000E+00 -0.45593999997E+02  0.45594000000E+02  0.51100000000E-03 0. -1.
    9900012    2    1    2    0    0 -0.34892647871E+02 -0.17867548260E+01  0.25747501571E+02  0.47787271833E+02  0.20000003596E+02 0.  0.
         12    1    1    2    0    0  0.34892647871E+02  0.17867548260E+01 -0.25747501571E+02  0.43400728167E+02  0.00000000000E+00 0. -1.
         11    1    3    3    0    0  0.12983664414E+01  0.12769430599E+01  0.70091207955E+00  0.19513116099E+01  0.51100000000E-03 0. -1.
        -11    1    3    3    0    0 -0.24143021123E+01  0.31933018634E+01  0.20500713844E+01  0.44976465426E+01  0.51100000000E-03 0.  1.
        -12    1    3    3    0    0 -0.33776712200E+02 -0.62569997494E+01  0.22996518107E+02  0.41338313681E+02  0.00000000000E+00 0.  1.
</event>
<event>
 7    1  0.2328615E-009  0.4778727E+02  0.7816164E-02  0.1312668E+00
        -11   -1    0    0    0    0  0.00000000000E+00  0.00000000000E+00  0.45593999997E+02  0.45594000000E+02  0.51100000000E-03 0.  1.
         11   -1    0    0    0    0 -0.00000000000E+00 -0.00000000000E+00 -0.45593999997E+02  0.45594000000E+02  0.51100000000E-03 0. -1.
    9900012    2    1    2    0    0 -0.18694366042E+02  0.31103129148E+02  0.23806287784E+02  0.47787270714E+02  0.19999998493E+02 0.  0.
         12    1    1    2    0    0  0.18694366042E+02 -0.31103129148E+02 -0.23806287784E+02  0.43400729286E+02  0.00000000000E+00 0. -1.
         11    1    3    3    0    0 -0.43918860087E+01 -0.37756621154E+00 -0.32210277279E+00  0.44198381661E+01  0.51100000000E-03 0. -1.
        -11    1    3    3    0    0 -0.13602629668E+01  0.17313684498E+01  0.55755660947E+01  0.59945716765E+01  0.51100000000E-03 0.  1.
         12    1    3    3    0    0 -0.12942217067E+02  0.29749326910E+02  0.18552824462E+02  0.37372860871E+02  0.00000000000E+00 0. -1.
</event>
<event>
 7    1  0.2328615E-009  0.4778727E+02  0.7816164E-02  0.1312668E+00
        -11   -1    0    0    0    0  0.00000000000E+00  0.00000000000E+00  0.45593999997E+02  0.45594000000E+02  0.51100000000E-03 0.  1.
         11   -1    0    0    0    0 -0.00000000000E+00 -0.00000000000E+00 -0.45593999997E+02  0.45594000000E+02  0.51100000000E-03 0. -1.
    9900012    2    1    2    0    0  0.21080694842E+02 -0.36674055221E+02  0.97077931158E+01  0.47787271106E+02  0.20000000281E+02 0.  0.
         12    1    1    2    0    0 -0.21080694842E+02  0.36674055221E+02 -0.97077931158E+01  0.43400728894E+02  0.00000000000E+00 0. -1.
         11    1    3    3    0    0  0.68181037264E+01 -0.79424571900E+01 -0.33323420231E+01  0.10985156724E+02  0.51100000000E-03 0. -1.
        -11    1    3    3    0    0 -0.22354424299E+01 -0.49418265248E+01  0.27140945140E+01  0.60650772089E+01  0.51100000000E-03 0.  1.
        -12    1    3    3    0    0  0.16498033545E+02 -0.23789771506E+02  0.10326040625E+02  0.30737037173E+02  0.00000000000E+00 0.  1.
</event>
<event>
 7    1  0.2328615E-009  0.4778727E+02  0.7816164E-02  0.1312668E+00
        -11   -1    0    0    0    0  0.00000000000E+00  0.00000000000E+00  0.45593999997E+02  0.45594000000E+02  0.51100000000E-03 0.  1.
         11   -1    0    0    0    0 -0.00000000000E+00 -0.00000000000E+00 -0.45593999997E+02  0.45594000000E+02  0.51100000000E-03 0. -1.
    9900012    2    1    2    0    0 -0.13057498958E+02 -0.19785351347E+02  0.36354711317E+02  0.47787269109E+02  0.19999991174E+02 0.  0.
         12    1    1    2    0    0  0.13057498958E+02  0.19785351347E+02 -0.36354711317E+02  0.43400730891E+02  0.00000000000E+00 0. -1.
         11    1    3    3    0    0 -0.21195448527E+00 -0.14657951514E+01 -0.25955570349E+00  0.15036121687E+01  0.51100000000E-03 0.  1.
        -11    1    3    3    0    0 -0.13323761152E+02 -0.21361865725E+02  0.33476388243E+02  0.41886996652E+02  0.51100000000E-03 0. -1.
         12    1    3    3    0    0  0.47821667926E+00  0.30423095290E+01  0.31378787772E+01  0.43966602875E+01  0.00000000000E+00 0. -1.
</event>
<event>
 7    1  0.2328615E-009  0.4778728E+02  0.7816164E-02  0.1312668E+00
        -11   -1    0    0    0    0  0.00000000000E+00  0.00000000000E+00  0.45593999997E+02  0.45594000000E+02  0.51100000000E-03 0.  1.
         11   -1    0    0    0    0 -0.00000000000E+00 -0.00000000000E+00 -0.45593999997E+02  0.45594000000E+02  0.51100000000E-03 0. -1.
    9900012    2    1    2    0    0 -0.35727761221E+02  0.23641814910E+02 -0.69436573421E+01  0.47787277525E+02  0.20000029547E+02 0.  0.
         12    1    1    2    0    0  0.35727761221E+02 -0.23641814910E+02  0.69436573421E+01  0.43400722475E+02  0.00000000000E+00 0. -1.
         11    1    3    3    0    0 -0.23882816722E+01  0.61483663082E+01  0.17994367754E+01  0.68369781757E+01  0.51100000000E-03 0. -1.
        -11    1    3    3    0    0 -0.13198156454E+01  0.52425800173E+01 -0.30203873314E+01  0.61926810405E+01  0.51100000000E-03 0.  1.
        -12    1    3    3    0    0 -0.32019663903E+02  0.12250868584E+02 -0.57227067861E+01  0.34757618309E+02  0.00000000000E+00 0.  1.
</event>
<event>
 7    1  0.2328615E-009  0.4778727E+02  0.7816164E-02  0.1312668E+00
        -11   -1    0    0    0    0  0.00000000000E+00  0.00000000000E+00  0.45593999997E+02  0.45594000000E+02  0.51100000000E-03 0. -1.
         11   -1    0    0    0    0 -0.00000000000E+00 -0.00000000000E+00 -0.45593999997E+02  0.45594000000E+02  0.51100000000E-03 0.  1.
    9900012    2    1    2    0    0 -0.41928539348E+02  0.84371359875E+01 -0.73780488362E+01  0.47787270972E+02  0.19999999670E+02 0.  0.
         12    1    1    2    0    0  0.41928539348E+02 -0.84371359875E+01  0.73780488362E+01  0.43400729028E+02  0.00000000000E+00 0. -1.
         11    1    3    3    0    0 -0.14074234768E+01  0.16434615352E+01  0.23930369723E+01  0.32262102958E+01  0.51100000000E-03 0. -1.
        -11    1    3    3    0    0  0.10088741243E+01  0.13994575441E+00  0.67718007424E+00  0.12231046263E+01  0.51100000000E-03 0.  1.
        -12    1    3    3    0    0 -0.41529989996E+02  0.66537286979E+01 -0.10448265883E+02  0.43337956050E+02  0.00000000000E+00 0.  1.
</event>
<event>
 7    1  0.2328615E-009  0.4778727E+02  0.7816164E-02  0.1312668E+00
        -11   -1    0    0    0    0  0.00000000000E+00  0.00000000000E+00  0.45593999997E+02  0.45594000000E+02  0.51100000000E-03 0.  1.
         11   -1    0    0    0    0 -0.00000000000E+00 -0.00000000000E+00 -0.45593999997E+02  0.45594000000E+02  0.51100000000E-03 0. -1.
    9900012    2    1    2    0    0  0.65023088670E+01 -0.36151764350E+02  0.23116951347E+02  0.47787268142E+02  0.19999986769E+02 0.  0.
         12    1    1    2    0    0 -0.65023088670E+01  0.36151764350E+02 -0.23116951347E+02  0.43400731858E+02  0.00000000000E+00 0. -1.
         11    1    3    3    0    0 -0.12676185450E+01 -0.20326074172E+02  0.14824122869E+02  0.25189497159E+02  0.51100000000E-03 0. -1.
        -11    1    3    3    0    0 -0.25971626502E+01 -0.61295921237E+01  0.13357321753E+01  0.67897963254E+01  0.51100000000E-03 0.  1.
         12    1    3    3    0    0  0.10367090062E+02 -0.96960980535E+01  0.69570963024E+01  0.15807974658E+02  0.00000000000E+00 0. -1.
</event>
<event>
 7    1  0.2328615E-009  0.4778727E+02  0.7816164E-02  0.1312668E+00
        -11   -1    0    0    0    0  0.00000000000E+00  0.00000000000E+00  0.45593999997E+02  0.45594000000E+02  0.51100000000E-03 0. -1.
         11   -1    0    0    0    0 -0.00000000000E+00 -0.00000000000E+00 -0.45593999997E+02  0.45594000000E+02  0.51100000000E-03 0.  1.
    9900012    2    1    2    0    0 -0.36527089689E+02  0.23322380470E+02  0.23369853049E+01  0.47787271754E+02  0.20000003236E+02 0.  0.
         12    1    1    2    0    0  0.36527089689E+02 -0.23322380470E+02 -0.23369853049E+01  0.43400728246E+02  0.00000000000E+00 0. -1.
         11    1    3    3    0    0 -0.16295242751E+02  0.54400158962E+01  0.97249433535E+00  0.17206814195E+02  0.51100000000E-03 0. -1.
        -11    1    3    3    0    0 -0.10212633288E+02  0.35789920404E+01  0.61843879598E+01  0.12464097135E+02  0.51100000000E-03 0.  1.
        -12    1    3    3    0    0 -0.10019213651E+02  0.14303372533E+02 -0.48198969903E+01  0.18116360424E+02  0.00000000000E+00 0.  1.
</event>
<event>
 7    1  0.2328615E-009  0.4778727E+02  0.7816164E-02  0.1312668E+00
        -11   -1    0    0    0    0  0.00000000000E+00  0.00000000000E+00  0.45593999997E+02  0.45594000000E+02  0.51100000000E-03 0.  1.
         11   -1    0    0    0    0 -0.00000000000E+00 -0.00000000000E+00 -0.45593999997E+02  0.45594000000E+02  0.51100000000E-03 0. -1.
    9900012    2    1    2    0    0  0.13296416789E+02 -0.34223989485E+02  0.23141890415E+02  0.47787271347E+02  0.20000001378E+02 0.  0.
         12    1    1    2    0    0 -0.13296416789E+02  0.34223989485E+02 -0.23141890415E+02  0.43400728653E+02  0.00000000000E+00 0. -1.
         11    1    3    3    0    0 -0.12289724741E+01 -0.24553680596E+01  0.63437582967E+01  0.69124869069E+01  0.51100000000E-03 0. -1.
        -11    1    3    3    0    0 -0.98618631471E+00 -0.87969605209E+01  0.76092698146E+01  0.11673048669E+02  0.51100000000E-03 0.  1.
        -12    1    3    3    0    0  0.15511575578E+02 -0.22971660904E+02  0.91888623034E+01  0.29201735771E+02  0.00000000000E+00 0.  1.
</event>
<event>
 7    1  0.2328615E-009  0.4778727E+02  0.7816164E-02  0.1312668E+00
        -11   -1    0    0    0    0  0.00000000000E+00  0.00000000000E+00  0.45593999997E+02  0.45594000000E+02  0.51100000000E-03 0. -1.
         11   -1    0    0    0    0 -0.00000000000E+00 -0.00000000000E+00 -0.45593999997E+02  0.45594000000E+02  0.51100000000E-03 0.  1.
    9900012    2    1    2    0    0  0.36558577511E+02  0.12317383792E+02 -0.19884058201E+02  0.47787270702E+02  0.19999998438E+02 0.  0.
         12    1    1    2    0    0 -0.36558577511E+02 -0.12317383792E+02  0.19884058201E+02  0.43400729298E+02  0.00000000000E+00 0. -1.
         11    1    3    3    0    0  0.16663545692E+02  0.14137450489E+02 -0.11910154362E+02  0.24887608132E+02  0.51100000000E-03 0. -1.
        -11    1    3    3    0    0  0.21345747173E+01  0.68357218129E+00  0.14191871456E+01  0.26528800513E+01  0.51100000000E-03 0.  1.
        -12    1    3    3    0    0  0.17760457101E+02 -0.25036388789E+01 -0.93930909849E+01  0.20246782518E+02  0.00000000000E+00 0.  1.
</event>
<event>
 7    1  0.2328615E-009  0.4778726E+02  0.7816164E-02  0.1312668E+00
        -11   -1    0    0    0    0  0.00000000000E+00  0.00000000000E+00  0.45593999997E+02  0.45594000000E+02  0.51100000000E-03 0. -1.
         11   -1    0    0    0    0 -0.00000000000E+00 -0.00000000000E+00 -0.45593999997E+02  0.45594000000E+02  0.51100000000E-03 0.  1.
    9900012    2    1    2    0    0 -0.34691070436E+02  0.19255647598E+02 -0.17589020254E+02  0.47787263072E+02  0.19999963650E+02 0.  0.
         12    1    1    2    0    0  0.34691070436E+02 -0.19255647598E+02  0.17589020254E+02  0.43400736928E+02  0.00000000000E+00 0. -1.
         11    1    3    3    0    0 -0.14901045619E+02  0.26139883136E+01 -0.48840245967E+01  0.15897414631E+02  0.51100000000E-03 0. -1.
        -11    1    3    3    0    0 -0.14992810962E+02  0.64996914460E+01 -0.21427316976E+01  0.16480948663E+02  0.51100000000E-03 0.  1.
         12    1    3    3    0    0 -0.47972138551E+01  0.10141967838E+02 -0.10562263960E+02  0.15408899778E+02  0.00000000000E+00 0. -1.
</event>
<event>
 7    1  0.2328615E-009  0.4778727E+02  0.7816164E-02  0.1312668E+00
        -11   -1    0    0    0    0  0.00000000000E+00  0.00000000000E+00  0.45593999997E+02  0.45594000000E+02  0.51100000000E-03 0.  1.
         11   -1    0    0    0    0 -0.00000000000E+00 -0.00000000000E+00 -0.45593999997E+02  0.45594000000E+02  0.51100000000E-03 0. -1.
    9900012    2    1    2    0    0 -0.55618898210E+01  0.14030790977E+02  0.40691837963E+02  0.47787269699E+02  0.19999993868E+02 0.  0.
         12    1    1    2    0    0  0.55618898210E+01 -0.14030790977E+02 -0.40691837963E+02  0.43400730301E+02  0.00000000000E+00 0. -1.
         11    1    3    3    0    0  0.24468188988E+01 -0.27479514223E+01  0.25922968688E+01  0.45009069152E+01  0.51100000000E-03 0. -1.
        -11    1    3    3    0    0 -0.39835097845E+01  0.79467159618E+00  0.76855528466E+01  0.86929612888E+01  0.51100000000E-03 0.  1.
        -12    1    3    3    0    0 -0.40251989353E+01  0.15984070803E+02  0.30413988247E+02  0.34593401495E+02  0.00000000000E+00 0.  1.
</event>
<event>
 7    1  0.2328615E-009  0.4778727E+02  0.7816164E-02  0.1312668E+00
        -11   -1    0    0    0    0  0.00000000000E+00  0.00000000000E+00  0.45593999997E+02  0.45594000000E+02  0.51100000000E-03 0. -1.
         11   -1    0    0    0    0 -0.00000000000E+00 -0.00000000000E+00 -0.45593999997E+02  0.45594000000E+02  0.51100000000E-03 0.  1.
    9900012    2    1    2    0    0  0.16238185869E+02  0.40140230078E+02 -0.29506512979E+01  0.47787273116E+02  0.20000009443E+02 0.  0.
         12    1    1    2    0    0 -0.16238185869E+02 -0.40140230078E+02  0.29506512979E+01  0.43400726884E+02  0.00000000000E+00 0. -1.
         11    1    3    3    0    0  0.22752410692E+01  0.96853814683E+01 -0.31350328315E+01  0.10431287899E+02  0.51100000000E-03 0. -1.
        -11    1    3    3    0    0 -0.67406369621E+00  0.14222753685E+02 -0.46349348566E+01  0.14974101163E+02  0.51100000000E-03 0.  1.
         12    1    3    3    0    0  0.14637008496E+02  0.16232094925E+02  0.48193163903E+01  0.22381884054E+02  0.00000000000E+00 0. -1.
</event>
<event>
 7    1  0.2328615E-009  0.4778726E+02  0.7816164E-02  0.1312668E+00
        -11   -1    0    0    0    0  0.00000000000E+00  0.00000000000E+00  0.45593999997E+02  0.45594000000E+02  0.51100000000E-03 0. -1.
         11   -1    0    0    0    0 -0.00000000000E+00 -0.00000000000E+00 -0.45593999997E+02  0.45594000000E+02  0.51100000000E-03 0.  1.
    9900012    2    1    2    0    0  0.36577260386E+02 -0.17636818283E+02 -0.15318973376E+02  0.47787259433E+02  0.19999947057E+02 0.  0.
         12    1    1    2    0    0 -0.36577260386E+02  0.17636818283E+02  0.15318973376E+02  0.43400740567E+02  0.00000000000E+00 0. -1.
         11    1    3    3    0    0  0.11251261357E+02 -0.71780368612E+01  0.21478113332E+01  0.13517699105E+02  0.51100000000E-03 0. -1.
        -11    1    3    3    0    0  0.16723188541E+02 -0.12181683448E+02 -0.11670123175E+02  0.23753951709E+02  0.51100000000E-03 0.  1.
         12    1    3    3    0    0  0.86028104883E+01  0.17229020262E+01 -0.57966615340E+01  0.10515608619E+02  0.00000000000E+00 0. -1.
</event>
<event>
 7    1  0.2328615E-009  0.4778727E+02  0.7816164E-02  0.1312668E+00
        -11   -1    0    0    0    0  0.00000000000E+00  0.00000000000E+00  0.45593999997E+02  0.45594000000E+02  0.51100000000E-03 0. -1.
         11   -1    0    0    0    0 -0.00000000000E+00 -0.00000000000E+00 -0.45593999997E+02  0.45594000000E+02  0.51100000000E-03 0.  1.
    9900012    2    1    2    0    0 -0.28140482936E+02  0.25484234054E+02 -0.21030699770E+02  0.47787270766E+02  0.19999998731E+02 0.  0.
         12    1    1    2    0    0  0.28140482936E+02 -0.25484234054E+02  0.21030699770E+02  0.43400729234E+02  0.00000000000E+00 0. -1.
         11    1    3    3    0    0 -0.55787223675E+01  0.73836584771E-01 -0.54500259894E+01  0.77993832219E+01  0.51100000000E-03 0. -1.
        -11    1    3    3    0    0 -0.13836673165E+02  0.73092175537E+01 -0.11659343470E+02  0.19514570863E+02  0.51100000000E-03 0.  1.
        -12    1    3    3    0    0 -0.87250874032E+01  0.18101179916E+02 -0.39213303105E+01  0.20473316682E+02  0.00000000000E+00 0.  1.
</event>
<event>
 7    1  0.2328615E-009  0.4778727E+02  0.7816164E-02  0.1312668E+00
        -11   -1    0    0    0    0  0.00000000000E+00  0.00000000000E+00  0.45593999997E+02  0.45594000000E+02  0.51100000000E-03 0.  1.
         11   -1    0    0    0    0 -0.00000000000E+00 -0.00000000000E+00 -0.45593999997E+02  0.45594000000E+02  0.51100000000E-03 0. -1.
    9900012    2    1    2    0    0  0.35522440768E+02 -0.22579011841E+02  0.10581482560E+02  0.47787270202E+02  0.19999996158E+02 0.  0.
         12    1    1    2    0    0 -0.35522440768E+02  0.22579011841E+02 -0.10581482560E+02  0.43400729798E+02  0.00000000000E+00 0. -1.
         11    1    3    3    0    0  0.10928654590E+00  0.21911749271E+00  0.59416305741E-01  0.25196544056E+00  0.51100000000E-03 0. -1.
        -11    1    3    3    0    0  0.85216420781E+01 -0.99651750862E+01  0.11899974934E+02  0.17706849011E+02  0.51100000000E-03 0.  1.
         12    1    3    3    0    0  0.26891512144E+02 -0.12832954248E+02 -0.13779086793E+01  0.29828455750E+02  0.00000000000E+00 0. -1.
</event>
<event>
 7    1  0.2328615E-009  0.4778727E+02  0.7816164E-02  0.1312668E+00
        -11   -1    0    0    0    0  0.00000000000E+00  0.00000000000E+00  0.45593999997E+02  0.45594000000E+02  0.51100000000E-03 0. -1.
         11   -1    0    0    0    0 -0.00000000000E+00 -0.00000000000E+00 -0.45593999997E+02  0.45594000000E+02  0.51100000000E-03 0.  1.
    9900012    2    1    2    0    0 -0.68065153884E+01  0.40769739947E+02 -0.13233391565E+02  0.47787274207E+02  0.20000014419E+02 0.  0.
         12    1    1    2    0    0  0.68065153884E+01 -0.40769739947E+02  0.13233391565E+02  0.43400725793E+02  0.00000000000E+00 0. -1.
         11    1    3    3    0    0 -0.50067614907E+01  0.77232777452E+01  0.28365105629E+01  0.96313276442E+01  0.51100000000E-03 0. -1.
        -11    1    3    3    0    0 -0.57445049924E+01  0.13931518445E+02 -0.63640123442E+01  0.16358092712E+02  0.51100000000E-03 0.  1.
        -12    1    3    3    0    0  0.39447510948E+01  0.19114943757E+02 -0.97058897836E+01  0.21797853851E+02  0.00000000000E+00 0.  1.
</event>
<event>
 7    1  0.2328615E-009  0.4778729E+02  0.7816164E-02  0.1312668E+00
        -11   -1    0    0    0    0  0.00000000000E+00  0.00000000000E+00  0.45593999997E+02  0.45594000000E+02  0.51100000000E-03 0.  1.
         11   -1    0    0    0    0 -0.00000000000E+00 -0.00000000000E+00 -0.45593999997E+02  0.45594000000E+02  0.51100000000E-03 0. -1.
    9900012    2    1    2    0    0  0.21064177290E+02 -0.23810610459E+02  0.29546179398E+02  0.47787292030E+02  0.20000095681E+02 0.  0.
         12    1    1    2    0    0 -0.21064177290E+02  0.23810610459E+02 -0.29546179398E+02  0.43400707970E+02  0.00000000000E+00 0. -1.
         11    1    3    3    0    0  0.60754609486E-01 -0.29515062299E+00 -0.23729170676E+00  0.38355264051E+00  0.51100000000E-03 0. -1.
        -11    1    3    3    0    0  0.23086026505E+02 -0.21451158438E+02  0.20321324909E+02  0.37497640785E+02  0.51100000000E-03 0.  1.
        -12    1    3    3    0    0 -0.20826038243E+01 -0.20643013978E+01  0.94621461948E+01  0.99060986045E+01  0.00000000000E+00 0.  1.
</event>
<event>
 7    1  0.2328615E-009  0.4778727E+02  0.7816164E-02  0.1312668E+00
        -11   -1    0    0    0    0  0.00000000000E+00  0.00000000000E+00  0.45593999997E+02  0.45594000000E+02  0.51100000000E-03 0.  1.
         11   -1    0    0    0    0 -0.00000000000E+00 -0.00000000000E+00 -0.45593999997E+02  0.45594000000E+02  0.51100000000E-03 0. -1.
    9900012    2    1    2    0    0  0.39674606621E+01 -0.96562481633E+01  0.42126469202E+02  0.47787270972E+02  0.19999999672E+02 0.  0.
         12    1    1    2    0    0 -0.39674606621E+01  0.96562481633E+01 -0.42126469202E+02  0.43400729028E+02  0.00000000000E+00 0. -1.
         11    1    3    3    0    0  0.25567620187E+01 -0.81171882484E+01  0.88171182861E+01  0.12254278935E+02  0.51100000000E-03 0. -1.
        -11    1    3    3    0    0 -0.23028096145E+01 -0.59667493148E+01  0.20634133699E+02  0.21602604085E+02  0.51100000000E-03 0.  1.
         12    1    3    3    0    0  0.37135082580E+01  0.44276893999E+01  0.12675217217E+02  0.13930387952E+02  0.00000000000E+00 0. -1.
</event>
<event>
 7    1  0.2328615E-009  0.4778727E+02  0.7816164E-02  0.1312668E+00
        -11   -1    0    0    0    0  0.00000000000E+00  0.00000000000E+00  0.45593999997E+02  0.45594000000E+02  0.51100000000E-03 0.  1.
         11   -1    0    0    0    0 -0.00000000000E+00 -0.00000000000E+00 -0.45593999997E+02  0.45594000000E+02  0.51100000000E-03 0. -1.
    9900012    2    1    2    0    0 -0.30305402967E+02  0.50044344433E+01  0.30662053637E+02  0.47787270210E+02  0.19999996197E+02 0.  0.
         12    1    1    2    0    0  0.30305402967E+02 -0.50044344433E+01 -0.30662053637E+02  0.43400729790E+02  0.00000000000E+00 0. -1.
         11    1    3    3    0    0 -0.27849313944E+02  0.12362230925E+01  0.20487837303E+02  0.34595722456E+02  0.51100000000E-03 0. -1.
        -11    1    3    3    0    0 -0.48501441606E+01  0.16216133105E+01  0.54180338245E+01  0.74504106526E+01  0.51100000000E-03 0.  1.
        -12    1    3    3    0    0  0.23940551380E+01  0.21465980403E+01  0.47561825097E+01  0.57411371013E+01  0.00000000000E+00 0.  1.
</event>
<event>
 7    1  0.2328615E-009  0.4778726E+02  0.7816164E-02  0.1312668E+00
        -11   -1    0    0    0    0  0.00000000000E+00  0.00000000000E+00  0.45593999997E+02  0.45594000000E+02  0.51100000000E-03 0.  1.
         11   -1    0    0    0    0 -0.00000000000E+00 -0.00000000000E+00 -0.45593999997E+02  0.45594000000E+02  0.51100000000E-03 0. -1.
    9900012    2    1    2    0    0 -0.23460879431E+02 -0.12832943739E+02  0.34183718133E+02  0.47787263899E+02  0.19999967421E+02 0.  0.
         12    1    1    2    0    0  0.23460879431E+02  0.12832943739E+02 -0.34183718133E+02  0.43400736101E+02  0.00000000000E+00 0. -1.
         11    1    3    3    0    0  0.84643901322E+00 -0.55335743425E+01  0.42849163243E+01  0.70496391521E+01  0.51100000000E-03 0. -1.
        -11    1    3    3    0    0 -0.39235859185E+01  0.28357008401E+01  0.42305867619E+01  0.64291204939E+01  0.51100000000E-03 0.  1.
        -12    1    3    3    0    0 -0.20383732525E+02 -0.10135070237E+02  0.25668215047E+02  0.34308504253E+02  0.00000000000E+00 0.  1.
</event>
<event>
 7    1  0.2756242E-009  0.4778728E+02  0.7816164E-02  0.1312668E+00
        -11   -1    0    0    0    0  0.00000000000E+00  0.00000000000E+00  0.45593999997E+02  0.45594000000E+02  0.51100000000E-03 0. -1.
         11   -1    0    0    0    0 -0.00000000000E+00 -0.00000000000E+00 -0.45593999997E+02  0.45594000000E+02  0.51100000000E-03 0.  1.
    9900012    2    1    2    0    0 -0.19444250046E+02  0.26376082887E+02 -0.28457793889E+02  0.47787278332E+02  0.20000033225E+02 0.  0.
         12    1    1    2    0    0  0.19444250046E+02 -0.26376082887E+02  0.28457793889E+02  0.43400721668E+02  0.00000000000E+00 0. -1.
         11    1    3    3    0    0 -0.88194583156E+01  0.45213607360E+01 -0.21712351275E+01  0.10145925789E+02  0.51100000000E-03 0. -1.
        -11    1    3    3    0    0  0.48377360155E+00  0.66817232560E+01 -0.21328501854E+01  0.70305414259E+01  0.51100000000E-03 0.  1.
        -12    1    3    3    0    0 -0.11108565332E+02  0.15172998895E+02 -0.24153708576E+02  0.30610811116E+02  0.00000000000E+00 0.  1.
</event>
<event>
 7    1  0.2328615E-009  0.4778728E+02  0.7816164E-02  0.1312668E+00
        -11   -1    0    0    0    0  0.00000000000E+00  0.00000000000E+00  0.45593999997E+02  0.45594000000E+02  0.51100000000E-03 0.  1.
         11   -1    0    0    0    0 -0.00000000000E+00 -0.00000000000E+00 -0.45593999997E+02  0.45594000000E+02  0.51100000000E-03 0. -1.
    9900012    2    1    2    0    0 -0.15098397753E+02  0.60584223006E+01  0.40236262273E+02  0.47787275384E+02  0.20000019784E+02 0.  0.
         12    1    1    2    0    0  0.15098397753E+02 -0.60584223006E+01 -0.40236262273E+02  0.43400724616E+02  0.00000000000E+00 0. -1.
         11    1    3    3    0    0 -0.44472620998E+01  0.57839188463E+01  0.66758023319E+01  0.98892969639E+01  0.51100000000E-03 0. -1.
        -11    1    3    3    0    0 -0.81565086969E+01 -0.50080223417E+00  0.58145891785E+01  0.10029401008E+02  0.51100000000E-03 0.  1.
         12    1    3    3    0    0 -0.24946269565E+01  0.77530568848E+00  0.27745870763E+02  0.27868577412E+02  0.00000000000E+00 0. -1.
</event>
<event>
 7    1  0.2328615E-009  0.4778727E+02  0.7816164E-02  0.1312668E+00
        -11   -1    0    0    0    0  0.00000000000E+00  0.00000000000E+00  0.45593999997E+02  0.45594000000E+02  0.51100000000E-03 0.  1.
         11   -1    0    0    0    0 -0.00000000000E+00 -0.00000000000E+00 -0.45593999997E+02  0.45594000000E+02  0.51100000000E-03 0. -1.
    9900012    2    1    2    0    0 -0.11485396133E+02 -0.27025069385E+02  0.31958641428E+02  0.47787268883E+02  0.19999990146E+02 0.  0.
         12    1    1    2    0    0  0.11485396133E+02  0.27025069385E+02 -0.31958641428E+02  0.43400731117E+02  0.00000000000E+00 0. -1.
         11    1    3    3    0    0 -0.67215834271E+01 -0.10000325266E+02  0.85174648444E+01  0.14755791975E+02  0.51100000000E-03 0. -1.
        -11    1    3    3    0    0 -0.99884350187E+01 -0.78391548488E+01  0.13204940690E+02  0.18319160509E+02  0.51100000000E-03 0.  1.
        -12    1    3    3    0    0  0.52246223132E+01 -0.91855892701E+01  0.10236235893E+02  0.14712316399E+02  0.00000000000E+00 0.  1.
</event>
<event>
 7    1  0.2328615E-009  0.4778727E+02  0.7816164E-02  0.1312668E+00
        -11   -1    0    0    0    0  0.00000000000E+00  0.00000000000E+00  0.45593999997E+02  0.45594000000E+02  0.51100000000E-03 0.  1.
         11   -1    0    0    0    0 -0.00000000000E+00 -0.00000000000E+00 -0.45593999997E+02  0.45594000000E+02  0.51100000000E-03 0. -1.
    9900012    2    1    2    0    0 -0.15298093217E+02  0.35158041639E+02 -0.20334797590E+02  0.47787267967E+02  0.19999985969E+02 0.  0.
         12    1    1    2    0    0  0.15298093217E+02 -0.35158041639E+02  0.20334797590E+02  0.43400732033E+02  0.00000000000E+00 0. -1.
         11    1    3    3    0    0 -0.58109361191E+01  0.15612418732E+02 -0.13114105714E+02  0.21201282182E+02  0.51100000000E-03 0. -1.
        -11    1    3    3    0    0 -0.11074429466E+02  0.18190309243E+02 -0.96522112355E+01  0.23381520916E+02  0.51100000000E-03 0.  1.
         12    1    3    3    0    0  0.15872723687E+01  0.13553136644E+01  0.24315193591E+01  0.32044648688E+01  0.00000000000E+00 0. -1.
</event>
<event>
 7    1  0.2328615E-009  0.4778727E+02  0.7816164E-02  0.1312668E+00
        -11   -1    0    0    0    0  0.00000000000E+00  0.00000000000E+00  0.45593999997E+02  0.45594000000E+02  0.51100000000E-03 0.  1.
         11   -1    0    0    0    0 -0.00000000000E+00 -0.00000000000E+00 -0.45593999997E+02  0.45594000000E+02  0.51100000000E-03 0. -1.
    9900012    2    1    2    0    0 -0.57894262982E+01 -0.30294124865E+02  0.30534759075E+02  0.47787274545E+02  0.20000015962E+02 0.  0.
         12    1    1    2    0    0  0.57894262982E+01  0.30294124865E+02 -0.30534759075E+02  0.43400725455E+02  0.00000000000E+00 0. -1.
         11    1    3    3    0    0  0.10838787552E+00  0.19240256984E+01  0.11072028966E+01  0.22225033937E+01  0.51100000000E-03 0. -1.
        -11    1    3    3    0    0 -0.22766401533E+01 -0.99516282004E+01  0.16944767646E+02  0.19782394826E+02  0.51100000000E-03 0.  1.
        -12    1    3    3    0    0 -0.36211740204E+01 -0.22266522363E+02  0.12482788533E+02  0.25782376325E+02  0.00000000000E+00 0.  1.
</event>
<event>
 7    1  0.2328615E-009  0.4778727E+02  0.7816164E-02  0.1312668E+00
        -11   -1    0    0    0    0  0.00000000000E+00  0.00000000000E+00  0.45593999997E+02  0.45594000000E+02  0.51100000000E-03 0. -1.
         11   -1    0    0    0    0 -0.00000000000E+00 -0.00000000000E+00 -0.45593999997E+02  0.45594000000E+02  0.51100000000E-03 0.  1.
    9900012    2    1    2    0    0 -0.20746684859E+02 -0.35048837370E+02  0.14992573736E+02  0.47787271886E+02  0.20000003835E+02 0.  0.
         12    1    1    2    0    0  0.20746684859E+02  0.35048837370E+02 -0.14992573736E+02  0.43400728114E+02  0.00000000000E+00 0. -1.
         11    1    3    3    0    0  0.26136695350E+00 -0.68728131352E+00  0.55826833016E+01  0.56308988089E+01  0.51100000000E-03 0. -1.
        -11    1    3    3    0    0 -0.32511918899E+01 -0.11395220855E+02  0.46927449091E+01  0.12745319223E+02  0.51100000000E-03 0.  1.
         12    1    3    3    0    0 -0.17756859923E+02 -0.22966335202E+02  0.47171455250E+01  0.29411053854E+02  0.00000000000E+00 0. -1.
</event>
<event>
 7    1  0.2328615E-009  0.4778727E+02  0.7816164E-02  0.1312668E+00
        -11   -1    0    0    0    0  0.00000000000E+00  0.00000000000E+00  0.45593999997E+02  0.45594000000E+02  0.51100000000E-03 0.  1.
         11   -1    0    0    0    0 -0.00000000000E+00 -0.00000000000E+00 -0.45593999997E+02  0.45594000000E+02  0.51100000000E-03 0. -1.
    9900012    2    1    2    0    0  0.15552067199E+02  0.14672040943E+02  0.37768871364E+02  0.47787271622E+02  0.20000002634E+02 0.  0.
         12    1    1    2    0    0 -0.15552067199E+02 -0.14672040943E+02 -0.37768871364E+02  0.43400728378E+02  0.00000000000E+00 0. -1.
         11    1    3    3    0    0  0.12920273863E+01 -0.16434704665E+00  0.13082968181E+02  0.13147638625E+02  0.51100000000E-03 0.  1.
        -11    1    3    3    0    0  0.23341324212E+01 -0.85947652504E+00 -0.61856858284E+00  0.25631038625E+01  0.51100000000E-03 0. -1.
         12    1    3    3    0    0  0.11925907391E+02  0.15695864515E+02  0.25304471766E+02  0.32076529135E+02  0.00000000000E+00 0. -1.
</event>
<event>
 7    1  0.2328615E-009  0.4778727E+02  0.7816164E-02  0.1312668E+00
        -11   -1    0    0    0    0  0.00000000000E+00  0.00000000000E+00  0.45593999997E+02  0.45594000000E+02  0.51100000000E-03 0.  1.
         11   -1    0    0    0    0 -0.00000000000E+00 -0.00000000000E+00 -0.45593999997E+02  0.45594000000E+02  0.51100000000E-03 0. -1.
    9900012    2    1    2    0    0 -0.17998246871E+02 -0.27832694724E+02  0.28018344721E+02  0.47787269281E+02  0.19999991962E+02 0.  0.
         12    1    1    2    0    0  0.17998246871E+02  0.27832694724E+02 -0.28018344721E+02  0.43400730719E+02  0.00000000000E+00 0. -1.
         11    1    3    3    0    0 -0.41297393697E+01 -0.12171049592E+02  0.93952064986E+01  0.15920398891E+02  0.51100000000E-03 0.  1.
        -11    1    3    3    0    0 -0.78265035299E+01 -0.17694441476E+02  0.12547301097E+02  0.23060402896E+02  0.51100000000E-03 0. -1.
         12    1    3    3    0    0 -0.60420039710E+01  0.20327963437E+01  0.60758371253E+01  0.88064674947E+01  0.00000000000E+00 0. -1.
</event>
<event>
 7    1  0.2328615E-009  0.4778727E+02  0.7816164E-02  0.1312668E+00
        -11   -1    0    0    0    0  0.00000000000E+00  0.00000000000E+00  0.45593999997E+02  0.45594000000E+02  0.51100000000E-03 0. -1.
         11   -1    0    0    0    0 -0.00000000000E+00 -0.00000000000E+00 -0.45593999997E+02  0.45594000000E+02  0.51100000000E-03 0.  1.
    9900012    2    1    2    0    0  0.16446617699E+02 -0.46748739125E+01 -0.39890820035E+02  0.47787271862E+02  0.20000003726E+02 0.  0.
         12    1    1    2    0    0 -0.16446617699E+02  0.46748739125E+01  0.39890820035E+02  0.43400728138E+02  0.00000000000E+00 0. -1.
         11    1    3    3    0    0  0.48388774425E+01 -0.68094649950E+01 -0.72043821152E+01  0.11031168131E+02  0.51100000000E-03 0. -1.
        -11    1    3    3    0    0  0.20191093719E+01  0.80313309685E+00  0.46326512143E+00  0.22218101316E+01  0.51100000000E-03 0.  1.
        -12    1    3    3    0    0  0.95886308844E+01  0.13314579857E+01 -0.33149703042E+02  0.34534293599E+02  0.00000000000E+00 0.  1.
</event>
<event>
 7    1  0.2328615E-009  0.4778732E+02  0.7816164E-02  0.1312668E+00
        -11   -1    0    0    0    0  0.00000000000E+00  0.00000000000E+00  0.45593999997E+02  0.45594000000E+02  0.51100000000E-03 0.  1.
         11   -1    0    0    0    0 -0.00000000000E+00 -0.00000000000E+00 -0.45593999997E+02  0.45594000000E+02  0.51100000000E-03 0. -1.
    9900012    2    1    2    0    0  0.87489015598E+01 -0.21401314914E+02  0.36729546857E+02  0.47787318314E+02  0.20000215518E+02 0.  0.
         12    1    1    2    0    0 -0.87489015598E+01  0.21401314914E+02 -0.36729546857E+02  0.43400681686E+02  0.00000000000E+00 0. -1.
         11    1    3    3    0    0 -0.49907602480E+00  0.32155325067E+01  0.51949319403E+01  0.61299302040E+01  0.51100000000E-03 0. -1.
        -11    1    3    3    0    0  0.25115307583E+01 -0.11844159557E+01  0.41302486634E+01  0.49769048804E+01  0.51100000000E-03 0.  1.
        -12    1    3    3    0    0  0.67364468262E+01 -0.23432431465E+02  0.27404366253E+02  0.36680483229E+02  0.00000000000E+00 0.  1.
</event>
<event>
 7    1  0.2612689E-009  0.4778727E+02  0.7816164E-02  0.1312668E+00
        -11   -1    0    0    0    0  0.00000000000E+00  0.00000000000E+00  0.45593999997E+02  0.45594000000E+02  0.51100000000E-03 0.  1.
         11   -1    0    0    0    0 -0.00000000000E+00 -0.00000000000E+00 -0.45593999997E+02  0.45594000000E+02  0.51100000000E-03 0. -1.
    9900012    2    1    2    0    0 -0.39201382895E+02 -0.69497496915E+01  0.17279351597E+02  0.47787269208E+02  0.19999991628E+02 0.  0.
         12    1    1    2    0    0  0.39201382895E+02  0.69497496915E+01 -0.17279351597E+02  0.43400730792E+02  0.00000000000E+00 0. -1.
         11    1    3    3    0    0 -0.12829385219E+01 -0.15718125200E+01  0.44057176708E+01  0.48504509383E+01  0.51100000000E-03 0. -1.
        -11    1    3    3    0    0 -0.28891615287E+02 -0.49806829231E+01  0.15970255323E+02  0.33385351453E+02  0.51100000000E-03 0.  1.
        -12    1    3    3    0    0 -0.90268290860E+01 -0.39725424836E+00 -0.30966213967E+01  0.95514668172E+01  0.00000000000E+00 0.  1.
</event>
<event>
 7    1  0.2328615E-009  0.4778726E+02  0.7816164E-02  0.1312668E+00
        -11   -1    0    0    0    0  0.00000000000E+00  0.00000000000E+00  0.45593999997E+02  0.45594000000E+02  0.51100000000E-03 0.  1.
         11   -1    0    0    0    0 -0.00000000000E+00 -0.00000000000E+00 -0.45593999997E+02  0.45594000000E+02  0.51100000000E-03 0. -1.
    9900012    2    1    2    0    0 -0.32630108660E+02 -0.13744733483E+01  0.28583400489E+02  0.47787263236E+02  0.19999964397E+02 0.  0.
         12    1    1    2    0    0  0.32630108660E+02  0.13744733483E+01 -0.28583400489E+02  0.43400736764E+02  0.00000000000E+00 0. -1.
         11    1    3    3    0    0 -0.12141784754E+02 -0.74361365870E+01  0.75661424843E+01  0.16123448040E+02  0.51100000000E-03 0. -1.
        -11    1    3    3    0    0 -0.80180690445E+01 -0.93053004384E+00  0.12917233323E+02  0.15231882167E+02  0.51100000000E-03 0.  1.
         12    1    3    3    0    0 -0.12470254862E+02  0.69921932826E+01  0.81000246818E+01  0.16431933029E+02  0.00000000000E+00 0. -1.
</event>
<event>
 7    1  0.2328615E-009  0.4778727E+02  0.7816164E-02  0.1312668E+00
        -11   -1    0    0    0    0  0.00000000000E+00  0.00000000000E+00  0.45593999997E+02  0.45594000000E+02  0.51100000000E-03 0. -1.
         11   -1    0    0    0    0 -0.00000000000E+00 -0.00000000000E+00 -0.45593999997E+02  0.45594000000E+02  0.51100000000E-03 0.  1.
    9900012    2    1    2    0    0 -0.92946886098E+01 -0.86365844416E+01 -0.41504712578E+02  0.47787274276E+02  0.20000014733E+02 0.  0.
         12    1    1    2    0    0  0.92946886098E+01  0.86365844416E+01  0.41504712578E+02  0.43400725724E+02  0.00000000000E+00 0. -1.
         11    1    3    3    0    0 -0.36161140696E+01  0.10451533976E+01 -0.13232124193E+02  0.13757097714E+02  0.51100000000E-03 0. -1.
        -11    1    3    3    0    0 -0.57666794767E+01 -0.35310600812E+01 -0.26887668247E+02  0.27724892813E+02  0.51100000000E-03 0.  1.
         12    1    3    3    0    0  0.88104936462E-01 -0.61506777579E+01 -0.13849201382E+01  0.63052837486E+01  0.00000000000E+00 0. -1.
</event>
<event>
 7    1  0.2328615E-009  0.4778727E+02  0.7816164E-02  0.1312668E+00
        -11   -1    0    0    0    0  0.00000000000E+00  0.00000000000E+00  0.45593999997E+02  0.45594000000E+02  0.51100000000E-03 0.  1.
         11   -1    0    0    0    0 -0.00000000000E+00 -0.00000000000E+00 -0.45593999997E+02  0.45594000000E+02  0.51100000000E-03 0. -1.
    9900012    2    1    2    0    0 -0.21310447373E+02  0.22160901628E+02  0.30633031634E+02  0.47787270106E+02  0.19999995723E+02 0.  0.
         12    1    1    2    0    0  0.21310447373E+02 -0.22160901628E+02 -0.30633031634E+02  0.43400729894E+02  0.00000000000E+00 0. -1.
         11    1    3    3    0    0 -0.26965090288E+01  0.46843521900E+01  0.70187670702E+01  0.88587475316E+01  0.51100000000E-03 0.  1.
        -11    1    3    3    0    0 -0.68511881307E+01  0.10123860873E+02  0.21725969258E+02  0.24928880405E+02  0.51100000000E-03 0. -1.
         12    1    3    3    0    0 -0.11762750214E+02  0.73526885645E+01  0.18882953055E+01  0.13999642170E+02  0.00000000000E+00 0. -1.
</event>
<event>
 7    1  0.2328615E-009  0.4778727E+02  0.7816164E-02  0.1312668E+00
        -11   -1    0    0    0    0  0.00000000000E+00  0.00000000000E+00  0.45593999997E+02  0.45594000000E+02  0.51100000000E-03 0. -1.
         11   -1    0    0    0    0 -0.00000000000E+00 -0.00000000000E+00 -0.45593999997E+02  0.45594000000E+02  0.51100000000E-03 0.  1.
    9900012    2    1    2    0    0  0.17670768442E+02 -0.12662700493E+02 -0.37563591386E+02  0.47787269143E+02  0.19999991331E+02 0.  0.
         12    1    1    2    0    0 -0.17670768442E+02  0.12662700493E+02  0.37563591386E+02  0.43400730857E+02  0.00000000000E+00 0. -1.
         11    1    3    3    0    0  0.13829087050E+02 -0.31325446122E+01 -0.30501844070E+02  0.33636572006E+02  0.51100000000E-03 0. -1.
        -11    1    3    3    0    0  0.21309740521E+01 -0.10401180304E+00  0.18054719821E+00  0.21411367116E+01  0.51100000000E-03 0.  1.
        -12    1    3    3    0    0  0.17107073404E+01 -0.94261440783E+01 -0.72422945139E+01  0.12009560426E+02  0.00000000000E+00 0.  1.
</event>
<event>
 7    1  0.2328615E-009  0.4778727E+02  0.7816164E-02  0.1312668E+00
        -11   -1    0    0    0    0  0.00000000000E+00  0.00000000000E+00  0.45593999997E+02  0.45594000000E+02  0.51100000000E-03 0. -1.
         11   -1    0    0    0    0 -0.00000000000E+00 -0.00000000000E+00 -0.45593999997E+02  0.45594000000E+02  0.51100000000E-03 0.  1.
    9900012    2    1    2    0    0  0.15799944146E+02 -0.27279769136E+02 -0.29829503153E+02  0.47787270772E+02  0.19999998759E+02 0.  0.
         12    1    1    2    0    0 -0.15799944146E+02  0.27279769136E+02  0.29829503153E+02  0.43400729228E+02  0.00000000000E+00 0. -1.
         11    1    3    3    0    0  0.27428734538E+01 -0.12970545770E+02 -0.17651229423E+01  0.13374381168E+02  0.51100000000E-03 0. -1.
        -11    1    3    3    0    0  0.56569351197E+01 -0.41727208827E+01 -0.71838188588E+01  0.10050859076E+02  0.51100000000E-03 0.  1.
         12    1    3    3    0    0  0.74001355724E+01 -0.10136502483E+02 -0.20880561352E+02  0.24362030528E+02  0.00000000000E+00 0. -1.
</event>
<event>
 7    1  0.2328615E-009  0.4778727E+02  0.7816164E-02  0.1312668E+00
        -11   -1    0    0    0    0  0.00000000000E+00  0.00000000000E+00  0.45593999997E+02  0.45594000000E+02  0.51100000000E-03 0.  1.
         11   -1    0    0    0    0 -0.00000000000E+00 -0.00000000000E+00 -0.45593999997E+02  0.45594000000E+02  0.51100000000E-03 0. -1.
    9900012    2    1    2    0    0 -0.26068973050E+02  0.15492066242E+02  0.31048798725E+02  0.47787269884E+02  0.19999994709E+02 0.  0.
         12    1    1    2    0    0  0.26068973050E+02 -0.15492066242E+02 -0.31048798725E+02  0.43400730116E+02  0.00000000000E+00 0. -1.
         11    1    3    3    0    0 -0.13941451809E+02  0.77188608448E+01  0.14873836026E+02  0.21798529530E+02  0.51100000000E-03 0. -1.
        -11    1    3    3    0    0 -0.71374805810E+01  0.11339478255E+02  0.14251020407E+02  0.19560648737E+02  0.51100000000E-03 0.  1.
         12    1    3    3    0    0 -0.49900406608E+01 -0.35662728575E+01  0.19239422922E+01  0.64280916168E+01  0.00000000000E+00 0. -1.
</event>
<event>
 7    1  0.2328615E-009  0.4778729E+02  0.7816164E-02  0.1312668E+00
        -11   -1    0    0    0    0  0.00000000000E+00  0.00000000000E+00  0.45593999997E+02  0.45594000000E+02  0.51100000000E-03 0. -1.
         11   -1    0    0    0    0 -0.00000000000E+00 -0.00000000000E+00 -0.45593999997E+02  0.45594000000E+02  0.51100000000E-03 0.  1.
    9900012    2    1    2    0    0 -0.29608960494E+02 -0.31709647386E+02 -0.11957004477E+01  0.47787285968E+02  0.20000068044E+02 0.  0.
         12    1    1    2    0    0  0.29608960494E+02  0.31709647386E+02  0.11957004477E+01  0.43400714032E+02  0.00000000000E+00 0. -1.
         11    1    3    3    0    0 -0.11169439010E+02 -0.87293415778E+01  0.52142382450E+01  0.15104504392E+02  0.51100000000E-03 0. -1.
        -11    1    3    3    0    0 -0.18624726112E+02 -0.20971300521E+02 -0.23461024798E+01  0.28145693550E+02  0.51100000000E-03 0.  1.
        -12    1    3    3    0    0  0.18520462843E+00 -0.20090052875E+01 -0.40638362128E+01  0.45370880269E+01  0.00000000000E+00 0.  1.
</event>
<event>
 7    1  0.2328615E-009  0.4778727E+02  0.7816164E-02  0.1312668E+00
        -11   -1    0    0    0    0  0.00000000000E+00  0.00000000000E+00  0.45593999997E+02  0.45594000000E+02  0.51100000000E-03 0.  1.
         11   -1    0    0    0    0 -0.00000000000E+00 -0.00000000000E+00 -0.45593999997E+02  0.45594000000E+02  0.51100000000E-03 0. -1.
    9900012    2    1    2    0    0  0.23235835826E+02 -0.35023574221E+02  0.10819815645E+02  0.47787271569E+02  0.20000002393E+02 0.  0.
         12    1    1    2    0    0 -0.23235835826E+02  0.35023574221E+02 -0.10819815645E+02  0.43400728431E+02  0.00000000000E+00 0. -1.
         11    1    3    3    0    0  0.30822465765E+01 -0.64581825288E+01  0.46492852872E+01  0.85337107682E+01  0.51100000000E-03 0. -1.
        -11    1    3    3    0    0  0.10629165250E+02 -0.23718031217E+02 -0.16002442385E+01  0.26040064144E+02  0.51100000000E-03 0.  1.
         12    1    3    3    0    0  0.95244239991E+01 -0.48473604750E+01  0.77707745960E+01  0.13213496657E+02  0.00000000000E+00 0. -1.
</event>
<event>
 7    1  0.2328615E-009  0.4778727E+02  0.7816164E-02  0.1312668E+00
        -11   -1    0    0    0    0  0.00000000000E+00  0.00000000000E+00  0.45593999997E+02  0.45594000000E+02  0.51100000000E-03 0. -1.
         11   -1    0    0    0    0 -0.00000000000E+00 -0.00000000000E+00 -0.45593999997E+02  0.45594000000E+02  0.51100000000E-03 0.  1.
    9900012    2    1    2    0    0  0.29342996311E+02 -0.16394156241E+02 -0.27456205953E+02  0.47787273777E+02  0.20000012459E+02 0.  0.
         12    1    1    2    0    0 -0.29342996311E+02  0.16394156241E+02  0.27456205953E+02  0.43400726223E+02  0.00000000000E+00 0. -1.
         11    1    3    3    0    0  0.76312519596E+01  0.27436788565E+00 -0.10788399392E+02  0.13217444758E+02  0.51100000000E-03 0. -1.
        -11    1    3    3    0    0  0.11122344564E+02 -0.43522910080E+01 -0.13493107261E+02  0.18019792713E+02  0.51100000000E-03 0.  1.
         12    1    3    3    0    0  0.10589399787E+02 -0.12316233119E+02 -0.31746992999E+01  0.16550036306E+02  0.00000000000E+00 0. -1.
</event>
<event>
 7    1  0.2328615E-009  0.4778727E+02  0.7816164E-02  0.1312668E+00
        -11   -1    0    0    0    0  0.00000000000E+00  0.00000000000E+00  0.45593999997E+02  0.45594000000E+02  0.51100000000E-03 0.  1.
         11   -1    0    0    0    0 -0.00000000000E+00 -0.00000000000E+00 -0.45593999997E+02  0.45594000000E+02  0.51100000000E-03 0. -1.
    9900012    2    1    2    0    0  0.18854012501E+02 -0.66109594821E+00  0.39085964306E+02  0.47787269120E+02  0.19999991224E+02 0.  0.
         12    1    1    2    0    0 -0.18854012501E+02  0.66109594821E+00 -0.39085964306E+02  0.43400730880E+02  0.00000000000E+00 0. -1.
         11    1    3    3    0    0  0.10174530228E+02 -0.47637904754E+01  0.14579461050E+02  0.18405853684E+02  0.51100000000E-03 0. -1.
        -11    1    3    3    0    0  0.52869629994E+01 -0.16341648350E+01  0.21259038757E+02  0.21967457787E+02  0.51100000000E-03 0.  1.
         12    1    3    3    0    0  0.33925192729E+01  0.57368593621E+01  0.32474644991E+01  0.74139576497E+01  0.00000000000E+00 0. -1.
</event>
<event>
 7    1  0.2328615E-009  0.4778727E+02  0.7816164E-02  0.1312668E+00
        -11   -1    0    0    0    0  0.00000000000E+00  0.00000000000E+00  0.45593999997E+02  0.45594000000E+02  0.51100000000E-03 0.  1.
         11   -1    0    0    0    0 -0.00000000000E+00 -0.00000000000E+00 -0.45593999997E+02  0.45594000000E+02  0.51100000000E-03 0. -1.
    9900012    2    1    2    0    0  0.16421485486E+02  0.93798722363E+01  0.39063743184E+02  0.47787271662E+02  0.20000002814E+02 0.  0.
         12    1    1    2    0    0 -0.16421485486E+02 -0.93798722363E+01 -0.39063743184E+02  0.43400728338E+02  0.00000000000E+00 0. -1.
         11    1    3    3    0    0  0.34205579018E+01  0.11372688257E+00  0.90617167222E+00  0.35403809857E+01  0.51100000000E-03 0. -1.
        -11    1    3    3    0    0 -0.12075340682E+01 -0.32183469117E+01  0.48678279270E+01  0.59591647366E+01  0.51100000000E-03 0.  1.
        -12    1    3    3    0    0  0.14208461653E+02  0.12484492265E+02  0.33289743585E+02  0.38287725939E+02  0.00000000000E+00 0.  1.
</event>
<event>
 7    1  0.2328615E-009  0.4778727E+02  0.7816164E-02  0.1312668E+00
        -11   -1    0    0    0    0  0.00000000000E+00  0.00000000000E+00  0.45593999997E+02  0.45594000000E+02  0.51100000000E-03 0.  1.
         11   -1    0    0    0    0 -0.00000000000E+00 -0.00000000000E+00 -0.45593999997E+02  0.45594000000E+02  0.51100000000E-03 0. -1.
    9900012    2    1    2    0    0 -0.42471888748E+02  0.25042199700E+01  0.85726655011E+01  0.47787273678E+02  0.20000012006E+02 0.  0.
         12    1    1    2    0    0  0.42471888748E+02 -0.25042199700E+01 -0.85726655011E+01  0.43400726322E+02  0.00000000000E+00 0. -1.
         11    1    3    3    0    0 -0.78216858226E+01 -0.29778347570E+01 -0.23594724652E+01  0.86955954093E+01  0.51100000000E-03 0. -1.
        -11    1    3    3    0    0 -0.12295550941E+02 -0.17196740994E+01  0.93690013433E+01  0.15553650324E+02  0.51100000000E-03 0.  1.
        -12    1    3    3    0    0 -0.22354651984E+02  0.72017288264E+01  0.15631366230E+01  0.23538027945E+02  0.00000000000E+00 0.  1.
</event>
<event>
 7    1  0.2328615E-009  0.4778728E+02  0.7816164E-02  0.1312668E+00
        -11   -1    0    0    0    0  0.00000000000E+00  0.00000000000E+00  0.45593999997E+02  0.45594000000E+02  0.51100000000E-03 0. -1.
         11   -1    0    0    0    0 -0.00000000000E+00 -0.00000000000E+00 -0.45593999997E+02  0.45594000000E+02  0.51100000000E-03 0.  1.
    9900012    2    1    2    0    0 -0.26080490325E+02 -0.33689671503E+02  0.82726400351E+01  0.47787279790E+02  0.20000039876E+02 0.  0.
         12    1    1    2    0    0  0.26080490325E+02  0.33689671503E+02 -0.82726400351E+01  0.43400720210E+02  0.00000000000E+00 0. -1.
         11    1    3    3    0    0 -0.78947397777E+01 -0.39106770185E+01  0.40052703312E+01  0.96779389121E+01  0.51100000000E-03 0. -1.
        -11    1    3    3    0    0 -0.17230301548E+02 -0.21720579580E+02 -0.20860123173E+01  0.27803206944E+02  0.51100000000E-03 0.  1.
         12    1    3    3    0    0 -0.95544899914E+00 -0.80584149043E+01  0.63533820213E+01  0.10306133934E+02  0.00000000000E+00 0. -1.
</event>
<event>
 7    1  0.2328615E-009  0.4778727E+02  0.7816164E-02  0.1312668E+00
        -11   -1    0    0    0    0  0.00000000000E+00  0.00000000000E+00  0.45593999997E+02  0.45594000000E+02  0.51100000000E-03 0. -1.
         11   -1    0    0    0    0 -0.00000000000E+00 -0.00000000000E+00 -0.45593999997E+02  0.45594000000E+02  0.51100000000E-03 0.  1.
    9900012    2    1    2    0    0  0.21984124096E+02  0.27996102108E+02 -0.24830226179E+02  0.47787267545E+02  0.19999984044E+02 0.  0.
         12    1    1    2    0    0 -0.21984124096E+02 -0.27996102108E+02  0.24830226179E+02  0.43400732455E+02  0.00000000000E+00 0. -1.
         11    1    3    3    0    0  0.20432436683E+01  0.11776106973E+00 -0.96691547365E+00  0.22635454827E+01  0.51100000000E-03 0. -1.
        -11    1    3    3    0    0  0.14656669687E+02  0.54991460017E+01 -0.11429182494E+02  0.19382589760E+02  0.51100000000E-03 0.  1.
         12    1    3    3    0    0  0.52842107407E+01  0.22379195037E+02 -0.12434128212E+02  0.26141132302E+02  0.00000000000E+00 0. -1.
</event>
<event>
 7    1  0.2328615E-009  0.4778727E+02  0.7816164E-02  0.1312668E+00
        -11   -1    0    0    0    0  0.00000000000E+00  0.00000000000E+00  0.45593999997E+02  0.45594000000E+02  0.51100000000E-03 0. -1.
         11   -1    0    0    0    0 -0.00000000000E+00 -0.00000000000E+00 -0.45593999997E+02  0.45594000000E+02  0.51100000000E-03 0.  1.
    9900012    2    1    2    0    0  0.11985211266E+02  0.23902234967E+02 -0.34185688736E+02  0.47787269132E+02  0.19999991281E+02 0.  0.
         12    1    1    2    0    0 -0.11985211266E+02 -0.23902234967E+02  0.34185688736E+02  0.43400730868E+02  0.00000000000E+00 0. -1.
         11    1    3    3    0    0  0.81960618027E+01  0.16217558314E+02 -0.18249879230E+02  0.25753499159E+02  0.51100000000E-03 0. -1.
        -11    1    3    3    0    0  0.52714469607E+01  0.96198419215E+01 -0.75901834170E+01  0.13339430131E+02  0.51100000000E-03 0.  1.
         12    1    3    3    0    0 -0.14822974975E+01 -0.19351652683E+01 -0.83456260885E+01  0.86943398424E+01  0.00000000000E+00 0. -1.
</event>
<event>
 7    1  0.3780071E-009  0.4778727E+02  0.7816164E-02  0.1312668E+00
        -11   -1    0    0    0    0  0.00000000000E+00  0.00000000000E+00  0.45593999997E+02  0.45594000000E+02  0.51100000000E-03 0. -1.
         11   -1    0    0    0    0 -0.00000000000E+00 -0.00000000000E+00 -0.45593999997E+02  0.45594000000E+02  0.51100000000E-03 0.  1.
    9900012    2    1    2    0    0 -0.41587212842E+02  0.11677551453E+02 -0.42144561825E+01  0.47787272807E+02  0.20000008038E+02 0.  0.
         12    1    1    2    0    0  0.41587212842E+02 -0.11677551453E+02  0.42144561825E+01  0.43400727193E+02  0.00000000000E+00 0. -1.
         11    1    3    3    0    0  0.87899140101E+00  0.11713912777E+01  0.11423669568E+01  0.18573599364E+01  0.51100000000E-03 0. -1.
        -11    1    3    3    0    0 -0.20014922949E+02  0.10250676931E+02  0.12600812089E+01  0.22522462634E+02  0.51100000000E-03 0.  1.
        -12    1    3    3    0    0 -0.22451281294E+02  0.25548324489E+00 -0.66169043481E+01  0.23407450237E+02  0.00000000000E+00 0.  1.
</event>
<event>
 7    1  0.2328615E-009  0.4778729E+02  0.7816164E-02  0.1312668E+00
        -11   -1    0    0    0    0  0.00000000000E+00  0.00000000000E+00  0.45593999997E+02  0.45594000000E+02  0.51100000000E-03 0.  1.
         11   -1    0    0    0    0 -0.00000000000E+00 -0.00000000000E+00 -0.45593999997E+02  0.45594000000E+02  0.51100000000E-03 0. -1.
    9900012    2    1    2    0    0 -0.34412815469E+02  0.32815254548E+01 -0.26241403679E+02  0.47787290963E+02  0.20000090818E+02 0.  0.
         12    1    1    2    0    0  0.34412815469E+02 -0.32815254548E+01  0.26241403679E+02  0.43400709037E+02  0.00000000000E+00 0. -1.
         11    1    3    3    0    0 -0.16038420699E+02  0.47770257801E+01 -0.54747388495E+01  0.17607489303E+02  0.51100000000E-03 0. -1.
        -11    1    3    3    0    0 -0.31946422598E+01 -0.28610006974E+01  0.15979995166E+00  0.42914566809E+01  0.51100000000E-03 0.  1.
        -12    1    3    3    0    0 -0.15179752511E+02  0.13655003720E+01 -0.20926464781E+02  0.25888344980E+02  0.00000000000E+00 0.  1.
</event>
<event>
 7    1  0.2328615E-009  0.4778727E+02  0.7816164E-02  0.1312668E+00
        -11   -1    0    0    0    0  0.00000000000E+00  0.00000000000E+00  0.45593999997E+02  0.45594000000E+02  0.51100000000E-03 0.  1.
         11   -1    0    0    0    0 -0.00000000000E+00 -0.00000000000E+00 -0.45593999997E+02  0.45594000000E+02  0.51100000000E-03 0. -1.
    9900012    2    1    2    0    0  0.29399100001E+02  0.10443508763E+02  0.30170337283E+02  0.47787271804E+02  0.20000003465E+02 0.  0.
         12    1    1    2    0    0 -0.29399100001E+02 -0.10443508763E+02 -0.30170337283E+02  0.43400728196E+02  0.00000000000E+00 0. -1.
         11    1    3    3    0    0  0.73033078595E+01  0.72688256790E+00  0.10504851041E+02  0.12814778953E+02  0.51100000000E-03 0. -1.
        -11    1    3    3    0    0  0.22875239645E+02  0.53225761081E+01  0.19467304548E+02  0.30505447904E+02  0.51100000000E-03 0.  1.
         12    1    3    3    0    0 -0.77944750355E+00  0.43940500869E+01  0.19818169442E+00  0.44670449473E+01  0.00000000000E+00 0. -1.
</event>
<event>
 7    1  0.2328615E-009  0.4778725E+02  0.7816164E-02  0.1312668E+00
        -11   -1    0    0    0    0  0.00000000000E+00  0.00000000000E+00  0.45593999997E+02  0.45594000000E+02  0.51100000000E-03 0.  1.
         11   -1    0    0    0    0 -0.00000000000E+00 -0.00000000000E+00 -0.45593999997E+02  0.45594000000E+02  0.51100000000E-03 0. -1.
    9900012    2    1    2    0    0  0.39695219305E+02 -0.12334057174E+02  0.12481400105E+02  0.47787254031E+02  0.19999922428E+02 0.  0.
         12    1    1    2    0    0 -0.39695219305E+02  0.12334057174E+02 -0.12481400105E+02  0.43400745969E+02  0.00000000000E+00 0. -1.
         11    1    3    3    0    0  0.10097993200E+02  0.22453951940E+01  0.46538181981E+01  0.11343248668E+02  0.51100000000E-03 0.  1.
        -11    1    3    3    0    0 -0.11023910704E+01 -0.21177404976E+01 -0.49637555572E-01  0.23880023105E+01  0.51100000000E-03 0. -1.
         12    1    3    3    0    0  0.30699617175E+02 -0.12461711871E+02  0.78772194627E+01  0.34056003053E+02  0.00000000000E+00 0. -1.
</event>
<event>
 7    1  0.2328615E-009  0.4778727E+02  0.7816164E-02  0.1312668E+00
        -11   -1    0    0    0    0  0.00000000000E+00  0.00000000000E+00  0.45593999997E+02  0.45594000000E+02  0.51100000000E-03 0.  1.
         11   -1    0    0    0    0 -0.00000000000E+00 -0.00000000000E+00 -0.45593999997E+02  0.45594000000E+02  0.51100000000E-03 0. -1.
    9900012    2    1    2    0    0 -0.23747568118E+02 -0.32724985810E+02  0.15771867717E+02  0.47787268450E+02  0.19999988171E+02 0.  0.
         12    1    1    2    0    0  0.23747568118E+02  0.32724985810E+02 -0.15771867717E+02  0.43400731550E+02  0.00000000000E+00 0. -1.
         11    1    3    3    0    0 -0.20441269567E+01 -0.37449970190E+01 -0.26311282948E+01  0.50126134952E+01  0.51100000000E-03 0. -1.
        -11    1    3    3    0    0 -0.86424356804E+01 -0.18611460009E+02  0.43715514379E+01  0.20980672067E+02  0.51100000000E-03 0.  1.
        -12    1    3    3    0    0 -0.13061005481E+02 -0.10368528782E+02  0.14031444574E+02  0.21793982888E+02  0.00000000000E+00 0.  1.
</event>
<event>
 7    1  0.2328615E-009  0.4778728E+02  0.7816164E-02  0.1312668E+00
        -11   -1    0    0    0    0  0.00000000000E+00  0.00000000000E+00  0.45593999997E+02  0.45594000000E+02  0.51100000000E-03 0.  1.
         11   -1    0    0    0    0 -0.00000000000E+00 -0.00000000000E+00 -0.45593999997E+02  0.45594000000E+02  0.51100000000E-03 0. -1.
    9900012    2    1    2    0    0 -0.33851128268E+02  0.26520076974E+02  0.58659550225E+01  0.47787276549E+02  0.20000025097E+02 0.  0.
         12    1    1    2    0    0  0.33851128268E+02 -0.26520076974E+02 -0.58659550225E+01  0.43400723451E+02  0.00000000000E+00 0. -1.
         11    1    3    3    0    0 -0.10775518426E+02  0.34945839448E+01  0.27206152947E+01  0.11650135713E+02  0.51100000000E-03 0. -1.
        -11    1    3    3    0    0 -0.12109853084E+02  0.11905870956E+02  0.92869954189E+01  0.19355789550E+02  0.51100000000E-03 0.  1.
         12    1    3    3    0    0 -0.10965756758E+02  0.11119622074E+02 -0.61416556911E+01  0.16781351285E+02  0.00000000000E+00 0. -1.
</event>
<event>
 7    1  0.2328615E-009  0.4778727E+02  0.7816164E-02  0.1312668E+00
        -11   -1    0    0    0    0  0.00000000000E+00  0.00000000000E+00  0.45593999997E+02  0.45594000000E+02  0.51100000000E-03 0.  1.
         11   -1    0    0    0    0 -0.00000000000E+00 -0.00000000000E+00 -0.45593999997E+02  0.45594000000E+02  0.51100000000E-03 0. -1.
    9900012    2    1    2    0    0  0.37453584501E+01 -0.29900671084E+02  0.31233718485E+02  0.47787274066E+02  0.20000013778E+02 0.  0.
         12    1    1    2    0    0 -0.37453584501E+01  0.29900671084E+02 -0.31233718485E+02  0.43400725934E+02  0.00000000000E+00 0. -1.
         11    1    3    3    0    0 -0.87470560371E+00 -0.42176190411E+00  0.14022832452E+01  0.17056938641E+01  0.51100000000E-03 0. -1.
        -11    1    3    3    0    0  0.91987402971E+01 -0.27461863695E+02  0.29045028841E+02  0.41016880443E+02  0.51100000000E-03 0.  1.
        -12    1    3    3    0    0 -0.45786762433E+01 -0.20170454843E+01  0.78640639897E+00  0.50646997592E+01  0.00000000000E+00 0.  1.
</event>
<event>
 7    1  0.2328615E-009  0.4778727E+02  0.7816164E-02  0.1312668E+00
        -11   -1    0    0    0    0  0.00000000000E+00  0.00000000000E+00  0.45593999997E+02  0.45594000000E+02  0.51100000000E-03 0.  1.
         11   -1    0    0    0    0 -0.00000000000E+00 -0.00000000000E+00 -0.45593999997E+02  0.45594000000E+02  0.51100000000E-03 0. -1.
    9900012    2    1    2    0    0 -0.18385999131E+02 -0.36621977280E+02  0.14297173437E+02  0.47787270141E+02  0.19999995883E+02 0.  0.
         12    1    1    2    0    0  0.18385999131E+02  0.36621977280E+02 -0.14297173437E+02  0.43400729859E+02  0.00000000000E+00 0. -1.
         11    1    3    3    0    0 -0.11065088364E+02 -0.21723378687E+02  0.80502018309E+01  0.25673860479E+02  0.51100000000E-03 0. -1.
        -11    1    3    3    0    0 -0.22869051102E+01 -0.13765329289E+02  0.86539299217E+01  0.16419644599E+02  0.51100000000E-03 0.  1.
         12    1    3    3    0    0 -0.50340056568E+01 -0.11332693040E+01 -0.24069583153E+01  0.56937650637E+01  0.00000000000E+00 0. -1.
</event>
<event>
 7    1  0.2328615E-009  0.4778727E+02  0.7816164E-02  0.1312668E+00
        -11   -1    0    0    0    0  0.00000000000E+00  0.00000000000E+00  0.45593999997E+02  0.45594000000E+02  0.51100000000E-03 0.  1.
         11   -1    0    0    0    0 -0.00000000000E+00 -0.00000000000E+00 -0.45593999997E+02  0.45594000000E+02  0.51100000000E-03 0. -1.
    9900012    2    1    2    0    0 -0.71484747805E+01  0.11347417854E+02  0.41276615362E+02  0.47787267755E+02  0.19999985003E+02 0.  0.
         12    1    1    2    0    0  0.71484747805E+01 -0.11347417854E+02 -0.41276615362E+02  0.43400732245E+02  0.00000000000E+00 0. -1.
         11    1    3    3    0    0 -0.26106245257E+01  0.16465312443E+01  0.86983019464E+01  0.92296740227E+01  0.51100000000E-03 0. -1.
        -11    1    3    3    0    0 -0.99748626411E+01  0.12935282069E+01  0.20759860544E+02  0.23068222949E+02  0.51100000000E-03 0.  1.
         12    1    3    3    0    0  0.54370123863E+01  0.84073584028E+01  0.11818452872E+02  0.15489370784E+02  0.00000000000E+00 0. -1.
</event>
<event>
 7    1  0.2328615E-009  0.4778727E+02  0.7816164E-02  0.1312668E+00
        -11   -1    0    0    0    0  0.00000000000E+00  0.00000000000E+00  0.45593999997E+02  0.45594000000E+02  0.51100000000E-03 0. -1.
         11   -1    0    0    0    0 -0.00000000000E+00 -0.00000000000E+00 -0.45593999997E+02  0.45594000000E+02  0.51100000000E-03 0.  1.
    9900012    2    1    2    0    0 -0.22387620431E+02  0.94705179576E+01 -0.35954516375E+02  0.47787268363E+02  0.19999987772E+02 0.  0.
         12    1    1    2    0    0  0.22387620431E+02 -0.94705179576E+01  0.35954516375E+02  0.43400731637E+02  0.00000000000E+00 0. -1.
         11    1    3    3    0    0 -0.15795826169E+01 -0.21793443170E+00 -0.35553769941E+00  0.16337025362E+01  0.51100000000E-03 0. -1.
        -11    1    3    3    0    0 -0.20129695611E+02  0.13171980005E+02 -0.35124951215E+02  0.42573088927E+02  0.51100000000E-03 0.  1.
        -12    1    3    3    0    0 -0.67834220306E+00 -0.34835276159E+01 -0.47402746016E+00  0.35804768996E+01  0.00000000000E+00 0.  1.
</event>
<event>
 7    1  0.2328615E-009  0.4778727E+02  0.7816164E-02  0.1312668E+00
        -11   -1    0    0    0    0  0.00000000000E+00  0.00000000000E+00  0.45593999997E+02  0.45594000000E+02  0.51100000000E-03 0.  1.
         11   -1    0    0    0    0 -0.00000000000E+00 -0.00000000000E+00 -0.45593999997E+02  0.45594000000E+02  0.51100000000E-03 0. -1.
    9900012    2    1    2    0    0  0.38822291874E+02  0.17306393628E+02  0.87716317577E+01  0.47787272697E+02  0.20000007533E+02 0.  0.
         12    1    1    2    0    0 -0.38822291874E+02 -0.17306393628E+02 -0.87716317577E+01  0.43400727303E+02  0.00000000000E+00 0. -1.
         11    1    3    3    0    0  0.12926535743E+02  0.16715242903E+01 -0.33099380460E+00  0.13038361742E+02  0.51100000000E-03 0. -1.
        -11    1    3    3    0    0  0.12630017042E+02  0.13646727557E+01 -0.11079805858E+01  0.12751756093E+02  0.51100000000E-03 0.  1.
        -12    1    3    3    0    0  0.13265739089E+02  0.14270196582E+02  0.10210606148E+02  0.21997154861E+02  0.00000000000E+00 0.  1.
</event>
<event>
 7    1  0.2328615E-009  0.4778727E+02  0.7816164E-02  0.1312668E+00
        -11   -1    0    0    0    0  0.00000000000E+00  0.00000000000E+00  0.45593999997E+02  0.45594000000E+02  0.51100000000E-03 0.  1.
         11   -1    0    0    0    0 -0.00000000000E+00 -0.00000000000E+00 -0.45593999997E+02  0.45594000000E+02  0.51100000000E-03 0. -1.
    9900012    2    1    2    0    0 -0.95796393556E+01 -0.15517429893E+02  0.39383538948E+02  0.47787271196E+02  0.20000000691E+02 0.  0.
         12    1    1    2    0    0  0.95796393556E+01  0.15517429893E+02 -0.39383538948E+02  0.43400728804E+02  0.00000000000E+00 0. -1.
         11    1    3    3    0    0 -0.41190119197E+01 -0.10043521375E+02  0.24283502168E+02  0.26599380794E+02  0.51100000000E-03 0. -1.
        -11    1    3    3    0    0 -0.49977847449E+01  0.11088339158E+01  0.13441931200E+02  0.14383771399E+02  0.51100000000E-03 0.  1.
         12    1    3    3    0    0 -0.46284269096E+00 -0.65827424332E+01  0.16581055799E+01  0.68041190034E+01  0.00000000000E+00 0. -1.
</event>
<event>
 7    1  0.2328615E-009  0.4778727E+02  0.7816164E-02  0.1312668E+00
        -11   -1    0    0    0    0  0.00000000000E+00  0.00000000000E+00  0.45593999997E+02  0.45594000000E+02  0.51100000000E-03 0.  1.
         11   -1    0    0    0    0 -0.00000000000E+00 -0.00000000000E+00 -0.45593999997E+02  0.45594000000E+02  0.51100000000E-03 0. -1.
    9900012    2    1    2    0    0 -0.24665931345E+02  0.20983666020E+02  0.28894651502E+02  0.47787270811E+02  0.19999998936E+02 0.  0.
         12    1    1    2    0    0  0.24665931345E+02 -0.20983666020E+02 -0.28894651502E+02  0.43400729189E+02  0.00000000000E+00 0. -1.
         11    1    3    3    0    0 -0.65833497679E+01  0.15014173879E+02  0.15328356283E+02  0.22443805783E+02  0.51100000000E-03 0. -1.
        -11    1    3    3    0    0 -0.28613726237E+01  0.54668265704E+01  0.36239219832E+01  0.71558686995E+01  0.51100000000E-03 0.  1.
        -12    1    3    3    0    0 -0.15221208953E+02  0.50266557073E+00  0.99423732358E+01  0.18187596329E+02  0.00000000000E+00 0.  1.
</event>
<event>
 7    1  0.2328615E-009  0.4778729E+02  0.7816164E-02  0.1312668E+00
        -11   -1    0    0    0    0  0.00000000000E+00  0.00000000000E+00  0.45593999997E+02  0.45594000000E+02  0.51100000000E-03 0. -1.
         11   -1    0    0    0    0 -0.00000000000E+00 -0.00000000000E+00 -0.45593999997E+02  0.45594000000E+02  0.51100000000E-03 0.  1.
    9900012    2    1    2    0    0 -0.11532561241E+02 -0.53908224419E+01 -0.41491693223E+02  0.47787290998E+02  0.20000090974E+02 0.  0.
         12    1    1    2    0    0  0.11532561241E+02  0.53908224419E+01  0.41491693223E+02  0.43400709002E+02  0.00000000000E+00 0. -1.
         11    1    3    3    0    0 -0.14633514531E+01 -0.18551479879E+01  0.51492517643E+00  0.24182885954E+01  0.51100000000E-03 0. -1.
        -11    1    3    3    0    0 -0.11825494938E+02 -0.28353615483E+01 -0.20919247530E+02  0.24197035420E+02  0.51100000000E-03 0.  1.
         12    1    3    3    0    0  0.17562851502E+01 -0.70031290570E+00 -0.21087370869E+02  0.21171966982E+02  0.00000000000E+00 0. -1.
</event>
<event>
 7    1  0.2328615E-009  0.4778727E+02  0.7816164E-02  0.1312668E+00
        -11   -1    0    0    0    0  0.00000000000E+00  0.00000000000E+00  0.45593999997E+02  0.45594000000E+02  0.51100000000E-03 0.  1.
         11   -1    0    0    0    0 -0.00000000000E+00 -0.00000000000E+00 -0.45593999997E+02  0.45594000000E+02  0.51100000000E-03 0. -1.
    9900012    2    1    2    0    0  0.15604017932E+02 -0.71648646045E+00  0.40492277536E+02  0.47787271106E+02  0.20000000282E+02 0.  0.
         12    1    1    2    0    0 -0.15604017932E+02  0.71648646045E+00 -0.40492277536E+02  0.43400728894E+02  0.00000000000E+00 0. -1.
         11    1    3    3    0    0  0.24449302885E+01  0.64069755374E+01  0.90552818415E+01  0.11358923767E+02  0.51100000000E-03 0. -1.
        -11    1    3    3    0    0  0.64088111206E+01  0.13665487975E+01  0.64778255788E+01  0.92142574354E+01  0.51100000000E-03 0.  1.
        -12    1    3    3    0    0  0.67502765232E+01 -0.84900107954E+01  0.24959170116E+02  0.27214089904E+02  0.00000000000E+00 0.  1.
</event>
<event>
 7    1  0.2328615E-009  0.4778727E+02  0.7816164E-02  0.1312668E+00
        -11   -1    0    0    0    0  0.00000000000E+00  0.00000000000E+00  0.45593999997E+02  0.45594000000E+02  0.51100000000E-03 0.  1.
         11   -1    0    0    0    0 -0.00000000000E+00 -0.00000000000E+00 -0.45593999997E+02  0.45594000000E+02  0.51100000000E-03 0. -1.
    9900012    2    1    2    0    0 -0.35493207704E+02  0.24687156476E+02  0.37946597873E+01  0.47787274996E+02  0.20000018015E+02 0.  0.
         12    1    1    2    0    0  0.35493207704E+02 -0.24687156476E+02 -0.37946597873E+01  0.43400725004E+02  0.00000000000E+00 0. -1.
         11    1    3    3    0    0 -0.13575534756E+02  0.10573146754E+02  0.12072191773E+01  0.17249462444E+02  0.51100000000E-03 0. -1.
        -11    1    3    3    0    0 -0.20842493968E+02  0.15794880613E+02 -0.12836535308E+01  0.26182734292E+02  0.51100000000E-03 0.  1.
         12    1    3    3    0    0 -0.10751789801E+01 -0.16808708916E+01  0.38710941409E+01  0.43550782589E+01  0.00000000000E+00 0. -1.
</event>
<event>
 7    1  0.2328615E-009  0.4778727E+02  0.7816164E-02  0.1312668E+00
        -11   -1    0    0    0    0  0.00000000000E+00  0.00000000000E+00  0.45593999997E+02  0.45594000000E+02  0.51100000000E-03 0. -1.
         11   -1    0    0    0    0 -0.00000000000E+00 -0.00000000000E+00 -0.45593999997E+02  0.45594000000E+02  0.51100000000E-03 0.  1.
    9900012    2    1    2    0    0  0.61363788745E+01  0.33987241879E+02 -0.26283753662E+02  0.47787268868E+02  0.19999990076E+02 0.  0.
         12    1    1    2    0    0 -0.61363788745E+01 -0.33987241879E+02  0.26283753662E+02  0.43400731132E+02  0.00000000000E+00 0. -1.
         11    1    3    3    0    0 -0.61747662304E+01  0.73341620987E+01 -0.89655820679E+01  0.13126284081E+02  0.51100000000E-03 0.  1.
        -11    1    3    3    0    0  0.30530984419E+01  0.50571734837E+01 -0.85068592312E+00  0.59682560720E+01  0.51100000000E-03 0. -1.
        -12    1    3    3    0    0  0.92580466630E+01  0.21595906297E+02 -0.16467485671E+02  0.28692728715E+02  0.00000000000E+00 0.  1.
</event>
<event>
 7    1  0.2328615E-009  0.4778727E+02  0.7816164E-02  0.1312668E+00
        -11   -1    0    0    0    0  0.00000000000E+00  0.00000000000E+00  0.45593999997E+02  0.45594000000E+02  0.51100000000E-03 0.  1.
         11   -1    0    0    0    0 -0.00000000000E+00 -0.00000000000E+00 -0.45593999997E+02  0.45594000000E+02  0.51100000000E-03 0. -1.
    9900012    2    1    2    0    0  0.37154753830E+01 -0.38011646959E+01  0.43073999096E+02  0.47787274101E+02  0.20000013938E+02 0.  0.
         12    1    1    2    0    0 -0.37154753830E+01  0.38011646959E+01 -0.43073999096E+02  0.43400725899E+02  0.00000000000E+00 0. -1.
         11    1    3    3    0    0  0.29296870555E+01  0.49749816291E+01  0.99907850222E+01  0.11539033498E+02  0.51100000000E-03 0. -1.
        -11    1    3    3    0    0 -0.21133156519E+01 -0.12404287331E+01  0.23879358977E+02  0.24004761026E+02  0.51100000000E-03 0.  1.
         12    1    3    3    0    0  0.28991039794E+01 -0.75357175919E+01  0.92038550967E+01  0.12243479577E+02  0.00000000000E+00 0. -1.
</event>
<event>
 7    1  0.2328615E-009  0.4778728E+02  0.7816164E-02  0.1312668E+00
        -11   -1    0    0    0    0  0.00000000000E+00  0.00000000000E+00  0.45593999997E+02  0.45594000000E+02  0.51100000000E-03 0. -1.
         11   -1    0    0    0    0 -0.00000000000E+00 -0.00000000000E+00 -0.45593999997E+02  0.45594000000E+02  0.51100000000E-03 0.  1.
    9900012    2    1    2    0    0 -0.40460493919E+02  0.10755404824E+02  0.11440825097E+02  0.47787276734E+02  0.20000025943E+02 0.  0.
         12    1    1    2    0    0  0.40460493919E+02 -0.10755404824E+02 -0.11440825097E+02  0.43400723266E+02  0.00000000000E+00 0. -1.
         11    1    3    3    0    0 -0.35003628438E+01 -0.11884266760E+00  0.59022766328E+01  0.68632013907E+01  0.51100000000E-03 0. -1.
        -11    1    3    3    0    0 -0.93862679694E+01 -0.19975362199E+01  0.41692531615E+01  0.10463022963E+02  0.51100000000E-03 0.  1.
         12    1    3    3    0    0 -0.27573863106E+02  0.12871783712E+02  0.13692953021E+01  0.30461052380E+02  0.00000000000E+00 0. -1.
</event>
<event>
 7    1  0.2328615E-009  0.4778727E+02  0.7816164E-02  0.1312668E+00
        -11   -1    0    0    0    0  0.00000000000E+00  0.00000000000E+00  0.45593999997E+02  0.45594000000E+02  0.51100000000E-03 0.  1.
         11   -1    0    0    0    0 -0.00000000000E+00 -0.00000000000E+00 -0.45593999997E+02  0.45594000000E+02  0.51100000000E-03 0. -1.
    9900012    2    1    2    0    0  0.65170930497E+01  0.36590694041E+02  0.22411425775E+02  0.47787269621E+02  0.19999993508E+02 0.  0.
         12    1    1    2    0    0 -0.65170930497E+01 -0.36590694041E+02 -0.22411425775E+02  0.43400730379E+02  0.00000000000E+00 0. -1.
         11    1    3    3    0    0 -0.42179030350E+01  0.29763580946E+01  0.20720997251E+01  0.55626442500E+01  0.51100000000E-03 0. -1.
        -11    1    3    3    0    0 -0.23404178540E+01  0.53743658693E+01  0.37532152904E+01  0.69604590011E+01  0.51100000000E-03 0.  1.
        -12    1    3    3    0    0  0.13075413939E+02  0.28239970077E+02  0.16586110759E+02  0.35264166370E+02  0.00000000000E+00 0.  1.
</event>
<event>
 7    1  0.2328615E-009  0.4778727E+02  0.7816164E-02  0.1312668E+00
        -11   -1    0    0    0    0  0.00000000000E+00  0.00000000000E+00  0.45593999997E+02  0.45594000000E+02  0.51100000000E-03 0.  1.
         11   -1    0    0    0    0 -0.00000000000E+00 -0.00000000000E+00 -0.45593999997E+02  0.45594000000E+02  0.51100000000E-03 0. -1.
    9900012    2    1    2    0    0  0.31126727674E+02 -0.23530229423E+02  0.19002060206E+02  0.47787272305E+02  0.20000005747E+02 0.  0.
         12    1    1    2    0    0 -0.31126727674E+02  0.23530229423E+02 -0.19002060206E+02  0.43400727695E+02  0.00000000000E+00 0. -1.
         11    1    3    3    0    0  0.10036906268E+00 -0.52440253388E+01 -0.12439867623E+00  0.52464608065E+01  0.51100000000E-03 0. -1.
        -11    1    3    3    0    0  0.91796824907E+01 -0.94189252893E+01  0.17857237987E+01  0.13272962517E+02  0.51100000000E-03 0.  1.
        -12    1    3    3    0    0  0.21846676120E+02 -0.88672787951E+01  0.17340735084E+02  0.29267848981E+02  0.00000000000E+00 0.  1.
</event>
<event>
 7    1  0.2328615E-009  0.4778727E+02  0.7816164E-02  0.1312668E+00
        -11   -1    0    0    0    0  0.00000000000E+00  0.00000000000E+00  0.45593999997E+02  0.45594000000E+02  0.51100000000E-03 0.  1.
         11   -1    0    0    0    0 -0.00000000000E+00 -0.00000000000E+00 -0.45593999997E+02  0.45594000000E+02  0.51100000000E-03 0. -1.
    9900012    2    1    2    0    0 -0.97124144060E+01  0.12573653467E+02  0.40388060458E+02  0.47787272095E+02  0.20000004792E+02 0.  0.
         12    1    1    2    0    0  0.97124144060E+01 -0.12573653467E+02 -0.40388060458E+02  0.43400727905E+02  0.00000000000E+00 0. -1.
         11    1    3    3    0    0 -0.21050210611E+01 -0.38001755900E+01  0.20451183766E+01  0.48015578324E+01  0.51100000000E-03 0. -1.
        -11    1    3    3    0    0 -0.92169090063E+00  0.99874756232E+01  0.17223088626E+02  0.19930729177E+02  0.51100000000E-03 0.  1.
        -12    1    3    3    0    0 -0.66857024443E+01  0.63863534333E+01  0.21119853455E+02  0.23054985086E+02  0.00000000000E+00 0.  1.
</event>
<event>
 7    1  0.2328615E-009  0.4778727E+02  0.7816164E-02  0.1312668E+00
        -11   -1    0    0    0    0  0.00000000000E+00  0.00000000000E+00  0.45593999997E+02  0.45594000000E+02  0.51100000000E-03 0. -1.
         11   -1    0    0    0    0 -0.00000000000E+00 -0.00000000000E+00 -0.45593999997E+02  0.45594000000E+02  0.51100000000E-03 0.  1.
    9900012    2    1    2    0    0 -0.18291792107E+02  0.23542702424E+02 -0.31540052944E+02  0.47787269181E+02  0.19999991503E+02 0.  0.
         12    1    1    2    0    0  0.18291792107E+02 -0.23542702424E+02  0.31540052944E+02  0.43400730819E+02  0.00000000000E+00 0. -1.
         11    1    3    3    0    0 -0.10804550856E+02  0.66533700052E+01 -0.11841036252E+02  0.17355569464E+02  0.51100000000E-03 0. -1.
        -11    1    3    3    0    0 -0.85389398607E+01  0.13174642275E+02 -0.21121446365E+02  0.26317298301E+02  0.51100000000E-03 0.  1.
         12    1    3    3    0    0  0.10516986097E+01  0.37146901442E+01  0.14224296742E+01  0.41144014159E+01  0.00000000000E+00 0. -1.
</event>
<event>
 7    1  0.2328615E-009  0.4778726E+02  0.7816164E-02  0.1312668E+00
        -11   -1    0    0    0    0  0.00000000000E+00  0.00000000000E+00  0.45593999997E+02  0.45594000000E+02  0.51100000000E-03 0. -1.
         11   -1    0    0    0    0 -0.00000000000E+00 -0.00000000000E+00 -0.45593999997E+02  0.45594000000E+02  0.51100000000E-03 0.  1.
    9900012    2    1    2    0    0 -0.13357992936E+02 -0.30058979451E+02 -0.28313360955E+02  0.47787255427E+02  0.19999928795E+02 0.  0.
         12    1    1    2    0    0  0.13357992936E+02  0.30058979451E+02  0.28313360955E+02  0.43400744573E+02  0.00000000000E+00 0. -1.
         11    1    3    3    0    0 -0.91071355637E+00 -0.15705251916E+02 -0.11274443198E+02  0.19354519023E+02  0.51100000000E-03 0. -1.
        -11    1    3    3    0    0 -0.10044094884E+02 -0.15491150992E+02 -0.17822123654E+02  0.25661015040E+02  0.51100000000E-03 0.  1.
         12    1    3    3    0    0 -0.24031844958E+01  0.11374234568E+01  0.78320589794E+00  0.27717213640E+01  0.00000000000E+00 0. -1.
</event>
<event>
 7    1  0.2328615E-009  0.4778727E+02  0.7816164E-02  0.1312668E+00
        -11   -1    0    0    0    0  0.00000000000E+00  0.00000000000E+00  0.45593999997E+02  0.45594000000E+02  0.51100000000E-03 0.  1.
         11   -1    0    0    0    0 -0.00000000000E+00 -0.00000000000E+00 -0.45593999997E+02  0.45594000000E+02  0.51100000000E-03 0. -1.
    9900012    2    1    2    0    0  0.53454899569E+00 -0.49802294395E+01  0.43110726647E+02  0.47787272126E+02  0.20000004933E+02 0.  0.
         12    1    1    2    0    0 -0.53454899569E+00  0.49802294395E+01 -0.43110726647E+02  0.43400727874E+02  0.00000000000E+00 0. -1.
         11    1    3    3    0    0 -0.28822387038E+01 -0.25562932481E+01  0.94458585936E+01  0.10201283250E+02  0.51100000000E-03 0. -1.
        -11    1    3    3    0    0 -0.24689747300E+01 -0.79354151826E+01  0.13301607987E+02  0.15684368832E+02  0.51100000000E-03 0.  1.
         12    1    3    3    0    0  0.58857624294E+01  0.55114789913E+01  0.20363260066E+02  0.21901620045E+02  0.00000000000E+00 0. -1.
</event>
<event>
 7    1  0.2328615E-009  0.4778726E+02  0.7816164E-02  0.1312668E+00
        -11   -1    0    0    0    0  0.00000000000E+00  0.00000000000E+00  0.45593999997E+02  0.45594000000E+02  0.51100000000E-03 0.  1.
         11   -1    0    0    0    0 -0.00000000000E+00 -0.00000000000E+00 -0.45593999997E+02  0.45594000000E+02  0.51100000000E-03 0. -1.
    9900012    2    1    2    0    0 -0.24304474356E+02 -0.23421462659E+02  0.27282811703E+02  0.47787260361E+02  0.19999951290E+02 0.  0.
         12    1    1    2    0    0  0.24304474356E+02  0.23421462659E+02 -0.27282811703E+02  0.43400739639E+02  0.00000000000E+00 0. -1.
         11    1    3    3    0    0  0.11249164255E+00  0.18362214186E+01  0.40543336628E+01  0.44521888076E+01  0.51100000000E-03 0. -1.
        -11    1    3    3    0    0 -0.42066527426E+01 -0.56127628140E+01  0.33184033952E+00  0.70220475629E+01  0.51100000000E-03 0.  1.
        -12    1    3    3    0    0 -0.20210313255E+02 -0.19644921264E+02  0.22896637701E+02  0.36313023991E+02  0.00000000000E+00 0.  1.
</event>
<event>
 7    1  0.2328615E-009  0.4778728E+02  0.7816164E-02  0.1312668E+00
        -11   -1    0    0    0    0  0.00000000000E+00  0.00000000000E+00  0.45593999997E+02  0.45594000000E+02  0.51100000000E-03 0. -1.
         11   -1    0    0    0    0 -0.00000000000E+00 -0.00000000000E+00 -0.45593999997E+02  0.45594000000E+02  0.51100000000E-03 0.  1.
    9900012    2    1    2    0    0  0.39361323152E+01 -0.41493485611E+02 -0.12100410209E+02  0.47787280963E+02  0.20000045222E+02 0.  0.
         12    1    1    2    0    0 -0.39361323152E+01  0.41493485611E+02  0.12100410209E+02  0.43400719037E+02  0.00000000000E+00 0. -1.
         11    1    3    3    0    0 -0.10846082051E+01 -0.53689313275E-01  0.12646012043E+01  0.16668755107E+01  0.51100000000E-03 0. -1.
        -11    1    3    3    0    0 -0.28253525632E+01 -0.14481098784E+01  0.16486703118E+00  0.31791226346E+01  0.51100000000E-03 0.  1.
        -12    1    3    3    0    0  0.78460930835E+01 -0.39991686419E+02 -0.13529878444E+02  0.42941282818E+02  0.00000000000E+00 0.  1.
</event>
<event>
 7    1  0.2328615E-009  0.4778727E+02  0.7816164E-02  0.1312668E+00
        -11   -1    0    0    0    0  0.00000000000E+00  0.00000000000E+00  0.45593999997E+02  0.45594000000E+02  0.51100000000E-03 0.  1.
         11   -1    0    0    0    0 -0.00000000000E+00 -0.00000000000E+00 -0.45593999997E+02  0.45594000000E+02  0.51100000000E-03 0. -1.
    9900012    2    1    2    0    0 -0.69796744891E+01 -0.45784450107E+01  0.42590437053E+02  0.47787270247E+02  0.19999996365E+02 0.  0.
         12    1    1    2    0    0  0.69796744891E+01  0.45784450107E+01 -0.42590437053E+02  0.43400729753E+02  0.00000000000E+00 0. -1.
         11    1    3    3    0    0  0.11178705918E+01 -0.29684282104E+01  0.18043664640E+01  0.36492381805E+01  0.51100000000E-03 0. -1.
        -11    1    3    3    0    0  0.34143380670E+01 -0.22597886483E+01  0.19545159613E+02  0.19969416960E+02  0.51100000000E-03 0.  1.
         12    1    3    3    0    0 -0.11511883148E+02  0.64977184793E+00  0.21240910977E+02  0.24168615107E+02  0.00000000000E+00 0. -1.
</event>
<event>
 7    1  0.2328615E-009  0.4778728E+02  0.7816164E-02  0.1312668E+00
        -11   -1    0    0    0    0  0.00000000000E+00  0.00000000000E+00  0.45593999997E+02  0.45594000000E+02  0.51100000000E-03 0.  1.
         11   -1    0    0    0    0 -0.00000000000E+00 -0.00000000000E+00 -0.45593999997E+02  0.45594000000E+02  0.51100000000E-03 0. -1.
    9900012    2    1    2    0    0  0.15790442221E+02  0.32642046024E+00  0.40424969119E+02  0.47787277147E+02  0.20000027826E+02 0.  0.
         12    1    1    2    0    0 -0.15790442221E+02 -0.32642046024E+00 -0.40424969119E+02  0.43400722853E+02  0.00000000000E+00 0. -1.
         11    1    3    3    0    0  0.28601882539E+01  0.20039504804E+01  0.26161892349E+01  0.43635926425E+01  0.51100000000E-03 0. -1.
        -11    1    3    3    0    0  0.14836061611E+01 -0.46303135252E+00  0.28707182307E+02  0.28749222625E+02  0.51100000000E-03 0.  1.
        -12    1    3    3    0    0  0.11446647806E+02 -0.12144986676E+01  0.91015975770E+01  0.14674461880E+02  0.00000000000E+00 0.  1.
</event>
<event>
 7    1  0.2328615E-009  0.4778727E+02  0.7816164E-02  0.1312668E+00
        -11   -1    0    0    0    0  0.00000000000E+00  0.00000000000E+00  0.45593999997E+02  0.45594000000E+02  0.51100000000E-03 0.  1.
         11   -1    0    0    0    0 -0.00000000000E+00 -0.00000000000E+00 -0.45593999997E+02  0.45594000000E+02  0.51100000000E-03 0. -1.
    9900012    2    1    2    0    0  0.26316607163E+02  0.20688412546E+02  0.27623342924E+02  0.47787270737E+02  0.19999998599E+02 0.  0.
         12    1    1    2    0    0 -0.26316607163E+02 -0.20688412546E+02 -0.27623342924E+02  0.43400729263E+02  0.00000000000E+00 0. -1.
         11    1    3    3    0    0  0.12693622482E+02  0.12067104393E+02  0.15921512506E+02  0.23669339258E+02  0.51100000000E-03 0. -1.
        -11    1    3    3    0    0  0.52288215989E+01  0.11013213472E+02  0.83076212129E+01  0.14752898589E+02  0.51100000000E-03 0.  1.
         12    1    3    3    0    0  0.83941630824E+01 -0.23919053197E+01  0.33942092049E+01  0.93650328904E+01  0.00000000000E+00 0. -1.
</event>
<event>
 7    1  0.2328615E-009  0.4778727E+02  0.7816164E-02  0.1312668E+00
        -11   -1    0    0    0    0  0.00000000000E+00  0.00000000000E+00  0.45593999997E+02  0.45594000000E+02  0.51100000000E-03 0. -1.
         11   -1    0    0    0    0 -0.00000000000E+00 -0.00000000000E+00 -0.45593999997E+02  0.45594000000E+02  0.51100000000E-03 0.  1.
    9900012    2    1    2    0    0  0.28662782361E+00  0.71492235845E+01 -0.42806893488E+02  0.47787266326E+02  0.19999978486E+02 0.  0.
         12    1    1    2    0    0 -0.28662782361E+00 -0.71492235845E+01  0.42806893488E+02  0.43400733674E+02  0.00000000000E+00 0. -1.
         11    1    3    3    0    0 -0.82642818106E+01  0.21004436334E+01 -0.12279816467E+02  0.14950053847E+02  0.51100000000E-03 0. -1.
        -11    1    3    3    0    0  0.19764324590E+01  0.83654844919E+00 -0.11392848809E+01  0.24298289804E+01  0.51100000000E-03 0.  1.
        -12    1    3    3    0    0  0.65744771752E+01  0.42122315019E+01 -0.29387792140E+02  0.30407383498E+02  0.00000000000E+00 0.  1.
</event>
<event>
 7    1  0.2328615E-009  0.4778727E+02  0.7816164E-02  0.1312668E+00
        -11   -1    0    0    0    0  0.00000000000E+00  0.00000000000E+00  0.45593999997E+02  0.45594000000E+02  0.51100000000E-03 0.  1.
         11   -1    0    0    0    0 -0.00000000000E+00 -0.00000000000E+00 -0.45593999997E+02  0.45594000000E+02  0.51100000000E-03 0. -1.
    9900012    2    1    2    0    0 -0.33716541620E+02  0.15324980715E+02  0.22626597023E+02  0.47787272983E+02  0.20000008839E+02 0.  0.
         12    1    1    2    0    0  0.33716541620E+02 -0.15324980715E+02 -0.22626597023E+02  0.43400727017E+02  0.00000000000E+00 0. -1.
         11    1    3    3    0    0 -0.78215314765E+01  0.11146816619E+02  0.91942903615E+00  0.13648194950E+02  0.51100000000E-03 0. -1.
        -11    1    3    3    0    0 -0.10410857756E+01  0.56332255777E+00  0.57483358560E+00  0.13159125383E+01  0.51100000000E-03 0.  1.
         12    1    3    3    0    0 -0.24853924368E+02  0.36148415380E+01  0.21132334401E+02  0.32823165495E+02  0.00000000000E+00 0. -1.
</event>
<event>
 7    1  0.2328615E-009  0.4778727E+02  0.7816164E-02  0.1312668E+00
        -11   -1    0    0    0    0  0.00000000000E+00  0.00000000000E+00  0.45593999997E+02  0.45594000000E+02  0.51100000000E-03 0. -1.
         11   -1    0    0    0    0 -0.00000000000E+00 -0.00000000000E+00 -0.45593999997E+02  0.45594000000E+02  0.51100000000E-03 0.  1.
    9900012    2    1    2    0    0 -0.24659680074E+02 -0.61375284551E+00 -0.35709196667E+02  0.47787271429E+02  0.20000001751E+02 0.  0.
         12    1    1    2    0    0  0.24659680074E+02  0.61375284551E+00  0.35709196667E+02  0.43400728571E+02  0.00000000000E+00 0. -1.
         11    1    3    3    0    0 -0.18799659103E+02  0.20647832851E+01 -0.21981454265E+02  0.28997842062E+02  0.51100000000E-03 0.  1.
        -11    1    3    3    0    0 -0.10282308312E+01  0.38752813157E+01 -0.19173245457E+01  0.44442319464E+01  0.51100000000E-03 0. -1.
        -12    1    3    3    0    0 -0.48317901405E+01 -0.65538174463E+01 -0.11810417857E+02  0.14345197420E+02  0.00000000000E+00 0.  1.
</event>
<event>
 7    1  0.2328615E-009  0.4778727E+02  0.7816164E-02  0.1312668E+00
        -11   -1    0    0    0    0  0.00000000000E+00  0.00000000000E+00  0.45593999997E+02  0.45594000000E+02  0.51100000000E-03 0.  1.
         11   -1    0    0    0    0 -0.00000000000E+00 -0.00000000000E+00 -0.45593999997E+02  0.45594000000E+02  0.51100000000E-03 0. -1.
    9900012    2    1    2    0    0  0.13240250236E+02  0.30353716406E+02  0.28053000734E+02  0.47787272170E+02  0.20000005133E+02 0.  0.
         12    1    1    2    0    0 -0.13240250236E+02 -0.30353716406E+02 -0.28053000734E+02  0.43400727830E+02  0.00000000000E+00 0. -1.
         11    1    3    3    0    0  0.16892040118E+01  0.84336518675E+01  0.17539154235E+02  0.19534631442E+02  0.51100000000E-03 0. -1.
        -11    1    3    3    0    0  0.76647850202E+01  0.75045722552E+01  0.73148281429E+01  0.12983614488E+02  0.51100000000E-03 0.  1.
        -12    1    3    3    0    0  0.38862612040E+01  0.14415492283E+02  0.31990183561E+01  0.15269026241E+02  0.00000000000E+00 0.  1.
</event>
<event>
 7    1  0.2328615E-009  0.4778727E+02  0.7816164E-02  0.1312668E+00
        -11   -1    0    0    0    0  0.00000000000E+00  0.00000000000E+00  0.45593999997E+02  0.45594000000E+02  0.51100000000E-03 0.  1.
         11   -1    0    0    0    0 -0.00000000000E+00 -0.00000000000E+00 -0.45593999997E+02  0.45594000000E+02  0.51100000000E-03 0. -1.
    9900012    2    1    2    0    0  0.36228055531E+02 -0.15797417734E+01  0.23846505007E+02  0.47787269676E+02  0.19999993759E+02 0.  0.
         12    1    1    2    0    0 -0.36228055531E+02  0.15797417734E+01 -0.23846505007E+02  0.43400730324E+02  0.00000000000E+00 0. -1.
         11    1    3    3    0    0  0.19339763794E+02 -0.10903889583E+01  0.14497044149E+02  0.24194621324E+02  0.51100000000E-03 0.  1.
        -11    1    3    3    0    0  0.15502593863E+02  0.35488964140E+01  0.10637436167E+02  0.19133220604E+02  0.51100000000E-03 0. -1.
         12    1    3    3    0    0  0.13856978740E+01 -0.40382492291E+01 -0.12879753090E+01  0.44594277470E+01  0.00000000000E+00 0. -1.
</event>
<event>
 7    1  0.2328615E-009  0.4778727E+02  0.7816164E-02  0.1312668E+00
        -11   -1    0    0    0    0  0.00000000000E+00  0.00000000000E+00  0.45593999997E+02  0.45594000000E+02  0.51100000000E-03 0.  1.
         11   -1    0    0    0    0 -0.00000000000E+00 -0.00000000000E+00 -0.45593999997E+02  0.45594000000E+02  0.51100000000E-03 0. -1.
    9900012    2    1    2    0    0  0.38988658120E+02  0.19065780162E+02  0.64699171480E-01  0.47787267043E+02  0.19999981757E+02 0.  0.
         12    1    1    2    0    0 -0.38988658120E+02 -0.19065780162E+02 -0.64699171480E-01  0.43400732957E+02  0.00000000000E+00 0. -1.
         11    1    3    3    0    0  0.15075576090E+01  0.44768740458E+01 -0.10605764468E+01  0.48414826063E+01  0.51100000000E-03 0. -1.
        -11    1    3    3    0    0  0.25259400569E+02  0.12771814582E+02 -0.56366428301E+01  0.28860497354E+02  0.51100000000E-03 0.  1.
         12    1    3    3    0    0  0.12221699942E+02  0.18170915342E+01  0.67619184484E+01  0.14085287083E+02  0.00000000000E+00 0. -1.
</event>
<event>
 7    1  0.2328615E-009  0.4778727E+02  0.7816164E-02  0.1312668E+00
        -11   -1    0    0    0    0  0.00000000000E+00  0.00000000000E+00  0.45593999997E+02  0.45594000000E+02  0.51100000000E-03 0.  1.
         11   -1    0    0    0    0 -0.00000000000E+00 -0.00000000000E+00 -0.45593999997E+02  0.45594000000E+02  0.51100000000E-03 0. -1.
    9900012    2    1    2    0    0  0.99837090508E+01  0.12254062699E+02  0.40420126238E+02  0.47787273000E+02  0.20000008916E+02 0.  0.
         12    1    1    2    0    0 -0.99837090508E+01 -0.12254062699E+02 -0.40420126238E+02  0.43400727000E+02  0.00000000000E+00 0. -1.
         11    1    3    3    0    0  0.44800755643E+00  0.48074815903E+01  0.23256390437E+02  0.23752311181E+02  0.51100000000E-03 0. -1.
        -11    1    3    3    0    0  0.80361816003E+01  0.34246416693E+01  0.17671456574E+02  0.19712654895E+02  0.51100000000E-03 0.  1.
         12    1    3    3    0    0  0.14995198941E+01  0.40219394390E+01 -0.50772077337E+00  0.43223069242E+01  0.00000000000E+00 0. -1.
</event>
<event>
 7    1  0.2328615E-009  0.4778727E+02  0.7816164E-02  0.1312668E+00
        -11   -1    0    0    0    0  0.00000000000E+00  0.00000000000E+00  0.45593999997E+02  0.45594000000E+02  0.51100000000E-03 0.  1.
         11   -1    0    0    0    0 -0.00000000000E+00 -0.00000000000E+00 -0.45593999997E+02  0.45594000000E+02  0.51100000000E-03 0. -1.
    9900012    2    1    2    0    0  0.22200048081E+02 -0.35555892480E+02  0.11249871973E+02  0.47787271385E+02  0.20000001555E+02 0.  0.
         12    1    1    2    0    0 -0.22200048081E+02  0.35555892480E+02 -0.11249871973E+02  0.43400728615E+02  0.00000000000E+00 0. -1.
         11    1    3    3    0    0  0.19270504060E+01 -0.10798596311E+02  0.28488267348E+01  0.11333093999E+02  0.51100000000E-03 0. -1.
        -11    1    3    3    0    0  0.84690427598E+01 -0.21487803756E+02  0.40075055316E+01  0.23441640223E+02  0.51100000000E-03 0.  1.
        -12    1    3    3    0    0  0.11803954915E+02 -0.32694924135E+01  0.43935397067E+01  0.13012537164E+02  0.00000000000E+00 0.  1.
</event>
<event>
 7    1  0.2328615E-009  0.4778727E+02  0.7816164E-02  0.1312668E+00
        -11   -1    0    0    0    0  0.00000000000E+00  0.00000000000E+00  0.45593999997E+02  0.45594000000E+02  0.51100000000E-03 0.  1.
         11   -1    0    0    0    0 -0.00000000000E+00 -0.00000000000E+00 -0.45593999997E+02  0.45594000000E+02  0.51100000000E-03 0. -1.
    9900012    2    1    2    0    0  0.40936727929E+02  0.14072794688E+02 -0.31247605450E+01  0.47787269911E+02  0.19999994830E+02 0.  0.
         12    1    1    2    0    0 -0.40936727929E+02 -0.14072794688E+02  0.31247605450E+01  0.43400730089E+02  0.00000000000E+00 0. -1.
         11    1    3    3    0    0  0.14946070536E+00 -0.38114021314E+00 -0.31827950934E+01  0.32090171754E+01  0.51100000000E-03 0. -1.
        -11    1    3    3    0    0  0.21978111266E+01 -0.78750231619E+00 -0.19463403417E+01  0.30395352660E+01  0.51100000000E-03 0.  1.
        -12    1    3    3    0    0  0.38589456097E+02  0.15241437217E+02  0.20043748901E+01  0.41538717469E+02  0.00000000000E+00 0.  1.
</event>
<event>
 7    1  0.2328615E-009  0.4778727E+02  0.7816164E-02  0.1312668E+00
        -11   -1    0    0    0    0  0.00000000000E+00  0.00000000000E+00  0.45593999997E+02  0.45594000000E+02  0.51100000000E-03 0.  1.
         11   -1    0    0    0    0 -0.00000000000E+00 -0.00000000000E+00 -0.45593999997E+02  0.45594000000E+02  0.51100000000E-03 0. -1.
    9900012    2    1    2    0    0 -0.13164070838E+02  0.13162786224E+00  0.41355933451E+02  0.47787270530E+02  0.19999997656E+02 0.  0.
         12    1    1    2    0    0  0.13164070838E+02 -0.13162786224E+00 -0.41355933451E+02  0.43400729470E+02  0.00000000000E+00 0. -1.
         11    1    3    3    0    0 -0.76283442029E+01 -0.53101189593E-01  0.85756255223E+01  0.11477622070E+02  0.51100000000E-03 0. -1.
        -11    1    3    3    0    0 -0.69665405200E+01 -0.52960324063E+01  0.12539434265E+02  0.15291110425E+02  0.51100000000E-03 0.  1.
        -12    1    3    3    0    0  0.14308138848E+01  0.54807614582E+01  0.20240873663E+02  0.21018538036E+02  0.00000000000E+00 0.  1.
</event>
<event>
 7    1  0.2328615E-009  0.4778727E+02  0.7816164E-02  0.1312668E+00
        -11   -1    0    0    0    0  0.00000000000E+00  0.00000000000E+00  0.45593999997E+02  0.45594000000E+02  0.51100000000E-03 0. -1.
         11   -1    0    0    0    0 -0.00000000000E+00 -0.00000000000E+00 -0.45593999997E+02  0.45594000000E+02  0.51100000000E-03 0.  1.
    9900012    2    1    2    0    0 -0.20476021905E+02  0.77092797498E+01 -0.37482297820E+02  0.47787272850E+02  0.20000008231E+02 0.  0.
         12    1    1    2    0    0  0.20476021905E+02 -0.77092797498E+01  0.37482297820E+02  0.43400727150E+02  0.00000000000E+00 0. -1.
         11    1    3    3    0    0 -0.10401460144E+02  0.23210755555E+01 -0.51424974043E+01  0.11833133342E+02  0.51100000000E-03 0. -1.
        -11    1    3    3    0    0 -0.90085742296E+01 -0.88799278747E+00 -0.15479668533E+02  0.17932179984E+02  0.51100000000E-03 0.  1.
         12    1    3    3    0    0 -0.10659875309E+01  0.62761969818E+01 -0.16860131883E+02  0.18021959524E+02  0.00000000000E+00 0. -1.
</event>
<event>
 7    1  0.2328615E-009  0.4778727E+02  0.7816164E-02  0.1312668E+00
        -11   -1    0    0    0    0  0.00000000000E+00  0.00000000000E+00  0.45593999997E+02  0.45594000000E+02  0.51100000000E-03 0.  1.
         11   -1    0    0    0    0 -0.00000000000E+00 -0.00000000000E+00 -0.45593999997E+02  0.45594000000E+02  0.51100000000E-03 0. -1.
    9900012    2    1    2    0    0  0.20690245272E+01  0.33314734358E+02  0.27739337943E+02  0.47787271235E+02  0.20000000869E+02 0.  0.
         12    1    1    2    0    0 -0.20690245272E+01 -0.33314734358E+02 -0.27739337943E+02  0.43400728765E+02  0.00000000000E+00 0. -1.
         11    1    3    3    0    0  0.80221048577E+00  0.67418118647E+01 -0.68719156598E+00  0.68240604769E+01  0.51100000000E-03 0. -1.
        -11    1    3    3    0    0  0.83386660161E+00 -0.12215498392E+01  0.50317881342E+00  0.15622761274E+01  0.51100000000E-03 0.  1.
         12    1    3    3    0    0  0.43294743977E+00  0.27794472332E+02  0.27923350695E+02  0.39400934631E+02  0.00000000000E+00 0. -1.
</event>
<event>
 7    1  0.2328615E-009  0.4778728E+02  0.7816164E-02  0.1312668E+00
        -11   -1    0    0    0    0  0.00000000000E+00  0.00000000000E+00  0.45593999997E+02  0.45594000000E+02  0.51100000000E-03 0.  1.
         11   -1    0    0    0    0 -0.00000000000E+00 -0.00000000000E+00 -0.45593999997E+02  0.45594000000E+02  0.51100000000E-03 0. -1.
    9900012    2    1    2    0    0  0.35044982388E+02  0.22494672367E+02 -0.12225455892E+02  0.47787275959E+02  0.20000022409E+02 0.  0.
         12    1    1    2    0    0 -0.35044982388E+02 -0.22494672367E+02  0.12225455892E+02  0.43400724041E+02  0.00000000000E+00 0. -1.
         11    1    3    3    0    0  0.17251158166E+02  0.44038588263E+01 -0.11063680956E+02  0.20961905142E+02  0.51100000000E-03 0. -1.
        -11    1    3    3    0    0  0.74724287642E+01  0.24327160616E+01  0.11021197253E+01  0.79353618205E+01  0.51100000000E-03 0.  1.
        -12    1    3    3    0    0  0.10321395458E+02  0.15658097479E+02 -0.22638946609E+01  0.18890008997E+02  0.00000000000E+00 0.  1.
</event>
<event>
 7    1  0.2744731E-009  0.4778727E+02  0.7816164E-02  0.1312668E+00
        -11   -1    0    0    0    0  0.00000000000E+00  0.00000000000E+00  0.45593999997E+02  0.45594000000E+02  0.51100000000E-03 0. -1.
         11   -1    0    0    0    0 -0.00000000000E+00 -0.00000000000E+00 -0.45593999997E+02  0.45594000000E+02  0.51100000000E-03 0.  1.
    9900012    2    1    2    0    0  0.31659526210E+02 -0.24582893115E+02 -0.16642691048E+02  0.47787269602E+02  0.19999993423E+02 0.  0.
         12    1    1    2    0    0 -0.31659526210E+02  0.24582893115E+02  0.16642691048E+02  0.43400730398E+02  0.00000000000E+00 0. -1.
         11    1    3    3    0    0  0.87167898553E+01 -0.11841232638E+02  0.70317468919E+00  0.14720450763E+02  0.51100000000E-03 0.  1.
        -11    1    3    3    0    0  0.60789931349E+01 -0.81254410405E+00 -0.62323642183E-01  0.61333734561E+01  0.51100000000E-03 0. -1.
        -12    1    3    3    0    0  0.16863743220E+02 -0.11929116373E+02 -0.17283542095E+02  0.26933445383E+02  0.00000000000E+00 0.  1.
</event>
<event>
 7    1  0.2328615E-009  0.4778727E+02  0.7816164E-02  0.1312668E+00
        -11   -1    0    0    0    0  0.00000000000E+00  0.00000000000E+00  0.45593999997E+02  0.45594000000E+02  0.51100000000E-03 0. -1.
         11   -1    0    0    0    0 -0.00000000000E+00 -0.00000000000E+00 -0.45593999997E+02  0.45594000000E+02  0.51100000000E-03 0.  1.
    9900012    2    1    2    0    0 -0.10946797078E+02  0.41010151429E+02 -0.90530879841E+01  0.47787270876E+02  0.19999999230E+02 0.  0.
         12    1    1    2    0    0  0.10946797078E+02 -0.41010151429E+02  0.90530879841E+01  0.43400729124E+02  0.00000000000E+00 0. -1.
         11    1    3    3    0    0  0.25942585225E+01  0.12792047364E+02 -0.72954654969E+01  0.14952941855E+02  0.51100000000E-03 0. -1.
        -11    1    3    3    0    0 -0.35980387085E+01  0.14008796049E+01 -0.17352772684E+01  0.42331470179E+01  0.51100000000E-03 0.  1.
         12    1    3    3    0    0 -0.99430168917E+01  0.26817224460E+02 -0.22345218813E-01  0.28601182003E+02  0.00000000000E+00 0. -1.
</event>
<event>
 7    1  0.2328615E-009  0.4778727E+02  0.7816164E-02  0.1312668E+00
        -11   -1    0    0    0    0  0.00000000000E+00  0.00000000000E+00  0.45593999997E+02  0.45594000000E+02  0.51100000000E-03 0.  1.
         11   -1    0    0    0    0 -0.00000000000E+00 -0.00000000000E+00 -0.45593999997E+02  0.45594000000E+02  0.51100000000E-03 0. -1.
    9900012    2    1    2    0    0  0.10057451947E+01  0.36987363577E+02  0.22683620143E+02  0.47787271774E+02  0.20000003326E+02 0.  0.
         12    1    1    2    0    0 -0.10057451947E+01 -0.36987363577E+02 -0.22683620143E+02  0.43400728226E+02  0.00000000000E+00 0. -1.
         11    1    3    3    0    0  0.61129782344E+01  0.24250521549E+02  0.15131572205E+02  0.29230476834E+02  0.51100000000E-03 0. -1.
        -11    1    3    3    0    0  0.16864062633E+01  0.11443351352E+01  0.42607145610E+01  0.47230453965E+01  0.51100000000E-03 0.  1.
        -12    1    3    3    0    0 -0.67936393030E+01  0.11592506893E+02  0.32913333772E+01  0.13833749544E+02  0.00000000000E+00 0.  1.
</event>
<event>
 7    1  0.2328615E-009  0.4778727E+02  0.7816164E-02  0.1312668E+00
        -11   -1    0    0    0    0  0.00000000000E+00  0.00000000000E+00  0.45593999997E+02  0.45594000000E+02  0.51100000000E-03 0.  1.
         11   -1    0    0    0    0 -0.00000000000E+00 -0.00000000000E+00 -0.45593999997E+02  0.45594000000E+02  0.51100000000E-03 0. -1.
    9900012    2    1    2    0    0  0.33208356482E+02  0.47161993440E+01  0.27542435017E+02  0.47787271859E+02  0.20000003713E+02 0.  0.
         12    1    1    2    0    0 -0.33208356482E+02 -0.47161993440E+01 -0.27542435017E+02  0.43400728141E+02  0.00000000000E+00 0. -1.
         11    1    3    3    0    0  0.17088506355E+02  0.28933221839E+01  0.11570292821E+02  0.20838906856E+02  0.51100000000E-03 0. -1.
        -11    1    3    3    0    0  0.13374826099E+02  0.75455762714E+01  0.11158358906E+02  0.18982377833E+02  0.51100000000E-03 0.  1.
         12    1    3    3    0    0  0.27450240280E+01 -0.57226991114E+01  0.48137832898E+01  0.79659871701E+01  0.00000000000E+00 0. -1.
</event>
<event>
 7    1  0.2328615E-009  0.4778727E+02  0.7816164E-02  0.1312668E+00
        -11   -1    0    0    0    0  0.00000000000E+00  0.00000000000E+00  0.45593999997E+02  0.45594000000E+02  0.51100000000E-03 0.  1.
         11   -1    0    0    0    0 -0.00000000000E+00 -0.00000000000E+00 -0.45593999997E+02  0.45594000000E+02  0.51100000000E-03 0. -1.
    9900012    2    1    2    0    0 -0.37831505807E+02 -0.82972593605E+00  0.21253518879E+02  0.47787270265E+02  0.19999996448E+02 0.  0.
         12    1    1    2    0    0  0.37831505807E+02  0.82972593605E+00 -0.21253518879E+02  0.43400729735E+02  0.00000000000E+00 0. -1.
         11    1    3    3    0    0 -0.44394910141E+01 -0.21739552081E+01  0.80943069645E+00  0.50090258559E+01  0.51100000000E-03 0. -1.
        -11    1    3    3    0    0 -0.21283930240E+02 -0.42928465881E+00  0.21795061850E+02  0.30466616042E+02  0.51100000000E-03 0.  1.
        -12    1    3    3    0    0 -0.12108084553E+02  0.17735139308E+01 -0.13509736672E+01  0.12311628368E+02  0.00000000000E+00 0.  1.
</event>
<event>
 7    1  0.2328615E-009  0.4778724E+02  0.7816164E-02  0.1312668E+00
        -11   -1    0    0    0    0  0.00000000000E+00  0.00000000000E+00  0.45593999997E+02  0.45594000000E+02  0.51100000000E-03 0. -1.
         11   -1    0    0    0    0 -0.00000000000E+00 -0.00000000000E+00 -0.45593999997E+02  0.45594000000E+02  0.51100000000E-03 0.  1.
    9900012    2    1    2    0    0  0.32278509049E+02 -0.25737431509E+02 -0.13390620313E+02  0.47787236879E+02  0.19999844227E+02 0.  0.
         12    1    1    2    0    0 -0.32278509049E+02  0.25737431509E+02  0.13390620313E+02  0.43400763121E+02  0.00000000000E+00 0. -1.
         11    1    3    3    0    0  0.12268401642E+02 -0.21086560366E+02 -0.38657512978E+01  0.24700217414E+02  0.51100000000E-03 0. -1.
        -11    1    3    3    0    0  0.76669303470E+01 -0.40382584082E+01 -0.36364638892E+01  0.93975114683E+01  0.51100000000E-03 0.  1.
        -12    1    3    3    0    0  0.12343177059E+02 -0.61261273488E+00 -0.58884051260E+01  0.13689507997E+02  0.00000000000E+00 0.  1.
</event>
<event>
 7    1  0.2328615E-009  0.4778727E+02  0.7816164E-02  0.1312668E+00
        -11   -1    0    0    0    0  0.00000000000E+00  0.00000000000E+00  0.45593999997E+02  0.45594000000E+02  0.51100000000E-03 0.  1.
         11   -1    0    0    0    0 -0.00000000000E+00 -0.00000000000E+00 -0.45593999997E+02  0.45594000000E+02  0.51100000000E-03 0. -1.
    9900012    2    1    2    0    0  0.18386305718E+02  0.19326790071E+02  0.34235102656E+02  0.47787270671E+02  0.19999998299E+02 0.  0.
         12    1    1    2    0    0 -0.18386305718E+02 -0.19326790071E+02 -0.34235102656E+02  0.43400729329E+02  0.00000000000E+00 0. -1.
         11    1    3    3    0    0  0.15106410507E+02  0.11286557183E+02  0.12885462336E+02  0.22839114504E+02  0.51100000000E-03 0. -1.
        -11    1    3    3    0    0  0.49824740121E+01  0.11690634472E+01  0.51073756830E+01  0.72302865263E+01  0.51100000000E-03 0.  1.
        -12    1    3    3    0    0 -0.17025788019E+01  0.68711694410E+01  0.16242264637E+02  0.17717869641E+02  0.00000000000E+00 0.  1.
</event>
<event>
 7    1  0.2328615E-009  0.4778727E+02  0.7816164E-02  0.1312668E+00
        -11   -1    0    0    0    0  0.00000000000E+00  0.00000000000E+00  0.45593999997E+02  0.45594000000E+02  0.51100000000E-03 0.  1.
         11   -1    0    0    0    0 -0.00000000000E+00 -0.00000000000E+00 -0.45593999997E+02  0.45594000000E+02  0.51100000000E-03 0. -1.
    9900012    2    1    2    0    0 -0.15711614097E+02 -0.32843393973E+02  0.23623711713E+02  0.47787273045E+02  0.20000009119E+02 0.  0.
         12    1    1    2    0    0  0.15711614097E+02  0.32843393973E+02 -0.23623711713E+02  0.43400726955E+02  0.00000000000E+00 0. -1.
         11    1    3    3    0    0 -0.42931108990E+01 -0.15492370373E+02  0.12748420201E+02  0.20517469602E+02  0.51100000000E-03 0. -1.
        -11    1    3    3    0    0 -0.11810799298E+02 -0.19083152554E+02  0.11702874170E+02  0.25310451509E+02  0.51100000000E-03 0.  1.
         12    1    3    3    0    0  0.39229609955E+00  0.17321289548E+01 -0.82758265861E+00  0.19593519343E+01  0.00000000000E+00 0. -1.
</event>
<event>
 7    1  0.2328615E-009  0.4778728E+02  0.7816164E-02  0.1312668E+00
        -11   -1    0    0    0    0  0.00000000000E+00  0.00000000000E+00  0.45593999997E+02  0.45594000000E+02  0.51100000000E-03 0.  1.
         11   -1    0    0    0    0 -0.00000000000E+00 -0.00000000000E+00 -0.45593999997E+02  0.45594000000E+02  0.51100000000E-03 0. -1.
    9900012    2    1    2    0    0 -0.96296935062E+01 -0.17865609328E+02  0.38362890883E+02  0.47787281221E+02  0.20000046398E+02 0.  0.
         12    1    1    2    0    0  0.96296935062E+01  0.17865609328E+02 -0.38362890883E+02  0.43400718779E+02  0.00000000000E+00 0. -1.
         11    1    3    3    0    0  0.12408651851E+01 -0.16423664721E+00  0.71988832793E+01  0.73068899549E+01  0.51100000000E-03 0. -1.
        -11    1    3    3    0    0 -0.10240875963E+02 -0.57713378329E+01  0.23529975365E+02  0.26302920404E+02  0.51100000000E-03 0.  1.
         12    1    3    3    0    0 -0.62968272843E+00 -0.11930034848E+02  0.76340322386E+01  0.14177470861E+02  0.00000000000E+00 0. -1.
</event>
<event>
 7    1  0.2328615E-009  0.4778727E+02  0.7816164E-02  0.1312668E+00
        -11   -1    0    0    0    0  0.00000000000E+00  0.00000000000E+00  0.45593999997E+02  0.45594000000E+02  0.51100000000E-03 0.  1.
         11   -1    0    0    0    0 -0.00000000000E+00 -0.00000000000E+00 -0.45593999997E+02  0.45594000000E+02  0.51100000000E-03 0. -1.
    9900012    2    1    2    0    0  0.19518980903E+02 -0.28703899548E+02  0.26052235352E+02  0.47787269228E+02  0.19999991717E+02 0.  0.
         12    1    1    2    0    0 -0.19518980903E+02  0.28703899548E+02 -0.26052235352E+02  0.43400730772E+02  0.00000000000E+00 0. -1.
         11    1    3    3    0    0 -0.13476597031E+01 -0.14595742267E+01  0.98164053188E-01  0.19890148419E+01  0.51100000000E-03 0. -1.
        -11    1    3    3    0    0  0.20565373474E+01 -0.84838386694E+00 -0.20037285986E+01  0.29939989320E+01  0.51100000000E-03 0.  1.
        -12    1    3    3    0    0  0.18810103258E+02 -0.26395941454E+02  0.27957799898E+02  0.42804255454E+02  0.00000000000E+00 0.  1.
</event>
<event>
 7    1  0.2328615E-009  0.4778727E+02  0.7816164E-02  0.1312668E+00
        -11   -1    0    0    0    0  0.00000000000E+00  0.00000000000E+00  0.45593999997E+02  0.45594000000E+02  0.51100000000E-03 0.  1.
         11   -1    0    0    0    0 -0.00000000000E+00 -0.00000000000E+00 -0.45593999997E+02  0.45594000000E+02  0.51100000000E-03 0. -1.
    9900012    2    1    2    0    0  0.19918056776E+02 -0.40389675786E+01  0.38348155137E+02  0.47787271351E+02  0.20000001399E+02 0.  0.
         12    1    1    2    0    0 -0.19918056776E+02  0.40389675786E+01 -0.38348155137E+02  0.43400728649E+02  0.00000000000E+00 0. -1.
         11    1    3    3    0    0  0.72041767531E+01  0.22059202744E+01  0.18043473170E+02  0.19553341690E+02  0.51100000000E-03 0. -1.
        -11    1    3    3    0    0  0.12030729296E+02 -0.42070774176E+01  0.22047890851E+02  0.25466594571E+02  0.51100000000E-03 0.  1.
         12    1    3    3    0    0  0.68315072679E+00 -0.20378104355E+01 -0.17432088845E+01  0.27673350902E+01  0.00000000000E+00 0. -1.
</event>
<event>
 7    1  0.2328615E-009  0.4778721E+02  0.7816164E-02  0.1312668E+00
        -11   -1    0    0    0    0  0.00000000000E+00  0.00000000000E+00  0.45593999997E+02  0.45594000000E+02  0.51100000000E-03 0.  1.
         11   -1    0    0    0    0 -0.00000000000E+00 -0.00000000000E+00 -0.45593999997E+02  0.45594000000E+02  0.51100000000E-03 0. -1.
    9900012    2    1    2    0    0 -0.31570507346E+02  0.12359129559E+01  0.29755741776E+02  0.47787209874E+02  0.19999721096E+02 0.  0.
         12    1    1    2    0    0  0.31570507346E+02 -0.12359129559E+01 -0.29755741776E+02  0.43400790126E+02  0.00000000000E+00 0. -1.
         11    1    3    3    0    0 -0.23008709622E+02 -0.61408806956E+00  0.93862202486E+01  0.24857171066E+02  0.51100000000E-03 0. -1.
        -11    1    3    3    0    0 -0.24112231771E+01  0.12339164335E+01  0.15486300540E+01  0.31200644673E+01  0.51100000000E-03 0.  1.
         12    1    3    3    0    0 -0.61505745476E+01  0.61608459197E+00  0.18820891474E+02  0.19809974340E+02  0.00000000000E+00 0. -1.
</event>
<event>
 7    1  0.2328615E-009  0.4778728E+02  0.7816164E-02  0.1312668E+00
        -11   -1    0    0    0    0  0.00000000000E+00  0.00000000000E+00  0.45593999997E+02  0.45594000000E+02  0.51100000000E-03 0.  1.
         11   -1    0    0    0    0 -0.00000000000E+00 -0.00000000000E+00 -0.45593999997E+02  0.45594000000E+02  0.51100000000E-03 0. -1.
    9900012    2    1    2    0    0  0.21314509645E+02  0.16792129296E+02  0.33872390703E+02  0.47787276739E+02  0.20000025963E+02 0.  0.
         12    1    1    2    0    0 -0.21314509645E+02 -0.16792129296E+02 -0.33872390703E+02  0.43400723261E+02  0.00000000000E+00 0. -1.
         11    1    3    3    0    0  0.16912731475E+01  0.70822713171E+01  0.20381145953E+02  0.21642783613E+02  0.51100000000E-03 0. -1.
        -11    1    3    3    0    0  0.10253677631E+01 -0.50537605957E+00  0.10210929832E+01  0.15327802037E+01  0.51100000000E-03 0.  1.
        -12    1    3    3    0    0  0.18597868734E+02  0.10215234038E+02  0.12470151766E+02  0.24611712922E+02  0.00000000000E+00 0.  1.
</event>
<event>
 7    1  0.2328615E-009  0.4778725E+02  0.7816164E-02  0.1312668E+00
        -11   -1    0    0    0    0  0.00000000000E+00  0.00000000000E+00  0.45593999997E+02  0.45594000000E+02  0.51100000000E-03 0. -1.
         11   -1    0    0    0    0 -0.00000000000E+00 -0.00000000000E+00 -0.45593999997E+02  0.45594000000E+02  0.51100000000E-03 0.  1.
    9900012    2    1    2    0    0  0.32994426639E+02  0.24395688509E+02 -0.14136594510E+02  0.47787249875E+02  0.19999903479E+02 0.  0.
         12    1    1    2    0    0 -0.32994426639E+02 -0.24395688509E+02  0.14136594510E+02  0.43400750125E+02  0.00000000000E+00 0. -1.
         11    1    3    3    0    0  0.61727314910E+01  0.10810605281E+02 -0.98372468414E+01  0.15866418193E+02  0.51100000000E-03 0. -1.
        -11    1    3    3    0    0  0.90174058984E+01  0.96767531349E+00 -0.44419235537E+01  0.10098548894E+02  0.51100000000E-03 0.  1.
         12    1    3    3    0    0  0.17804289250E+02  0.12617407915E+02  0.14257588528E+00  0.21822282788E+02  0.00000000000E+00 0. -1.
</event>
<event>
 7    1  0.2328615E-009  0.4778727E+02  0.7816164E-02  0.1312668E+00
        -11   -1    0    0    0    0  0.00000000000E+00  0.00000000000E+00  0.45593999997E+02  0.45594000000E+02  0.51100000000E-03 0.  1.
         11   -1    0    0    0    0 -0.00000000000E+00 -0.00000000000E+00 -0.45593999997E+02  0.45594000000E+02  0.51100000000E-03 0. -1.
    9900012    2    1    2    0    0 -0.10439943776E+02  0.16152019475E+02  0.38906850732E+02  0.47787271976E+02  0.20000004248E+02 0.  0.
         12    1    1    2    0    0  0.10439943776E+02 -0.16152019475E+02 -0.38906850732E+02  0.43400728024E+02  0.00000000000E+00 0. -1.
         11    1    3    3    0    0 -0.10206153973E+01 -0.98632532942E+00  0.75867694766E+01  0.77183913348E+01  0.51100000000E-03 0. -1.
        -11    1    3    3    0    0  0.28911418730E+01  0.69138085164E+01  0.17063887428E+02  0.18636944598E+02  0.51100000000E-03 0.  1.
        -12    1    3    3    0    0 -0.12310470252E+02  0.10224536288E+02  0.14256193826E+02  0.21431936043E+02  0.00000000000E+00 0.  1.
</event>
<event>
 7    1  0.2328615E-009  0.4778727E+02  0.7816164E-02  0.1312668E+00
        -11   -1    0    0    0    0  0.00000000000E+00  0.00000000000E+00  0.45593999997E+02  0.45594000000E+02  0.51100000000E-03 0.  1.
         11   -1    0    0    0    0 -0.00000000000E+00 -0.00000000000E+00 -0.45593999997E+02  0.45594000000E+02  0.51100000000E-03 0. -1.
    9900012    2    1    2    0    0  0.18273840644E+02  0.22887870631E+02  0.32028662708E+02  0.47787272947E+02  0.20000008674E+02 0.  0.
         12    1    1    2    0    0 -0.18273840644E+02 -0.22887870631E+02 -0.32028662708E+02  0.43400727053E+02  0.00000000000E+00 0. -1.
         11    1    3    3    0    0  0.17752959029E+01 -0.12451859290E+01  0.89579644494E+00  0.23461916104E+01  0.51100000000E-03 0. -1.
        -11    1    3    3    0    0 -0.24806171844E+01  0.57056961857E+01  0.90482870363E+01  0.10980889269E+02  0.51100000000E-03 0.  1.
        -12    1    3    3    0    0  0.18979161925E+02  0.18427360374E+02  0.22084579226E+02  0.34460192068E+02  0.00000000000E+00 0.  1.
</event>
<event>
 7    1  0.2328615E-009  0.4778727E+02  0.7816164E-02  0.1312668E+00
        -11   -1    0    0    0    0  0.00000000000E+00  0.00000000000E+00  0.45593999997E+02  0.45594000000E+02  0.51100000000E-03 0.  1.
         11   -1    0    0    0    0 -0.00000000000E+00 -0.00000000000E+00 -0.45593999997E+02  0.45594000000E+02  0.51100000000E-03 0. -1.
    9900012    2    1    2    0    0 -0.33476670276E+00  0.10155709482E+02  0.42194463894E+02  0.47787270891E+02  0.19999999302E+02 0.  0.
         12    1    1    2    0    0  0.33476670276E+00 -0.10155709482E+02 -0.42194463894E+02  0.43400729109E+02  0.00000000000E+00 0. -1.
         11    1    3    3    0    0 -0.38673903297E+01  0.11286823828E+02  0.23261757593E+02  0.26143038588E+02  0.51100000000E-03 0. -1.
        -11    1    3    3    0    0  0.29917442072E+01  0.38697591852E+01  0.12860252261E+02  0.13759057309E+02  0.51100000000E-03 0.  1.
        -12    1    3    3    0    0  0.54087941979E+00 -0.50008735303E+01  0.60724540411E+01  0.78851749945E+01  0.00000000000E+00 0.  1.
</event>
<event>
 7    1  0.2328615E-009  0.4778727E+02  0.7816164E-02  0.1312668E+00
        -11   -1    0    0    0    0  0.00000000000E+00  0.00000000000E+00  0.45593999997E+02  0.45594000000E+02  0.51100000000E-03 0. -1.
         11   -1    0    0    0    0 -0.00000000000E+00 -0.00000000000E+00 -0.45593999997E+02  0.45594000000E+02  0.51100000000E-03 0.  1.
    9900012    2    1    2    0    0 -0.26229964309E+02  0.14638541650E+02 -0.31326110457E+02  0.47787272752E+02  0.20000007785E+02 0.  0.
         12    1    1    2    0    0  0.26229964309E+02 -0.14638541650E+02  0.31326110457E+02  0.43400727248E+02  0.00000000000E+00 0. -1.
         11    1    3    3    0    0 -0.75416433873E+01  0.72454588259E+00 -0.10426248964E+02  0.12888290012E+02  0.51100000000E-03 0. -1.
        -11    1    3    3    0    0 -0.20982858865E+02  0.13790043303E+02 -0.20789760273E+02  0.32598463045E+02  0.51100000000E-03 0.  1.
         12    1    3    3    0    0  0.22945379431E+01  0.12395246501E+00 -0.11010122001E+00  0.23005196944E+01  0.00000000000E+00 0. -1.
</event>
<event>
 7    1  0.2328615E-009  0.4778727E+02  0.7816164E-02  0.1312668E+00
        -11   -1    0    0    0    0  0.00000000000E+00  0.00000000000E+00  0.45593999997E+02  0.45594000000E+02  0.51100000000E-03 0.  1.
         11   -1    0    0    0    0 -0.00000000000E+00 -0.00000000000E+00 -0.45593999997E+02  0.45594000000E+02  0.51100000000E-03 0. -1.
    9900012    2    1    2    0    0  0.18706935416E+02  0.37332916143E+02  0.11829093123E+02  0.47787268387E+02  0.19999987884E+02 0.  0.
         12    1    1    2    0    0 -0.18706935416E+02 -0.37332916143E+02 -0.11829093123E+02  0.43400731613E+02  0.00000000000E+00 0. -1.
         11    1    3    3    0    0  0.13367117651E+01  0.94638643576E+01  0.74970739840E+01  0.12147330798E+02  0.51100000000E-03 0. -1.
        -11    1    3    3    0    0  0.53399307675E+01  0.20682658279E+02  0.27771120832E+01  0.21540649152E+02  0.51100000000E-03 0.  1.
        -12    1    3    3    0    0  0.12030292884E+02  0.71863935067E+01  0.15549070557E+01  0.14099288438E+02  0.00000000000E+00 0.  1.
</event>
<event>
 7    1  0.2328615E-009  0.4778727E+02  0.7816164E-02  0.1312668E+00
        -11   -1    0    0    0    0  0.00000000000E+00  0.00000000000E+00  0.45593999997E+02  0.45594000000E+02  0.51100000000E-03 0.  1.
         11   -1    0    0    0    0 -0.00000000000E+00 -0.00000000000E+00 -0.45593999997E+02  0.45594000000E+02  0.51100000000E-03 0. -1.
    9900012    2    1    2    0    0  0.35737594714E+02 -0.46779629212E+01  0.24177771970E+02  0.47787266475E+02  0.19999979167E+02 0.  0.
         12    1    1    2    0    0 -0.35737594714E+02  0.46779629212E+01 -0.24177771970E+02  0.43400733525E+02  0.00000000000E+00 0. -1.
         11    1    3    3    0    0  0.26864208666E+02 -0.14682007828E-01  0.86187455144E+01  0.28212917206E+02  0.51100000000E-03 0. -1.
        -11    1    3    3    0    0  0.42450880030E+01 -0.34563304886E+01  0.32443341964E+01  0.63633872457E+01  0.51100000000E-03 0.  1.
        -12    1    3    3    0    0  0.46282980456E+01 -0.12069504247E+01  0.12314692259E+02  0.13210962023E+02  0.00000000000E+00 0.  1.
</event>
<event>
 7    1  0.2328615E-009  0.4778727E+02  0.7816164E-02  0.1312668E+00
        -11   -1    0    0    0    0  0.00000000000E+00  0.00000000000E+00  0.45593999997E+02  0.45594000000E+02  0.51100000000E-03 0.  1.
         11   -1    0    0    0    0 -0.00000000000E+00 -0.00000000000E+00 -0.45593999997E+02  0.45594000000E+02  0.51100000000E-03 0. -1.
    9900012    2    1    2    0    0  0.53484392397E+01 -0.49465403947E+01  0.42784920214E+02  0.47787268879E+02  0.19999990126E+02 0.  0.
         12    1    1    2    0    0 -0.53484392397E+01  0.49465403947E+01 -0.42784920214E+02  0.43400731121E+02  0.00000000000E+00 0. -1.
         11    1    3    3    0    0  0.66948487573E+01  0.26797148616E+01  0.96829655950E+01  0.12073180799E+02  0.51100000000E-03 0. -1.
        -11    1    3    3    0    0  0.28456827306E+01 -0.16734088390E+01  0.23144405352E+02  0.23378659215E+02  0.51100000000E-03 0.  1.
         12    1    3    3    0    0 -0.41920922482E+01 -0.59528464172E+01  0.99575492669E+01  0.12335428865E+02  0.00000000000E+00 0. -1.
</event>
<event>
 7    1  0.2328615E-009  0.4778727E+02  0.7816164E-02  0.1312668E+00
        -11   -1    0    0    0    0  0.00000000000E+00  0.00000000000E+00  0.45593999997E+02  0.45594000000E+02  0.51100000000E-03 0.  1.
         11   -1    0    0    0    0 -0.00000000000E+00 -0.00000000000E+00 -0.45593999997E+02  0.45594000000E+02  0.51100000000E-03 0. -1.
    9900012    2    1    2    0    0 -0.33814919431E+02  0.24883094286E+02  0.11000282888E+02  0.47787269810E+02  0.19999994374E+02 0.  0.
         12    1    1    2    0    0  0.33814919431E+02 -0.24883094286E+02 -0.11000282888E+02  0.43400730190E+02  0.00000000000E+00 0. -1.
         11    1    3    3    0    0 -0.11182242163E+01  0.56308541769E+01  0.11601640729E+01  0.58568699061E+01  0.51100000000E-03 0. -1.
        -11    1    3    3    0    0 -0.79277761351E+01  0.92497403802E+01  0.91034540252E+01  0.15207899493E+02  0.51100000000E-03 0.  1.
         12    1    3    3    0    0 -0.24768919080E+02  0.10002499728E+02  0.73666479005E+00  0.26722500411E+02  0.00000000000E+00 0. -1.
</event>
<event>
 7    1  0.2328615E-009  0.4778728E+02  0.7816164E-02  0.1312668E+00
        -11   -1    0    0    0    0  0.00000000000E+00  0.00000000000E+00  0.45593999997E+02  0.45594000000E+02  0.51100000000E-03 0. -1.
         11   -1    0    0    0    0 -0.00000000000E+00 -0.00000000000E+00 -0.45593999997E+02  0.45594000000E+02  0.51100000000E-03 0.  1.
    9900012    2    1    2    0    0  0.17183483095E+02 -0.37955359048E+02 -0.12154891123E+02  0.47787277081E+02  0.20000027521E+02 0.  0.
         12    1    1    2    0    0 -0.17183483095E+02  0.37955359048E+02  0.12154891123E+02  0.43400722919E+02  0.00000000000E+00 0. -1.
         11    1    3    3    0    0  0.87767485911E+00 -0.79384637229E+01 -0.61010298430E+01  0.10050476847E+02  0.51100000000E-03 0. -1.
        -11    1    3    3    0    0  0.17215209396E+02 -0.29274110058E+02 -0.85131481267E+01  0.35011578735E+02  0.51100000000E-03 0.  1.
         12    1    3    3    0    0 -0.90940116040E+00 -0.74278526722E+00  0.24592868468E+01  0.27252214990E+01  0.00000000000E+00 0. -1.
</event>
<event>
 7    1  0.2328615E-009  0.4778726E+02  0.7816164E-02  0.1312668E+00
        -11   -1    0    0    0    0  0.00000000000E+00  0.00000000000E+00  0.45593999997E+02  0.45594000000E+02  0.51100000000E-03 0. -1.
         11   -1    0    0    0    0 -0.00000000000E+00 -0.00000000000E+00 -0.45593999997E+02  0.45594000000E+02  0.51100000000E-03 0.  1.
    9900012    2    1    2    0    0  0.12611437277E+02 -0.17260963892E+02 -0.37770817926E+02  0.47787263700E+02  0.19999966512E+02 0.  0.
         12    1    1    2    0    0 -0.12611437277E+02  0.17260963892E+02  0.37770817926E+02  0.43400736300E+02  0.00000000000E+00 0. -1.
         11    1    3    3    0    0  0.37379048351E+01 -0.29121241172E+01 -0.79946711529E+00  0.48053665167E+01  0.51100000000E-03 0. -1.
        -11    1    3    3    0    0  0.39592470650E+01  0.10540396058E+01 -0.22346828399E+01  0.46669523747E+01  0.51100000000E-03 0.  1.
        -12    1    3    3    0    0  0.49142853765E+01 -0.15402879380E+02 -0.34736667970E+02  0.38314944808E+02  0.00000000000E+00 0.  1.
</event>
<event>
 7    1  0.2328615E-009  0.4778727E+02  0.7816164E-02  0.1312668E+00
        -11   -1    0    0    0    0  0.00000000000E+00  0.00000000000E+00  0.45593999997E+02  0.45594000000E+02  0.51100000000E-03 0.  1.
         11   -1    0    0    0    0 -0.00000000000E+00 -0.00000000000E+00 -0.45593999997E+02  0.45594000000E+02  0.51100000000E-03 0. -1.
    9900012    2    1    2    0    0  0.29543573792E+00 -0.30363010461E+02  0.31010055110E+02  0.47787271844E+02  0.20000003646E+02 0.  0.
         12    1    1    2    0    0 -0.29543573792E+00  0.30363010461E+02 -0.31010055110E+02  0.43400728156E+02  0.00000000000E+00 0. -1.
         11    1    3    3    0    0 -0.37106223219E+00 -0.19723924369E+02  0.19977811718E+02  0.28076392949E+02  0.51100000000E-03 0. -1.
        -11    1    3    3    0    0 -0.15670379228E+01 -0.41916454846E+01  0.12011122881E+02  0.12817666435E+02  0.51100000000E-03 0.  1.
         12    1    3    3    0    0  0.22335358929E+01 -0.64474406077E+01 -0.97887948918E+00  0.68932124607E+01  0.00000000000E+00 0. -1.
</event>
<event>
 7    1  0.2328615E-009  0.4778727E+02  0.7816164E-02  0.1312668E+00
        -11   -1    0    0    0    0  0.00000000000E+00  0.00000000000E+00  0.45593999997E+02  0.45594000000E+02  0.51100000000E-03 0. -1.
         11   -1    0    0    0    0 -0.00000000000E+00 -0.00000000000E+00 -0.45593999997E+02  0.45594000000E+02  0.51100000000E-03 0.  1.
    9900012    2    1    2    0    0  0.45801691275E+01  0.32886442172E+02 -0.27948658011E+02  0.47787268294E+02  0.19999987459E+02 0.  0.
         12    1    1    2    0    0 -0.45801691275E+01 -0.32886442172E+02  0.27948658011E+02  0.43400731706E+02  0.00000000000E+00 0. -1.
         11    1    3    3    0    0 -0.32307775791E+01  0.18956852318E+02 -0.22652145058E+02  0.29713967248E+02  0.51100000000E-03 0. -1.
        -11    1    3    3    0    0  0.12920244253E+01  0.85962657359E+00 -0.28768721254E+01  0.32687426403E+01  0.51100000000E-03 0.  1.
        -12    1    3    3    0    0  0.65189222813E+01  0.13069963280E+02 -0.24196408276E+01  0.14804558406E+02  0.00000000000E+00 0.  1.
</event>
<event>
 7    1  0.2328615E-009  0.4778727E+02  0.7816164E-02  0.1312668E+00
        -11   -1    0    0    0    0  0.00000000000E+00  0.00000000000E+00  0.45593999997E+02  0.45594000000E+02  0.51100000000E-03 0. -1.
         11   -1    0    0    0    0 -0.00000000000E+00 -0.00000000000E+00 -0.45593999997E+02  0.45594000000E+02  0.51100000000E-03 0.  1.
    9900012    2    1    2    0    0 -0.33035718771E+02  0.16214303458E+02 -0.23007846337E+02  0.47787270232E+02  0.19999996295E+02 0.  0.
         12    1    1    2    0    0  0.33035718771E+02 -0.16214303458E+02  0.23007846337E+02  0.43400729768E+02  0.00000000000E+00 0. -1.
         11    1    3    3    0    0 -0.36326508364E+01  0.75863094177E-01 -0.26277174076E+01  0.44840613671E+01  0.51100000000E-03 0. -1.
        -11    1    3    3    0    0 -0.28745371814E+02  0.17745811562E+02 -0.22480277320E+02  0.40577987843E+02  0.51100000000E-03 0.  1.
         12    1    3    3    0    0 -0.65769612064E+00 -0.16073711979E+01  0.21001483908E+01  0.27252210219E+01  0.00000000000E+00 0. -1.
</event>
<event>
 7    1  0.2328615E-009  0.4778727E+02  0.7816164E-02  0.1312668E+00
        -11   -1    0    0    0    0  0.00000000000E+00  0.00000000000E+00  0.45593999997E+02  0.45594000000E+02  0.51100000000E-03 0. -1.
         11   -1    0    0    0    0 -0.00000000000E+00 -0.00000000000E+00 -0.45593999997E+02  0.45594000000E+02  0.51100000000E-03 0.  1.
    9900012    2    1    2    0    0 -0.11381500616E+02 -0.20528048106E+02 -0.36505944103E+02  0.47787271087E+02  0.20000000194E+02 0.  0.
         12    1    1    2    0    0  0.11381500616E+02  0.20528048106E+02  0.36505944103E+02  0.43400728913E+02  0.00000000000E+00 0. -1.
         11    1    3    3    0    0 -0.29151543519E+01 -0.96408858656E+00  0.26360484285E+00  0.30817331929E+01  0.51100000000E-03 0. -1.
        -11    1    3    3    0    0 -0.20230933952E+01 -0.17895045748E+02 -0.21483662229E+02  0.28033432045E+02  0.51100000000E-03 0.  1.
        -12    1    3    3    0    0 -0.64432528689E+01 -0.16689137718E+01 -0.15285886717E+02  0.16672105849E+02  0.00000000000E+00 0.  1.
</event>
<event>
 7    1  0.2328615E-009  0.4778727E+02  0.7816164E-02  0.1312668E+00
        -11   -1    0    0    0    0  0.00000000000E+00  0.00000000000E+00  0.45593999997E+02  0.45594000000E+02  0.51100000000E-03 0.  1.
         11   -1    0    0    0    0 -0.00000000000E+00 -0.00000000000E+00 -0.45593999997E+02  0.45594000000E+02  0.51100000000E-03 0. -1.
    9900012    2    1    2    0    0 -0.33547866160E+02  0.24863729713E+02  0.11830421367E+02  0.47787271333E+02  0.20000001314E+02 0.  0.
         12    1    1    2    0    0  0.33547866160E+02 -0.24863729713E+02 -0.11830421367E+02  0.43400728667E+02  0.00000000000E+00 0. -1.
         11    1    3    3    0    0 -0.83428607911E+00 -0.29089473549E+01  0.79366401036E+00  0.31285636956E+01  0.51100000000E-03 0. -1.
        -11    1    3    3    0    0 -0.49953097556E+01  0.28186492002E+01  0.31281109388E+01  0.65332213474E+01  0.51100000000E-03 0.  1.
        -12    1    3    3    0    0 -0.27718270325E+02  0.24954027868E+02  0.79086464175E+01  0.38125486290E+02  0.00000000000E+00 0.  1.
</event>
<event>
 7    1  0.2328615E-009  0.4778727E+02  0.7816164E-02  0.1312668E+00
        -11   -1    0    0    0    0  0.00000000000E+00  0.00000000000E+00  0.45593999997E+02  0.45594000000E+02  0.51100000000E-03 0.  1.
         11   -1    0    0    0    0 -0.00000000000E+00 -0.00000000000E+00 -0.45593999997E+02  0.45594000000E+02  0.51100000000E-03 0. -1.
    9900012    2    1    2    0    0 -0.42341379198E+01 -0.10694772004E+02  0.41848743359E+02  0.47787269673E+02  0.19999993747E+02 0.  0.
         12    1    1    2    0    0  0.42341379198E+01  0.10694772004E+02 -0.41848743359E+02  0.43400730327E+02  0.00000000000E+00 0. -1.
         11    1    3    3    0    0 -0.30888546302E+01  0.24398733233E+01  0.10580968004E+02  0.11289414906E+02  0.51100000000E-03 0.  1.
        -11    1    3    3    0    0  0.34868676635E+01 -0.16578547444E+00  0.17051181523E+01  0.38849915187E+01  0.51100000000E-03 0. -1.
        -12    1    3    3    0    0 -0.46321509531E+01 -0.12968859853E+02  0.29562657203E+02  0.32612863248E+02  0.00000000000E+00 0.  1.
</event>
<event>
 7    1  0.2328615E-009  0.4778726E+02  0.7816164E-02  0.1312668E+00
        -11   -1    0    0    0    0  0.00000000000E+00  0.00000000000E+00  0.45593999997E+02  0.45594000000E+02  0.51100000000E-03 0.  1.
         11   -1    0    0    0    0 -0.00000000000E+00 -0.00000000000E+00 -0.45593999997E+02  0.45594000000E+02  0.51100000000E-03 0. -1.
    9900012    2    1    2    0    0 -0.17463336254E+02  0.39004389643E+02 -0.75705851060E+01  0.47787259415E+02  0.19999946975E+02 0.  0.
         12    1    1    2    0    0  0.17463336254E+02 -0.39004389643E+02  0.75705851060E+01  0.43400740585E+02  0.00000000000E+00 0. -1.
         11    1    3    3    0    0  0.35630512216E+01  0.48633059775E+01 -0.26336439609E+01  0.65789938298E+01  0.51100000000E-03 0. -1.
        -11    1    3    3    0    0 -0.87423100829E+01  0.72932206475E+01 -0.15450053253E+01  0.11489390528E+02  0.51100000000E-03 0.  1.
        -12    1    3    3    0    0 -0.12284077393E+02  0.26847863018E+02 -0.33919358198E+01  0.29718875056E+02  0.00000000000E+00 0.  1.
</event>
<event>
 7    1  0.2328615E-009  0.4778727E+02  0.7816164E-02  0.1312668E+00
        -11   -1    0    0    0    0  0.00000000000E+00  0.00000000000E+00  0.45593999997E+02  0.45594000000E+02  0.51100000000E-03 0.  1.
         11   -1    0    0    0    0 -0.00000000000E+00 -0.00000000000E+00 -0.45593999997E+02  0.45594000000E+02  0.51100000000E-03 0. -1.
    9900012    2    1    2    0    0  0.30532086814E+02 -0.51519390868E+01  0.30411712558E+02  0.47787273482E+02  0.20000011113E+02 0.  0.
         12    1    1    2    0    0 -0.30532086814E+02  0.51519390868E+01 -0.30411712558E+02  0.43400726518E+02  0.00000000000E+00 0. -1.
         11    1    3    3    0    0  0.19367130623E+02  0.13118194693E+01  0.24701061405E+02  0.31415745315E+02  0.51100000000E-03 0. -1.
        -11    1    3    3    0    0  0.56026639329E+01  0.12491005860E+01  0.12825521440E+01  0.58817544731E+01  0.51100000000E-03 0.  1.
         12    1    3    3    0    0  0.55622922586E+01 -0.77128591420E+01  0.44280990091E+01  0.10489773694E+02  0.00000000000E+00 0. -1.
</event>
<event>
 7    1  0.2328615E-009  0.4778728E+02  0.7816164E-02  0.1312668E+00
        -11   -1    0    0    0    0  0.00000000000E+00  0.00000000000E+00  0.45593999997E+02  0.45594000000E+02  0.51100000000E-03 0.  1.
         11   -1    0    0    0    0 -0.00000000000E+00 -0.00000000000E+00 -0.45593999997E+02  0.45594000000E+02  0.51100000000E-03 0. -1.
    9900012    2    1    2    0    0  0.27357744168E+02 -0.33689512042E+02 -0.43903531174E+00  0.47787284112E+02  0.20000059580E+02 0.  0.
         12    1    1    2    0    0 -0.27357744168E+02  0.33689512042E+02  0.43903531174E+00  0.43400715888E+02  0.00000000000E+00 0. -1.
         11    1    3    3    0    0  0.77870843301E+01 -0.13980322994E+02 -0.46009939655E+01  0.16651043784E+02  0.51100000000E-03 0. -1.
        -11    1    3    3    0    0 -0.16632478515E+00 -0.73067392330E+01  0.26599191152E+01  0.77776135230E+01  0.51100000000E-03 0.  1.
        -12    1    3    3    0    0  0.19736984623E+02 -0.12402449815E+02  0.15020395386E+01  0.23358626805E+02  0.00000000000E+00 0.  1.
</event>
<event>
 7    1  0.2328615E-009  0.4778727E+02  0.7816164E-02  0.1312668E+00
        -11   -1    0    0    0    0  0.00000000000E+00  0.00000000000E+00  0.45593999997E+02  0.45594000000E+02  0.51100000000E-03 0.  1.
         11   -1    0    0    0    0 -0.00000000000E+00 -0.00000000000E+00 -0.45593999997E+02  0.45594000000E+02  0.51100000000E-03 0. -1.
    9900012    2    1    2    0    0 -0.23537672717E+02 -0.88281162554E+01  0.35378886097E+02  0.47787271261E+02  0.20000000989E+02 0.  0.
         12    1    1    2    0    0  0.23537672717E+02  0.88281162554E+01 -0.35378886097E+02  0.43400728739E+02  0.00000000000E+00 0. -1.
         11    1    3    3    0    0 -0.43162123495E+01 -0.38842884036E+01 -0.18120484736E+00  0.58094940318E+01  0.51100000000E-03 0. -1.
        -11    1    3    3    0    0 -0.20419518777E+01 -0.27100035009E+01  0.13898328103E+01  0.36667863242E+01  0.51100000000E-03 0.  1.
        -12    1    3    3    0    0 -0.17179508490E+02 -0.22338243509E+01  0.34170258134E+02  0.38310990905E+02  0.00000000000E+00 0.  1.
</event>
<event>
 7    1  0.3046832E-009  0.4778727E+02  0.7816164E-02  0.1312668E+00
        -11   -1    0    0    0    0  0.00000000000E+00  0.00000000000E+00  0.45593999997E+02  0.45594000000E+02  0.51100000000E-03 0.  1.
         11   -1    0    0    0    0 -0.00000000000E+00 -0.00000000000E+00 -0.45593999997E+02  0.45594000000E+02  0.51100000000E-03 0. -1.
    9900012    2    1    2    0    0 -0.35986867343E+02  0.20351299318E+02  0.13205818687E+02  0.47787266685E+02  0.19999980122E+02 0.  0.
         12    1    1    2    0    0  0.35986867343E+02 -0.20351299318E+02 -0.13205818687E+02  0.43400733315E+02  0.00000000000E+00 0. -1.
         11    1    3    3    0    0 -0.71844730971E+01 -0.40173815483E+00  0.47494839421E+01  0.86218121764E+01  0.51100000000E-03 0. -1.
        -11    1    3    3    0    0 -0.12861837277E+02  0.56223929428E+01 -0.30395796213E+01  0.14362353744E+02  0.51100000000E-03 0.  1.
        -12    1    3    3    0    0 -0.15940556969E+02  0.15130644530E+02  0.11495914367E+02  0.24803100764E+02  0.00000000000E+00 0.  1.
</event>
<event>
 7    1  0.2328615E-009  0.4778727E+02  0.7816164E-02  0.1312668E+00
        -11   -1    0    0    0    0  0.00000000000E+00  0.00000000000E+00  0.45593999997E+02  0.45594000000E+02  0.51100000000E-03 0. -1.
         11   -1    0    0    0    0 -0.00000000000E+00 -0.00000000000E+00 -0.45593999997E+02  0.45594000000E+02  0.51100000000E-03 0.  1.
    9900012    2    1    2    0    0 -0.28722415267E+02  0.14988233901E+02 -0.28879037259E+02  0.47787273195E+02  0.20000009805E+02 0.  0.
         12    1    1    2    0    0  0.28722415267E+02 -0.14988233901E+02  0.28879037259E+02  0.43400726805E+02  0.00000000000E+00 0. -1.
         11    1    3    3    0    0 -0.10898464888E+02  0.63399650526E+00 -0.93472272483E+01  0.14371817769E+02  0.51100000000E-03 0. -1.
        -11    1    3    3    0    0 -0.19490790614E+02  0.10032388838E+02 -0.13264030689E+02  0.25621753549E+02  0.51100000000E-03 0.  1.
         12    1    3    3    0    0  0.16668402355E+01  0.43218485580E+01 -0.62677793211E+01  0.77937018769E+01  0.00000000000E+00 0. -1.
</event>
<event>
 7    1  0.2328615E-009  0.4778727E+02  0.7816164E-02  0.1312668E+00
        -11   -1    0    0    0    0  0.00000000000E+00  0.00000000000E+00  0.45593999997E+02  0.45594000000E+02  0.51100000000E-03 0.  1.
         11   -1    0    0    0    0 -0.00000000000E+00 -0.00000000000E+00 -0.45593999997E+02  0.45594000000E+02  0.51100000000E-03 0. -1.
    9900012    2    1    2    0    0 -0.26623220441E+02 -0.29867449464E+02  0.16815561689E+02  0.47787268220E+02  0.19999987122E+02 0.  0.
         12    1    1    2    0    0  0.26623220441E+02  0.29867449464E+02 -0.16815561689E+02  0.43400731780E+02  0.00000000000E+00 0. -1.
         11    1    3    3    0    0 -0.69751444242E+01 -0.99176015336E+01  0.75950634576E+01  0.14307216679E+02  0.51100000000E-03 0.  1.
        -11    1    3    3    0    0 -0.44986228506E+01 -0.65914670518E+01  0.10561842594E+02  0.13237732611E+02  0.51100000000E-03 0. -1.
        -12    1    3    3    0    0 -0.15149453166E+02 -0.13358380879E+02 -0.13413443629E+01  0.20242318929E+02  0.00000000000E+00 0.  1.
</event>
<event>
 7    1  0.2328615E-009  0.4778727E+02  0.7816164E-02  0.1312668E+00
        -11   -1    0    0    0    0  0.00000000000E+00  0.00000000000E+00  0.45593999997E+02  0.45594000000E+02  0.51100000000E-03 0.  1.
         11   -1    0    0    0    0 -0.00000000000E+00 -0.00000000000E+00 -0.45593999997E+02  0.45594000000E+02  0.51100000000E-03 0. -1.
    9900012    2    1    2    0    0  0.22631227575E+02 -0.33061605222E+02  0.16684754274E+02  0.47787271590E+02  0.20000002486E+02 0.  0.
         12    1    1    2    0    0 -0.22631227575E+02  0.33061605222E+02 -0.16684754274E+02  0.43400728410E+02  0.00000000000E+00 0. -1.
         11    1    3    3    0    0  0.40809269321E+00 -0.42336932800E+00 -0.25396996536E+01  0.26068862318E+01  0.51100000000E-03 0. -1.
        -11    1    3    3    0    0  0.31929926525E+01 -0.21699585065E+01  0.55113686062E+01  0.67289751206E+01  0.51100000000E-03 0.  1.
        -12    1    3    3    0    0  0.19030142229E+02 -0.30468277387E+02  0.13713085321E+02  0.38451410237E+02  0.00000000000E+00 0.  1.
</event>
<event>
 7    1  0.2328615E-009  0.4778727E+02  0.7816164E-02  0.1312668E+00
        -11   -1    0    0    0    0  0.00000000000E+00  0.00000000000E+00  0.45593999997E+02  0.45594000000E+02  0.51100000000E-03 0.  1.
         11   -1    0    0    0    0 -0.00000000000E+00 -0.00000000000E+00 -0.45593999997E+02  0.45594000000E+02  0.51100000000E-03 0. -1.
    9900012    2    1    2    0    0  0.12548746208E+01 -0.35845742658E+02  0.24436264517E+02  0.47787274193E+02  0.20000014358E+02 0.  0.
         12    1    1    2    0    0 -0.12548746208E+01  0.35845742658E+02 -0.24436264517E+02  0.43400725807E+02  0.00000000000E+00 0. -1.
         11    1    3    3    0    0  0.45889332763E+01 -0.41780250638E+01  0.97661108899E+00  0.62823539798E+01  0.51100000000E-03 0. -1.
        -11    1    3    3    0    0  0.13235195825E+01 -0.36073707917E+01  0.85860052871E+01  0.94066101846E+01  0.51100000000E-03 0.  1.
        -12    1    3    3    0    0 -0.46575782379E+01 -0.28060346802E+02  0.14873648141E+02  0.32098310029E+02  0.00000000000E+00 0.  1.
</event>
<event>
 7    1  0.2328615E-009  0.4778733E+02  0.7816164E-02  0.1312667E+00
        -11   -1    0    0    0    0  0.00000000000E+00  0.00000000000E+00  0.45593999997E+02  0.45594000000E+02  0.51100000000E-03 0. -1.
         11   -1    0    0    0    0 -0.00000000000E+00 -0.00000000000E+00 -0.45593999997E+02  0.45594000000E+02  0.51100000000E-03 0.  1.
    9900012    2    1    2    0    0 -0.39155721042E+02  0.18703902841E+02  0.78183207673E+00  0.47787334876E+02  0.20000291032E+02 0.  0.
         12    1    1    2    0    0  0.39155721042E+02 -0.18703902841E+02 -0.78183207673E+00  0.43400665124E+02  0.00000000000E+00 0. -1.
         11    1    3    3    0    0 -0.13177663342E+02  0.15169211447E+01  0.49288469708E+01  0.14150808939E+02  0.51100000000E-03 0.  1.
        -11    1    3    3    0    0 -0.21867514031E+02  0.81431189419E+01 -0.16467058509E+01  0.23392524371E+02  0.51100000000E-03 0. -1.
         12    1    3    3    0    0 -0.41105436686E+01  0.90438627543E+01 -0.25003090432E+01  0.10244001566E+02  0.00000000000E+00 0. -1.
</event>
<event>
 7    1  0.2328615E-009  0.4778727E+02  0.7816164E-02  0.1312668E+00
        -11   -1    0    0    0    0  0.00000000000E+00  0.00000000000E+00  0.45593999997E+02  0.45594000000E+02  0.51100000000E-03 0. -1.
         11   -1    0    0    0    0 -0.00000000000E+00 -0.00000000000E+00 -0.45593999997E+02  0.45594000000E+02  0.51100000000E-03 0.  1.
    9900012    2    1    2    0    0 -0.40286416119E+02 -0.14720913776E+02 -0.66274064538E+01  0.47787272559E+02  0.20000006907E+02 0.  0.
         12    1    1    2    0    0  0.40286416119E+02  0.14720913776E+02  0.66274064538E+01  0.43400727441E+02  0.00000000000E+00 0. -1.
         11    1    3    3    0    0 -0.31371937595E+00 -0.81193475763E+00 -0.28234591008E+01  0.29545861728E+01  0.51100000000E-03 0. -1.
        -11    1    3    3    0    0 -0.10016410325E+02  0.27594958131E+01 -0.88205104118E+00  0.10426951004E+02  0.51100000000E-03 0.  1.
         12    1    3    3    0    0 -0.29956286418E+02 -0.16668474831E+02 -0.29218963118E+01  0.34405735382E+02  0.00000000000E+00 0. -1.
</event>
<event>
 7    1  0.2328615E-009  0.4778727E+02  0.7816164E-02  0.1312668E+00
        -11   -1    0    0    0    0  0.00000000000E+00  0.00000000000E+00  0.45593999997E+02  0.45594000000E+02  0.51100000000E-03 0. -1.
         11   -1    0    0    0    0 -0.00000000000E+00 -0.00000000000E+00 -0.45593999997E+02  0.45594000000E+02  0.51100000000E-03 0.  1.
    9900012    2    1    2    0    0  0.42169890972E+02 -0.16567458267E+01 -0.10128112811E+02  0.47787272121E+02  0.20000004908E+02 0.  0.
         12    1    1    2    0    0 -0.42169890972E+02  0.16567458267E+01  0.10128112811E+02  0.43400727879E+02  0.00000000000E+00 0. -1.
         11    1    3    3    0    0  0.67115792563E+01  0.31850854619E+01 -0.16513624745E+00  0.74308368139E+01  0.51100000000E-03 0. -1.
        -11    1    3    3    0    0  0.95190273530E+01 -0.11207610614E+01 -0.10406436249E+02  0.14147858593E+02  0.51100000000E-03 0.  1.
         12    1    3    3    0    0  0.25939284363E+02 -0.37210702271E+01  0.44345968525E+00  0.26208576714E+02  0.00000000000E+00 0. -1.
</event>
<event>
 7    1  0.2328615E-009  0.4778728E+02  0.7816164E-02  0.1312668E+00
        -11   -1    0    0    0    0  0.00000000000E+00  0.00000000000E+00  0.45593999997E+02  0.45594000000E+02  0.51100000000E-03 0.  1.
         11   -1    0    0    0    0 -0.00000000000E+00 -0.00000000000E+00 -0.45593999997E+02  0.45594000000E+02  0.51100000000E-03 0. -1.
    9900012    2    1    2    0    0  0.32637778777E+02 -0.11844014143E+02  0.26040687811E+02  0.47787277700E+02  0.20000030343E+02 0.  0.
         12    1    1    2    0    0 -0.32637778777E+02  0.11844014143E+02 -0.26040687811E+02  0.43400722300E+02  0.00000000000E+00 0. -1.
         11    1    3    3    0    0  0.53483015133E+00  0.58845093173E+00  0.19132278283E+01  0.20718973850E+01  0.51100000000E-03 0. -1.
        -11    1    3    3    0    0  0.26884523102E+02 -0.11454612891E+02  0.26905992605E+02  0.39723018229E+02  0.51100000000E-03 0.  1.
         12    1    3    3    0    0  0.52184255235E+01 -0.97785218404E+00 -0.27785326216E+01  0.59923620858E+01  0.00000000000E+00 0. -1.
</event>
<event>
 7    1  0.2328615E-009  0.4778727E+02  0.7816164E-02  0.1312668E+00
        -11   -1    0    0    0    0  0.00000000000E+00  0.00000000000E+00  0.45593999997E+02  0.45594000000E+02  0.51100000000E-03 0. -1.
         11   -1    0    0    0    0 -0.00000000000E+00 -0.00000000000E+00 -0.45593999997E+02  0.45594000000E+02  0.51100000000E-03 0.  1.
    9900012    2    1    2    0    0  0.18747195088E+02 -0.16356523074E+02 -0.35561637428E+02  0.47787271581E+02  0.20000002448E+02 0.  0.
         12    1    1    2    0    0 -0.18747195088E+02  0.16356523074E+02  0.35561637428E+02  0.43400728419E+02  0.00000000000E+00 0. -1.
         11    1    3    3    0    0  0.23539139628E+01  0.11458085599E+01  0.56917846030E+00  0.26791328040E+01  0.51100000000E-03 0. -1.
        -11    1    3    3    0    0  0.78902169927E+01 -0.12225245353E+02 -0.11579688754E+02  0.18595734458E+02  0.51100000000E-03 0.  1.
         12    1    3    3    0    0  0.85030641319E+01 -0.52770862810E+01 -0.24551127134E+02  0.26512404320E+02  0.00000000000E+00 0. -1.
</event>
<event>
 7    1  0.2328615E-009  0.4778726E+02  0.7816164E-02  0.1312668E+00
        -11   -1    0    0    0    0  0.00000000000E+00  0.00000000000E+00  0.45593999997E+02  0.45594000000E+02  0.51100000000E-03 0.  1.
         11   -1    0    0    0    0 -0.00000000000E+00 -0.00000000000E+00 -0.45593999997E+02  0.45594000000E+02  0.51100000000E-03 0. -1.
    9900012    2    1    2    0    0  0.38915977949E+02  0.18977261930E+02  0.30056888318E+01  0.47787262962E+02  0.19999963149E+02 0.  0.
         12    1    1    2    0    0 -0.38915977949E+02 -0.18977261930E+02 -0.30056888318E+01  0.43400737038E+02  0.00000000000E+00 0. -1.
         11    1    3    3    0    0  0.17130029292E+02  0.54966155414E+01  0.63659313776E+01  0.19083389859E+02  0.51100000000E-03 0. -1.
        -11    1    3    3    0    0  0.10924675515E+02  0.27273248189E-01  0.68613858671E+00  0.10946235214E+02  0.51100000000E-03 0.  1.
         12    1    3    3    0    0  0.10861273142E+02  0.13453373140E+02 -0.40463811325E+01  0.17757637889E+02  0.00000000000E+00 0. -1.
</event>
<event>
 7    1  0.2328615E-009  0.4778728E+02  0.7816164E-02  0.1312668E+00
        -11   -1    0    0    0    0  0.00000000000E+00  0.00000000000E+00  0.45593999997E+02  0.45594000000E+02  0.51100000000E-03 0.  1.
         11   -1    0    0    0    0 -0.00000000000E+00 -0.00000000000E+00 -0.45593999997E+02  0.45594000000E+02  0.51100000000E-03 0. -1.
    9900012    2    1    2    0    0 -0.27389350379E+02 -0.32832155638E+02  0.74495433208E+01  0.47787278189E+02  0.20000032575E+02 0.  0.
         12    1    1    2    0    0  0.27389350379E+02  0.32832155638E+02 -0.74495433208E+01  0.43400721811E+02  0.00000000000E+00 0. -1.
         11    1    3    3    0    0 -0.25361713145E+01 -0.99336593049E+01  0.18806521022E+01  0.10423368204E+02  0.51100000000E-03 0. -1.
        -11    1    3    3    0    0 -0.13656035795E+02 -0.21692005617E+02  0.29530345947E+01  0.25802147874E+02  0.51100000000E-03 0.  1.
         12    1    3    3    0    0 -0.11197143270E+02 -0.12064907164E+01  0.26158566239E+01  0.11561762112E+02  0.00000000000E+00 0. -1.
</event>
<event>
 7    1  0.2328615E-009  0.4778727E+02  0.7816164E-02  0.1312668E+00
        -11   -1    0    0    0    0  0.00000000000E+00  0.00000000000E+00  0.45593999997E+02  0.45594000000E+02  0.51100000000E-03 0.  1.
         11   -1    0    0    0    0 -0.00000000000E+00 -0.00000000000E+00 -0.45593999997E+02  0.45594000000E+02  0.51100000000E-03 0. -1.
    9900012    2    1    2    0    0 -0.27816773508E+02 -0.20509142063E+02  0.26253106362E+02  0.47787269704E+02  0.19999993888E+02 0.  0.
         12    1    1    2    0    0  0.27816773508E+02  0.20509142063E+02 -0.26253106362E+02  0.43400730296E+02  0.00000000000E+00 0. -1.
         11    1    3    3    0    0 -0.22621853723E+01  0.31048727757E+00  0.38928763039E+01  0.45131331896E+01  0.51100000000E-03 0. -1.
        -11    1    3    3    0    0 -0.18757685832E+02 -0.18150141028E+02  0.82291721238E+01  0.27367821821E+02  0.51100000000E-03 0.  1.
        -12    1    3    3    0    0 -0.67969023035E+01 -0.26694883126E+01  0.14131057934E+02  0.15906314693E+02  0.00000000000E+00 0.  1.
</event>
<event>
 7    1  0.2328615E-009  0.4778727E+02  0.7816164E-02  0.1312668E+00
        -11   -1    0    0    0    0  0.00000000000E+00  0.00000000000E+00  0.45593999997E+02  0.45594000000E+02  0.51100000000E-03 0.  1.
         11   -1    0    0    0    0 -0.00000000000E+00 -0.00000000000E+00 -0.45593999997E+02  0.45594000000E+02  0.51100000000E-03 0. -1.
    9900012    2    1    2    0    0  0.32152005710E+02 -0.36252299238E+01  0.28926277685E+02  0.47787270699E+02  0.19999998423E+02 0.  0.
         12    1    1    2    0    0 -0.32152005710E+02  0.36252299238E+01 -0.28926277685E+02  0.43400729301E+02  0.00000000000E+00 0. -1.
         11    1    3    3    0    0 -0.14130087807E+01 -0.10469738840E+01  0.50731693602E+01  0.53693384831E+01  0.51100000000E-03 0. -1.
        -11    1    3    3    0    0  0.11899993839E+02 -0.39395485215E+01  0.13316255239E+02  0.18288043902E+02  0.51100000000E-03 0.  1.
         12    1    3    3    0    0  0.21665020651E+02  0.13612924817E+01  0.10536853086E+02  0.24129888313E+02  0.00000000000E+00 0. -1.
</event>
<event>
 7    1  0.2328615E-009  0.4778727E+02  0.7816164E-02  0.1312668E+00
        -11   -1    0    0    0    0  0.00000000000E+00  0.00000000000E+00  0.45593999997E+02  0.45594000000E+02  0.51100000000E-03 0.  1.
         11   -1    0    0    0    0 -0.00000000000E+00 -0.00000000000E+00 -0.45593999997E+02  0.45594000000E+02  0.51100000000E-03 0. -1.
    9900012    2    1    2    0    0 -0.14884090714E+02 -0.26031223896E+02  0.31376145774E+02  0.47787270772E+02  0.19999998758E+02 0.  0.
         12    1    1    2    0    0  0.14884090714E+02  0.26031223896E+02 -0.31376145774E+02  0.43400729228E+02  0.00000000000E+00 0. -1.
         11    1    3    3    0    0 -0.23237521921E+01 -0.95644624835E+01  0.72150024441E+01  0.12203893943E+02  0.51100000000E-03 0. -1.
        -11    1    3    3    0    0 -0.67595648074E+01 -0.18570728460E+02  0.16492059441E+02  0.25740079580E+02  0.51100000000E-03 0.  1.
         12    1    3    3    0    0 -0.58007737145E+01  0.21039670482E+01  0.76690838888E+01  0.98432972485E+01  0.00000000000E+00 0. -1.
</event>
<event>
 7    1  0.2328615E-009  0.4778727E+02  0.7816164E-02  0.1312668E+00
        -11   -1    0    0    0    0  0.00000000000E+00  0.00000000000E+00  0.45593999997E+02  0.45594000000E+02  0.51100000000E-03 0.  1.
         11   -1    0    0    0    0 -0.00000000000E+00 -0.00000000000E+00 -0.45593999997E+02  0.45594000000E+02  0.51100000000E-03 0. -1.
    9900012    2    1    2    0    0  0.11053112807E+02 -0.29573103266E+02  0.29780591346E+02  0.47787270047E+02  0.19999995454E+02 0.  0.
         12    1    1    2    0    0 -0.11053112807E+02  0.29573103266E+02 -0.29780591346E+02  0.43400729953E+02  0.00000000000E+00 0. -1.
         11    1    3    3    0    0 -0.25792619098E+01 -0.53084616082E+01 -0.10537027123E+01  0.59952186208E+01  0.51100000000E-03 0. -1.
        -11    1    3    3    0    0  0.31874526643E+01 -0.98268150926E+01  0.10023839848E+02  0.14394565464E+02  0.51100000000E-03 0.  1.
         12    1    3    3    0    0  0.10444922052E+02 -0.14437826565E+02  0.20810454210E+02  0.27397485962E+02  0.00000000000E+00 0. -1.
</event>
<event>
 7    1  0.2328615E-009  0.4778727E+02  0.7816164E-02  0.1312668E+00
        -11   -1    0    0    0    0  0.00000000000E+00  0.00000000000E+00  0.45593999997E+02  0.45594000000E+02  0.51100000000E-03 0.  1.
         11   -1    0    0    0    0 -0.00000000000E+00 -0.00000000000E+00 -0.45593999997E+02  0.45594000000E+02  0.51100000000E-03 0. -1.
    9900012    2    1    2    0    0  0.28977503716E+02 -0.30858396818E+02  0.95753182417E+01  0.47787273103E+02  0.20000009384E+02 0.  0.
         12    1    1    2    0    0 -0.28977503716E+02  0.30858396818E+02 -0.95753182417E+01  0.43400726897E+02  0.00000000000E+00 0. -1.
         11    1    3    3    0    0  0.15925478668E+02 -0.71234240192E+01  0.12436706150E+01  0.17490304669E+02  0.51100000000E-03 0. -1.
        -11    1    3    3    0    0  0.12055657703E+01  0.96868449920E+00  0.12780799311E+01  0.20062968516E+01  0.51100000000E-03 0.  1.
         12    1    3    3    0    0  0.11846459278E+02 -0.24703657298E+02  0.70535676957E+01  0.28290671582E+02  0.00000000000E+00 0. -1.
</event>
<event>
 7    1  0.2328615E-009  0.4778726E+02  0.7816164E-02  0.1312668E+00
        -11   -1    0    0    0    0  0.00000000000E+00  0.00000000000E+00  0.45593999997E+02  0.45594000000E+02  0.51100000000E-03 0.  1.
         11   -1    0    0    0    0 -0.00000000000E+00 -0.00000000000E+00 -0.45593999997E+02  0.45594000000E+02  0.51100000000E-03 0. -1.
    9900012    2    1    2    0    0 -0.12557108185E+02  0.17777963880E+02  0.37548470057E+02  0.47787256120E+02  0.19999931955E+02 0.  0.
         12    1    1    2    0    0  0.12557108185E+02 -0.17777963880E+02 -0.37548470057E+02  0.43400743880E+02  0.00000000000E+00 0. -1.
         11    1    3    3    0    0 -0.73994259635E+01  0.80346819216E+01  0.73073518254E+01  0.13141727783E+02  0.51100000000E-03 0. -1.
        -11    1    3    3    0    0  0.31121180890E+01  0.24683434543E+01  0.22495152543E+01  0.45649006067E+01  0.51100000000E-03 0.  1.
        -12    1    3    3    0    0 -0.82698003108E+01  0.72749385044E+01  0.27991602977E+02  0.30080627730E+02  0.00000000000E+00 0.  1.
</event>
<event>
 7    1  0.2328615E-009  0.4778727E+02  0.7816164E-02  0.1312668E+00
        -11   -1    0    0    0    0  0.00000000000E+00  0.00000000000E+00  0.45593999997E+02  0.45594000000E+02  0.51100000000E-03 0. -1.
         11   -1    0    0    0    0 -0.00000000000E+00 -0.00000000000E+00 -0.45593999997E+02  0.45594000000E+02  0.51100000000E-03 0.  1.
    9900012    2    1    2    0    0  0.26776824225E+02  0.17995279751E+02 -0.29030929986E+02  0.47787270689E+02  0.19999998378E+02 0.  0.
         12    1    1    2    0    0 -0.26776824225E+02 -0.17995279751E+02  0.29030929986E+02  0.43400729311E+02  0.00000000000E+00 0. -1.
         11    1    3    3    0    0  0.18275889908E+01  0.58844841907E+01 -0.98292124203E+00  0.62396610596E+01  0.51100000000E-03 0. -1.
        -11    1    3    3    0    0  0.17767897111E+02  0.68364100970E+01 -0.10197403829E+02  0.21596798741E+02  0.51100000000E-03 0.  1.
         12    1    3    3    0    0  0.71813381238E+01  0.52743854637E+01 -0.17850604914E+02  0.19950810888E+02  0.00000000000E+00 0. -1.
</event>
<event>
 7    1  0.2328615E-009  0.4778727E+02  0.7816164E-02  0.1312668E+00
        -11   -1    0    0    0    0  0.00000000000E+00  0.00000000000E+00  0.45593999997E+02  0.45594000000E+02  0.51100000000E-03 0. -1.
         11   -1    0    0    0    0 -0.00000000000E+00 -0.00000000000E+00 -0.45593999997E+02  0.45594000000E+02  0.51100000000E-03 0.  1.
    9900012    2    1    2    0    0  0.39949365180E+02  0.14635628472E+02 -0.85714378841E+01  0.47787274816E+02  0.20000017197E+02 0.  0.
         12    1    1    2    0    0 -0.39949365180E+02 -0.14635628472E+02  0.85714378841E+01  0.43400725184E+02  0.00000000000E+00 0. -1.
         11    1    3    3    0    0  0.14499882347E+02  0.90656055095E+01 -0.21915377543E+01  0.17240493882E+02  0.51100000000E-03 0. -1.
        -11    1    3    3    0    0  0.45550375462E+01  0.37843661727E+01 -0.74882301786E+01  0.95469045164E+01  0.51100000000E-03 0.  1.
         12    1    3    3    0    0  0.20894445288E+02  0.17856567895E+01  0.11083300488E+01  0.20999876417E+02  0.00000000000E+00 0. -1.
</event>
<event>
 7    1  0.2328615E-009  0.4778727E+02  0.7816164E-02  0.1312668E+00
        -11   -1    0    0    0    0  0.00000000000E+00  0.00000000000E+00  0.45593999997E+02  0.45594000000E+02  0.51100000000E-03 0.  1.
         11   -1    0    0    0    0 -0.00000000000E+00 -0.00000000000E+00 -0.45593999997E+02  0.45594000000E+02  0.51100000000E-03 0. -1.
    9900012    2    1    2    0    0 -0.28145278142E+02 -0.11563003569E+02  0.30947755188E+02  0.47787270923E+02  0.19999999447E+02 0.  0.
         12    1    1    2    0    0  0.28145278142E+02  0.11563003569E+02 -0.30947755188E+02  0.43400729077E+02  0.00000000000E+00 0. -1.
         11    1    3    3    0    0 -0.21565769412E+02 -0.48589991115E+01  0.21545829770E+02  0.30869322368E+02  0.51100000000E-03 0. -1.
        -11    1    3    3    0    0 -0.59715266360E+01 -0.84594149761E+01  0.38231466361E+01  0.11037992687E+02  0.51100000000E-03 0.  1.
         12    1    3    3    0    0 -0.60798209416E+00  0.17554105190E+01  0.55787787818E+01  0.58799558683E+01  0.00000000000E+00 0. -1.
</event>
<event>
 7    1  0.2328615E-009  0.4778724E+02  0.7816164E-02  0.1312668E+00
        -11   -1    0    0    0    0  0.00000000000E+00  0.00000000000E+00  0.45593999997E+02  0.45594000000E+02  0.51100000000E-03 0. -1.
         11   -1    0    0    0    0 -0.00000000000E+00 -0.00000000000E+00 -0.45593999997E+02  0.45594000000E+02  0.51100000000E-03 0.  1.
    9900012    2    1    2    0    0  0.23274147167E+02  0.32980798905E+02 -0.15943870026E+02  0.47787239475E+02  0.19999856061E+02 0.  0.
         12    1    1    2    0    0 -0.23274147167E+02 -0.32980798905E+02  0.15943870026E+02  0.43400760525E+02  0.00000000000E+00 0. -1.
         11    1    3    3    0    0 -0.11711280375E+00  0.47797103501E+01 -0.14801650859E+01  0.50050210172E+01  0.51100000000E-03 0. -1.
        -11    1    3    3    0    0  0.19335712235E+02  0.18294043309E+02 -0.17251766105E+02  0.31720107538E+02  0.51100000000E-03 0.  1.
        -12    1    3    3    0    0  0.40555477352E+01  0.99070452456E+01  0.27880611645E+01  0.11062110919E+02  0.00000000000E+00 0.  1.
</event>
<event>
 7    1  0.2328615E-009  0.4778727E+02  0.7816164E-02  0.1312668E+00
        -11   -1    0    0    0    0  0.00000000000E+00  0.00000000000E+00  0.45593999997E+02  0.45594000000E+02  0.51100000000E-03 0. -1.
         11   -1    0    0    0    0 -0.00000000000E+00 -0.00000000000E+00 -0.45593999997E+02  0.45594000000E+02  0.51100000000E-03 0.  1.
    9900012    2    1    2    0    0  0.28179513841E+02 -0.19350364878E+02 -0.26741388890E+02  0.47787268428E+02  0.19999988068E+02 0.  0.
         12    1    1    2    0    0 -0.28179513841E+02  0.19350364878E+02  0.26741388890E+02  0.43400731572E+02  0.00000000000E+00 0. -1.
         11    1    3    3    0    0  0.44772541966E+01 -0.49168230061E+01 -0.15482570707E+00  0.66516858671E+01  0.51100000000E-03 0. -1.
        -11    1    3    3    0    0 -0.16152857424E-01 -0.42790844207E+01 -0.27972013052E+00  0.42882476615E+01  0.51100000000E-03 0.  1.
        -12    1    3    3    0    0  0.23718412502E+02 -0.10154457451E+02 -0.26306843053E+02  0.36847334899E+02  0.00000000000E+00 0.  1.
</event>
<event>
 7    1  0.2328615E-009  0.4778727E+02  0.7816164E-02  0.1312668E+00
        -11   -1    0    0    0    0  0.00000000000E+00  0.00000000000E+00  0.45593999997E+02  0.45594000000E+02  0.51100000000E-03 0.  1.
         11   -1    0    0    0    0 -0.00000000000E+00 -0.00000000000E+00 -0.45593999997E+02  0.45594000000E+02  0.51100000000E-03 0. -1.
    9900012    2    1    2    0    0 -0.16019915505E+02  0.31172168244E+02  0.25598465571E+02  0.47787271833E+02  0.20000003595E+02 0.  0.
         12    1    1    2    0    0  0.16019915505E+02 -0.31172168244E+02 -0.25598465571E+02  0.43400728167E+02  0.00000000000E+00 0. -1.
         11    1    3    3    0    0 -0.94777086383E+00  0.19022521871E+01  0.82611556191E+01  0.85301538918E+01  0.51100000000E-03 0. -1.
        -11    1    3    3    0    0  0.22062418806E-01  0.14379867918E+01 -0.17670843567E+01  0.22783503129E+01  0.51100000000E-03 0.  1.
        -12    1    3    3    0    0 -0.15094207060E+02  0.27831929265E+02  0.19104394309E+02  0.36978767628E+02  0.00000000000E+00 0.  1.
</event>
<event>
 7    1  0.2328615E-009  0.4778726E+02  0.7816164E-02  0.1312668E+00
        -11   -1    0    0    0    0  0.00000000000E+00  0.00000000000E+00  0.45593999997E+02  0.45594000000E+02  0.51100000000E-03 0. -1.
         11   -1    0    0    0    0 -0.00000000000E+00 -0.00000000000E+00 -0.45593999997E+02  0.45594000000E+02  0.51100000000E-03 0.  1.
    9900012    2    1    2    0    0 -0.34656312913E+02 -0.26079034154E+02  0.15645633642E+01  0.47787263766E+02  0.19999966816E+02 0.  0.
         12    1    1    2    0    0  0.34656312913E+02  0.26079034154E+02 -0.15645633642E+01  0.43400736234E+02  0.00000000000E+00 0. -1.
         11    1    3    3    0    0 -0.16711191331E+02 -0.39483687984E+01  0.72450096732E+01  0.18637159046E+02  0.51100000000E-03 0. -1.
        -11    1    3    3    0    0 -0.11086988923E+02 -0.12591793887E+02 -0.23664546251E+01  0.16943279034E+02  0.51100000000E-03 0.  1.
         12    1    3    3    0    0 -0.68581326588E+01 -0.95388714687E+01 -0.33139916839E+01  0.12206825687E+02  0.00000000000E+00 0. -1.
</event>
<event>
 7    1  0.2328615E-009  0.4778728E+02  0.7816164E-02  0.1312668E+00
        -11   -1    0    0    0    0  0.00000000000E+00  0.00000000000E+00  0.45593999997E+02  0.45594000000E+02  0.51100000000E-03 0.  1.
         11   -1    0    0    0    0 -0.00000000000E+00 -0.00000000000E+00 -0.45593999997E+02  0.45594000000E+02  0.51100000000E-03 0. -1.
    9900012    2    1    2    0    0 -0.29228924589E+02 -0.28784745920E+02  0.14167959080E+02  0.47787277716E+02  0.20000030416E+02 0.  0.
         12    1    1    2    0    0  0.29228924589E+02  0.28784745920E+02 -0.14167959080E+02  0.43400722284E+02  0.00000000000E+00 0. -1.
         11    1    3    3    0    0 -0.16723903515E+01 -0.16208668962E+01 -0.26573956166E+00  0.23440812185E+01  0.51100000000E-03 0. -1.
        -11    1    3    3    0    0 -0.11417890991E+02 -0.44372402362E+01  0.12500987036E+02  0.17502343064E+02  0.51100000000E-03 0.  1.
        -12    1    3    3    0    0 -0.16138643247E+02 -0.22726638788E+02  0.19327116061E+01  0.27940853433E+02  0.00000000000E+00 0.  1.
</event>
<event>
 7    1  0.2328615E-009  0.4778727E+02  0.7816164E-02  0.1312668E+00
        -11   -1    0    0    0    0  0.00000000000E+00  0.00000000000E+00  0.45593999997E+02  0.45594000000E+02  0.51100000000E-03 0. -1.
         11   -1    0    0    0    0 -0.00000000000E+00 -0.00000000000E+00 -0.45593999997E+02  0.45594000000E+02  0.51100000000E-03 0.  1.
    9900012    2    1    2    0    0 -0.33636075919E+02  0.20243896753E+02 -0.18504662385E+02  0.47787268566E+02  0.19999988701E+02 0.  0.
         12    1    1    2    0    0  0.33636075919E+02 -0.20243896753E+02  0.18504662385E+02  0.43400731434E+02  0.00000000000E+00 0. -1.
         11    1    3    3    0    0 -0.20389832887E+02  0.13706321712E+02 -0.68785845181E+01  0.25513201784E+02  0.51100000000E-03 0. -1.
        -11    1    3    3    0    0 -0.10853233448E+02  0.10013276278E+02 -0.93743194823E+01  0.17491033249E+02  0.51100000000E-03 0.  1.
         12    1    3    3    0    0 -0.23930095843E+01 -0.34757012370E+01 -0.22517583848E+01  0.47830335335E+01  0.00000000000E+00 0. -1.
</event>
<event>
 7    1  0.2328615E-009  0.4778727E+02  0.7816164E-02  0.1312668E+00
        -11   -1    0    0    0    0  0.00000000000E+00  0.00000000000E+00  0.45593999997E+02  0.45594000000E+02  0.51100000000E-03 0.  1.
         11   -1    0    0    0    0 -0.00000000000E+00 -0.00000000000E+00 -0.45593999997E+02  0.45594000000E+02  0.51100000000E-03 0. -1.
    9900012    2    1    2    0    0 -0.10551935709E+02  0.39103645807E+02  0.15594385503E+02  0.47787270492E+02  0.19999997481E+02 0.  0.
         12    1    1    2    0    0  0.10551935709E+02 -0.39103645807E+02 -0.15594385503E+02  0.43400729508E+02  0.00000000000E+00 0. -1.
         11    1    3    3    0    0  0.36711993374E+01  0.42816423402E+01  0.52036303226E+01  0.76738474378E+01  0.51100000000E-03 0. -1.
        -11    1    3    3    0    0  0.59442803834E+00  0.84672889974E+01  0.28344305133E+01  0.89488727923E+01  0.51100000000E-03 0.  1.
        -12    1    3    3    0    0 -0.14817563084E+02  0.26354714470E+02  0.75563246672E+01  0.31164550262E+02  0.00000000000E+00 0.  1.
</event>
<event>
 7    1  0.2328615E-009  0.4778727E+02  0.7816164E-02  0.1312668E+00
        -11   -1    0    0    0    0  0.00000000000E+00  0.00000000000E+00  0.45593999997E+02  0.45594000000E+02  0.51100000000E-03 0. -1.
         11   -1    0    0    0    0 -0.00000000000E+00 -0.00000000000E+00 -0.45593999997E+02  0.45594000000E+02  0.51100000000E-03 0.  1.
    9900012    2    1    2    0    0 -0.29320732408E+02 -0.30040769126E+02 -0.11021340616E+02  0.47787272960E+02  0.20000008734E+02 0.  0.
         12    1    1    2    0    0  0.29320732408E+02  0.30040769126E+02  0.11021340616E+02  0.43400727040E+02  0.00000000000E+00 0. -1.
         11    1    3    3    0    0  0.10161186422E+01  0.80153061577E+00 -0.10346069459E+00  0.12983269232E+01  0.51100000000E-03 0. -1.
        -11    1    3    3    0    0 -0.16178646105E+02 -0.10615767043E+02 -0.10001792467E+02  0.21782537789E+02  0.51100000000E-03 0.  1.
         12    1    3    3    0    0 -0.14158204946E+02 -0.20226532699E+02 -0.91608745383E+00  0.24706408248E+02  0.00000000000E+00 0. -1.
</event>
<event>
 7    1  0.2328615E-009  0.4778728E+02  0.7816164E-02  0.1312668E+00
        -11   -1    0    0    0    0  0.00000000000E+00  0.00000000000E+00  0.45593999997E+02  0.45594000000E+02  0.51100000000E-03 0.  1.
         11   -1    0    0    0    0 -0.00000000000E+00 -0.00000000000E+00 -0.45593999997E+02  0.45594000000E+02  0.51100000000E-03 0. -1.
    9900012    2    1    2    0    0  0.11945027283E+02 -0.45821704298E+01  0.41472194355E+02  0.47787275729E+02  0.20000021358E+02 0.  0.
         12    1    1    2    0    0 -0.11945027283E+02  0.45821704298E+01 -0.41472194355E+02  0.43400724271E+02  0.00000000000E+00 0. -1.
         11    1    3    3    0    0  0.56470908887E+01  0.45759920860E+01  0.19836427598E+02  0.21126125986E+02  0.51100000000E-03 0. -1.
        -11    1    3    3    0    0  0.74000725535E+01 -0.11712655946E+01  0.11167652612E+02  0.13448025953E+02  0.51100000000E-03 0.  1.
        -12    1    3    3    0    0 -0.11021361591E+01 -0.79868969212E+01  0.10468114145E+02  0.13213123790E+02  0.00000000000E+00 0.  1.
</event>
<event>
 7    1  0.2440374E-009  0.4778727E+02  0.7816164E-02  0.1312668E+00
        -11   -1    0    0    0    0  0.00000000000E+00  0.00000000000E+00  0.45593999997E+02  0.45594000000E+02  0.51100000000E-03 0. -1.
         11   -1    0    0    0    0 -0.00000000000E+00 -0.00000000000E+00 -0.45593999997E+02  0.45594000000E+02  0.51100000000E-03 0.  1.
    9900012    2    1    2    0    0  0.14064153672E+02 -0.13012620574E+01 -0.41038148868E+02  0.47787270007E+02  0.19999995268E+02 0.  0.
         12    1    1    2    0    0 -0.14064153672E+02  0.13012620574E+01  0.41038148868E+02  0.43400729993E+02  0.00000000000E+00 0. -1.
         11    1    3    3    0    0 -0.57392414764E+00  0.58786464667E+00  0.70300521165E+00  0.10812910611E+01  0.51100000000E-03 0. -1.
        -11    1    3    3    0    0  0.23897454278E+01 -0.70571915038E+01 -0.18280010383E+02  0.19740152355E+02  0.51100000000E-03 0.  1.
        -12    1    3    3    0    0  0.12248332392E+02  0.51680647998E+01 -0.23461143697E+02  0.26965826591E+02  0.00000000000E+00 0.  1.
</event>
<event>
 7    1  0.2328615E-009  0.4778727E+02  0.7816164E-02  0.1312668E+00
        -11   -1    0    0    0    0  0.00000000000E+00  0.00000000000E+00  0.45593999997E+02  0.45594000000E+02  0.51100000000E-03 0.  1.
         11   -1    0    0    0    0 -0.00000000000E+00 -0.00000000000E+00 -0.45593999997E+02  0.45594000000E+02  0.51100000000E-03 0. -1.
    9900012    2    1    2    0    0  0.34546935104E+01 -0.43232037494E+02  0.16368007843E+01  0.47787273163E+02  0.20000009660E+02 0.  0.
         12    1    1    2    0    0 -0.34546935104E+01  0.43232037494E+02 -0.16368007843E+01  0.43400726837E+02  0.00000000000E+00 0. -1.
         11    1    3    3    0    0 -0.20970529527E+01 -0.10076138485E+01  0.38762899784E+01  0.45209004647E+01  0.51100000000E-03 0. -1.
        -11    1    3    3    0    0  0.40584357401E+01 -0.13321718593E+02  0.18094485360E+01  0.14043261415E+02  0.51100000000E-03 0.  1.
         12    1    3    3    0    0  0.14933107230E+01 -0.28902705053E+02 -0.40489377300E+01  0.29223111283E+02  0.00000000000E+00 0. -1.
</event>
<event>
 7    1  0.2328615E-009  0.4778727E+02  0.7816164E-02  0.1312668E+00
        -11   -1    0    0    0    0  0.00000000000E+00  0.00000000000E+00  0.45593999997E+02  0.45594000000E+02  0.51100000000E-03 0.  1.
         11   -1    0    0    0    0 -0.00000000000E+00 -0.00000000000E+00 -0.45593999997E+02  0.45594000000E+02  0.51100000000E-03 0. -1.
    9900012    2    1    2    0    0 -0.22440041484E+02 -0.77370567007E+01  0.36334642340E+02  0.47787265649E+02  0.19999975400E+02 0.  0.
         12    1    1    2    0    0  0.22440041484E+02  0.77370567007E+01 -0.36334642340E+02  0.43400734351E+02  0.00000000000E+00 0. -1.
         11    1    3    3    0    0 -0.37496657865E+01 -0.82266332190E+01  0.14315479030E+02  0.16931344535E+02  0.51100000000E-03 0. -1.
        -11    1    3    3    0    0 -0.10075021776E+02 -0.42243337581E+01  0.72210766475E+01  0.13095610245E+02  0.51100000000E-03 0.  1.
        -12    1    3    3    0    0 -0.86153539221E+01  0.47139102765E+01  0.14798086663E+02  0.17760310869E+02  0.00000000000E+00 0.  1.
</event>
<event>
 7    1  0.2328615E-009  0.4778727E+02  0.7816164E-02  0.1312668E+00
        -11   -1    0    0    0    0  0.00000000000E+00  0.00000000000E+00  0.45593999997E+02  0.45594000000E+02  0.51100000000E-03 0.  1.
         11   -1    0    0    0    0 -0.00000000000E+00 -0.00000000000E+00 -0.45593999997E+02  0.45594000000E+02  0.51100000000E-03 0. -1.
    9900012    2    1    2    0    0  0.22096339768E+02  0.20154874993E+02  0.31450851024E+02  0.47787271351E+02  0.20000001398E+02 0.  0.
         12    1    1    2    0    0 -0.22096339768E+02 -0.20154874993E+02 -0.31450851024E+02  0.43400728649E+02  0.00000000000E+00 0. -1.
         11    1    3    3    0    0  0.14511256416E+02  0.80323124292E+01  0.16561274441E+02  0.23438652203E+02  0.51100000000E-03 0. -1.
        -11    1    3    3    0    0  0.65070622980E+01  0.95059015833E+01  0.17195861566E+02  0.20697866555E+02  0.51100000000E-03 0.  1.
        -12    1    3    3    0    0  0.10780210547E+01  0.26166609801E+01 -0.23062849827E+01  0.36507525937E+01  0.00000000000E+00 0.  1.
</event>
<event>
 7    1  0.2328615E-009  0.4778728E+02  0.7816164E-02  0.1312668E+00
        -11   -1    0    0    0    0  0.00000000000E+00  0.00000000000E+00  0.45593999997E+02  0.45594000000E+02  0.51100000000E-03 0.  1.
         11   -1    0    0    0    0 -0.00000000000E+00 -0.00000000000E+00 -0.45593999997E+02  0.45594000000E+02  0.51100000000E-03 0. -1.
    9900012    2    1    2    0    0 -0.40706411082E+02 -0.27732610657E+01  0.14795937121E+02  0.47787278400E+02  0.20000033536E+02 0.  0.
         12    1    1    2    0    0  0.40706411082E+02  0.27732610657E+01 -0.14795937121E+02  0.43400721600E+02  0.00000000000E+00 0. -1.
         11    1    3    3    0    0 -0.32460605226E+02  0.50902775490E+01  0.11394836048E+02  0.34777062929E+02  0.51100000000E-03 0. -1.
        -11    1    3    3    0    0 -0.27477862043E+01 -0.81161906301E-01  0.19532991926E+01  0.33722832438E+01  0.51100000000E-03 0.  1.
         12    1    3    3    0    0 -0.54980196517E+01 -0.77823767084E+01  0.14478018805E+01  0.96379322267E+01  0.00000000000E+00 0. -1.
</event>
<event>
 7    1  0.2328615E-009  0.4778727E+02  0.7816164E-02  0.1312668E+00
        -11   -1    0    0    0    0  0.00000000000E+00  0.00000000000E+00  0.45593999997E+02  0.45594000000E+02  0.51100000000E-03 0.  1.
         11   -1    0    0    0    0 -0.00000000000E+00 -0.00000000000E+00 -0.45593999997E+02  0.45594000000E+02  0.51100000000E-03 0. -1.
    9900012    2    1    2    0    0  0.10990773554E-01 -0.40391009901E+02  0.15880469302E+02  0.47787272968E+02  0.20000008771E+02 0.  0.
         12    1    1    2    0    0 -0.10990773554E-01  0.40391009901E+02 -0.15880469302E+02  0.43400727032E+02  0.00000000000E+00 0. -1.
         11    1    3    3    0    0  0.15832331447E+01 -0.20927219702E+02  0.11352735937E+02  0.23860841670E+02  0.51100000000E-03 0.  1.
        -11    1    3    3    0    0  0.27323117836E+01 -0.18677374723E+02  0.22987539800E+01  0.19015628424E+02  0.51100000000E-03 0. -1.
         12    1    3    3    0    0 -0.43045541547E+01 -0.78641547537E+00  0.22289793850E+01  0.49108028743E+01  0.00000000000E+00 0. -1.
</event>
<event>
 7    1  0.2328615E-009  0.4778728E+02  0.7816164E-02  0.1312668E+00
        -11   -1    0    0    0    0  0.00000000000E+00  0.00000000000E+00  0.45593999997E+02  0.45594000000E+02  0.51100000000E-03 0.  1.
         11   -1    0    0    0    0 -0.00000000000E+00 -0.00000000000E+00 -0.45593999997E+02  0.45594000000E+02  0.51100000000E-03 0. -1.
    9900012    2    1    2    0    0  0.12692085533E+02 -0.82816434739E+01  0.40668761862E+02  0.47787275983E+02  0.20000022516E+02 0.  0.
         12    1    1    2    0    0 -0.12692085533E+02  0.82816434739E+01 -0.40668761862E+02  0.43400724017E+02  0.00000000000E+00 0. -1.
         11    1    3    3    0    0 -0.28666289222E+01  0.21141410976E+01  0.59112097287E+01  0.69014168600E+01  0.51100000000E-03 0. -1.
        -11    1    3    3    0    0  0.45690774863E+01 -0.52891876924E+00  0.21250366661E+01  0.50667549017E+01  0.51100000000E-03 0.  1.
        -12    1    3    3    0    0  0.10989636968E+02 -0.98668658023E+01  0.32632515468E+02  0.35819104221E+02  0.00000000000E+00 0.  1.
</event>
<event>
 7    1  0.2328615E-009  0.4778727E+02  0.7816164E-02  0.1312668E+00
        -11   -1    0    0    0    0  0.00000000000E+00  0.00000000000E+00  0.45593999997E+02  0.45594000000E+02  0.51100000000E-03 0.  1.
         11   -1    0    0    0    0 -0.00000000000E+00 -0.00000000000E+00 -0.45593999997E+02  0.45594000000E+02  0.51100000000E-03 0. -1.
    9900012    2    1    2    0    0  0.63099016719E+01 -0.42489972527E+02  0.61976238061E+01  0.47787272295E+02  0.20000005703E+02 0.  0.
         12    1    1    2    0    0 -0.63099016719E+01  0.42489972527E+02 -0.61976238061E+01  0.43400727705E+02  0.00000000000E+00 0. -1.
         11    1    3    3    0    0 -0.65927977539E+00 -0.20711931684E+00 -0.66982152024E+00  0.96239771599E+00  0.51100000000E-03 0. -1.
        -11    1    3    3    0    0  0.12666005231E+02 -0.25977101517E+02  0.24963469379E+01  0.29008089217E+02  0.51100000000E-03 0.  1.
        -12    1    3    3    0    0 -0.56968237841E+01 -0.16305751693E+02  0.43710983884E+01  0.17816785362E+02  0.00000000000E+00 0.  1.
</event>
<event>
 7    1  0.2328615E-009  0.4778727E+02  0.7816164E-02  0.1312668E+00
        -11   -1    0    0    0    0  0.00000000000E+00  0.00000000000E+00  0.45593999997E+02  0.45594000000E+02  0.51100000000E-03 0.  1.
         11   -1    0    0    0    0 -0.00000000000E+00 -0.00000000000E+00 -0.45593999997E+02  0.45594000000E+02  0.51100000000E-03 0. -1.
    9900012    2    1    2    0    0 -0.29039691726E+02  0.46266408704E+01  0.31920427764E+02  0.47787271781E+02  0.20000003358E+02 0.  0.
         12    1    1    2    0    0  0.29039691726E+02 -0.46266408704E+01 -0.31920427764E+02  0.43400728219E+02  0.00000000000E+00 0. -1.
         11    1    3    3    0    0 -0.14250447454E+02  0.33257426305E+01  0.10150844696E+02  0.17809420681E+02  0.51100000000E-03 0. -1.
        -11    1    3    3    0    0 -0.13960324025E+02 -0.10876243189E+01  0.83098595850E+01  0.16282731347E+02  0.51100000000E-03 0.  1.
         12    1    3    3    0    0 -0.82892024662E+00  0.23885225588E+01  0.13459723484E+02  0.13695119753E+02  0.00000000000E+00 0. -1.
</event>
<event>
 7    1  0.2328615E-009  0.4778727E+02  0.7816164E-02  0.1312668E+00
        -11   -1    0    0    0    0  0.00000000000E+00  0.00000000000E+00  0.45593999997E+02  0.45594000000E+02  0.51100000000E-03 0.  1.
         11   -1    0    0    0    0 -0.00000000000E+00 -0.00000000000E+00 -0.45593999997E+02  0.45594000000E+02  0.51100000000E-03 0. -1.
    9900012    2    1    2    0    0  0.25965391912E+02  0.26812725190E+02  0.22147222484E+02  0.47787271055E+02  0.20000000046E+02 0.  0.
         12    1    1    2    0    0 -0.25965391912E+02 -0.26812725190E+02 -0.22147222484E+02  0.43400728945E+02  0.00000000000E+00 0. -1.
         11    1    3    3    0    0  0.19471657947E+02  0.22266305850E+02  0.14456219092E+02  0.32922881255E+02  0.51100000000E-03 0. -1.
        -11    1    3    3    0    0 -0.24178903870E+01  0.24625108871E+01  0.12393006200E+01  0.36668815199E+01  0.51100000000E-03 0.  1.
        -12    1    3    3    0    0  0.89116243515E+01  0.20839084530E+01  0.64517027721E+01  0.11197508280E+02  0.00000000000E+00 0.  1.
</event>
<event>
 7    1  0.2328615E-009  0.4778729E+02  0.7816164E-02  0.1312668E+00
        -11   -1    0    0    0    0  0.00000000000E+00  0.00000000000E+00  0.45593999997E+02  0.45594000000E+02  0.51100000000E-03 0. -1.
         11   -1    0    0    0    0 -0.00000000000E+00 -0.00000000000E+00 -0.45593999997E+02  0.45594000000E+02  0.51100000000E-03 0.  1.
    9900012    2    1    2    0    0 -0.41008019552E+02 -0.16851686662E+01  0.14111147535E+02  0.47787286345E+02  0.20000069761E+02 0.  0.
         12    1    1    2    0    0  0.41008019552E+02  0.16851686662E+01 -0.14111147535E+02  0.43400713655E+02  0.00000000000E+00 0. -1.
         11    1    3    3    0    0 -0.92474604754E+01  0.23088664767E+00  0.10738039297E+02  0.14173013868E+02  0.51100000000E-03 0. -1.
        -11    1    3    3    0    0 -0.21524962169E+02  0.19421474574E+01  0.58677936950E+01  0.22394797080E+02  0.51100000000E-03 0.  1.
        -12    1    3    3    0    0 -0.10235596907E+02 -0.38582027712E+01 -0.24946854567E+01  0.11219475398E+02  0.00000000000E+00 0.  1.
</event>
<event>
 7    1  0.2328615E-009  0.4778727E+02  0.7816164E-02  0.1312668E+00
        -11   -1    0    0    0    0  0.00000000000E+00  0.00000000000E+00  0.45593999997E+02  0.45594000000E+02  0.51100000000E-03 0. -1.
         11   -1    0    0    0    0 -0.00000000000E+00 -0.00000000000E+00 -0.45593999997E+02  0.45594000000E+02  0.51100000000E-03 0.  1.
    9900012    2    1    2    0    0 -0.36095724602E+02 -0.10105085812E+02 -0.21877138025E+02  0.47787271181E+02  0.20000000625E+02 0.  0.
         12    1    1    2    0    0  0.36095724602E+02  0.10105085812E+02  0.21877138025E+02  0.43400728819E+02  0.00000000000E+00 0. -1.
         11    1    3    3    0    0 -0.21326971310E+01 -0.48102927544E+01 -0.14910514221E+01  0.54690536695E+01  0.51100000000E-03 0. -1.
        -11    1    3    3    0    0 -0.82887331179E+01  0.14093902213E+01  0.68349286681E+00  0.84354395413E+01  0.51100000000E-03 0.  1.
         12    1    3    3    0    0 -0.25674294353E+02 -0.67041832787E+01 -0.21069579470E+02  0.33882777971E+02  0.00000000000E+00 0. -1.
</event>
<event>
 7    1  0.2328615E-009  0.4778727E+02  0.7816164E-02  0.1312668E+00
        -11   -1    0    0    0    0  0.00000000000E+00  0.00000000000E+00  0.45593999997E+02  0.45594000000E+02  0.51100000000E-03 0.  1.
         11   -1    0    0    0    0 -0.00000000000E+00 -0.00000000000E+00 -0.45593999997E+02  0.45594000000E+02  0.51100000000E-03 0. -1.
    9900012    2    1    2    0    0 -0.12728420666E+02 -0.19947723777E+01  0.41444317180E+02  0.47787271480E+02  0.20000001987E+02 0.  0.
         12    1    1    2    0    0  0.12728420666E+02  0.19947723777E+01 -0.41444317180E+02  0.43400728520E+02  0.00000000000E+00 0. -1.
         11    1    3    3    0    0 -0.17542366280E+01 -0.25980853788E+01 -0.39527724293E+00  0.31596895642E+01  0.51100000000E-03 0. -1.
        -11    1    3    3    0    0  0.94328015546E+00 -0.25996558468E+01  0.12428850401E+02  0.12732804503E+02  0.51100000000E-03 0.  1.
        -12    1    3    3    0    0 -0.11917464194E+02  0.32029688479E+01  0.29410744022E+02  0.31894777413E+02  0.00000000000E+00 0.  1.
</event>
<event>
 7    1  0.2328615E-009  0.4778727E+02  0.7816164E-02  0.1312668E+00
        -11   -1    0    0    0    0  0.00000000000E+00  0.00000000000E+00  0.45593999997E+02  0.45594000000E+02  0.51100000000E-03 0.  1.
         11   -1    0    0    0    0 -0.00000000000E+00 -0.00000000000E+00 -0.45593999997E+02  0.45594000000E+02  0.51100000000E-03 0. -1.
    9900012    2    1    2    0    0  0.20579392445E+02 -0.12893202577E+02  0.35970507355E+02  0.47787268837E+02  0.19999989935E+02 0.  0.
         12    1    1    2    0    0 -0.20579392445E+02  0.12893202577E+02 -0.35970507355E+02  0.43400731163E+02  0.00000000000E+00 0. -1.
         11    1    3    3    0    0  0.12074331442E+01  0.20392630505E+01  0.71309942491E+01  0.75144905236E+01  0.51100000000E-03 0. -1.
        -11    1    3    3    0    0  0.14219116475E+02 -0.10378866176E+02  0.28359975354E+02  0.33379519751E+02  0.51100000000E-03 0.  1.
         12    1    3    3    0    0  0.51528428260E+01 -0.45535994518E+01  0.47953775154E+00  0.68932585627E+01  0.00000000000E+00 0. -1.
</event>
<event>
 7    1  0.2328615E-009  0.4778728E+02  0.7816164E-02  0.1312668E+00
        -11   -1    0    0    0    0  0.00000000000E+00  0.00000000000E+00  0.45593999997E+02  0.45594000000E+02  0.51100000000E-03 0.  1.
         11   -1    0    0    0    0 -0.00000000000E+00 -0.00000000000E+00 -0.45593999997E+02  0.45594000000E+02  0.51100000000E-03 0. -1.
    9900012    2    1    2    0    0 -0.45084750122E+01 -0.43131286771E+02  0.17286340309E+01  0.47787280869E+02  0.20000044793E+02 0.  0.
         12    1    1    2    0    0  0.45084750122E+01  0.43131286771E+02 -0.17286340309E+01  0.43400719131E+02  0.00000000000E+00 0. -1.
         11    1    3    3    0    0 -0.41068006528E+01 -0.92071978200E+01  0.39321961645E+01  0.10821297068E+02  0.51100000000E-03 0. -1.
        -11    1    3    3    0    0  0.40677968659E+01 -0.31802766648E+01  0.21543020067E+01  0.55948322945E+01  0.51100000000E-03 0.  1.
         12    1    3    3    0    0 -0.44694712253E+01 -0.30743812287E+02 -0.43578641403E+01  0.31371151506E+02  0.00000000000E+00 0. -1.
</event>
<event>
 7    1  0.2328615E-009  0.4778727E+02  0.7816164E-02  0.1312668E+00
        -11   -1    0    0    0    0  0.00000000000E+00  0.00000000000E+00  0.45593999997E+02  0.45594000000E+02  0.51100000000E-03 0.  1.
         11   -1    0    0    0    0 -0.00000000000E+00 -0.00000000000E+00 -0.45593999997E+02  0.45594000000E+02  0.51100000000E-03 0. -1.
    9900012    2    1    2    0    0  0.74104599202E+01 -0.20876306566E+02  0.37321416097E+02  0.47787271993E+02  0.20000004325E+02 0.  0.
         12    1    1    2    0    0 -0.74104599202E+01  0.20876306566E+02 -0.37321416097E+02  0.43400728007E+02  0.00000000000E+00 0. -1.
         11    1    3    3    0    0 -0.13046394421E+01 -0.60214145987E+01  0.10658439025E+02  0.12311045470E+02  0.51100000000E-03 0. -1.
        -11    1    3    3    0    0  0.70616828501E+01 -0.38868427265E+01  0.22024900969E+02  0.23453596185E+02  0.51100000000E-03 0.  1.
        -12    1    3    3    0    0  0.16534165122E+01 -0.10968049241E+02  0.46380761027E+01  0.12022630339E+02  0.00000000000E+00 0.  1.
</event>
<event>
 7    1  0.2328615E-009  0.4778727E+02  0.7816164E-02  0.1312668E+00
        -11   -1    0    0    0    0  0.00000000000E+00  0.00000000000E+00  0.45593999997E+02  0.45594000000E+02  0.51100000000E-03 0.  1.
         11   -1    0    0    0    0 -0.00000000000E+00 -0.00000000000E+00 -0.45593999997E+02  0.45594000000E+02  0.51100000000E-03 0. -1.
    9900012    2    1    2    0    0 -0.15396461999E+02 -0.40559044028E+02 -0.12393924338E+01  0.47787272032E+02  0.20000004503E+02 0.  0.
         12    1    1    2    0    0  0.15396461999E+02  0.40559044028E+02  0.12393924338E+01  0.43400727968E+02  0.00000000000E+00 0. -1.
         11    1    3    3    0    0  0.26444334787E+01 -0.63276054486E+01  0.27195773882E+01  0.73775145251E+01  0.51100000000E-03 0. -1.
        -11    1    3    3    0    0 -0.19334435734E+01 -0.14962694517E+02 -0.97287713734E+00  0.15118429861E+02  0.51100000000E-03 0.  1.
        -12    1    3    3    0    0 -0.16107451905E+02 -0.19268744062E+02 -0.29860926847E+01  0.25291327646E+02  0.00000000000E+00 0.  1.
</event>
<event>
 7    1  0.2328615E-009  0.4778727E+02  0.7816164E-02  0.1312668E+00
        -11   -1    0    0    0    0  0.00000000000E+00  0.00000000000E+00  0.45593999997E+02  0.45594000000E+02  0.51100000000E-03 0. -1.
         11   -1    0    0    0    0 -0.00000000000E+00 -0.00000000000E+00 -0.45593999997E+02  0.45594000000E+02  0.51100000000E-03 0.  1.
    9900012    2    1    2    0    0 -0.26963024201E+02  0.33434215547E+02 -0.62266813545E+01  0.47787274153E+02  0.20000014175E+02 0.  0.
         12    1    1    2    0    0  0.26963024201E+02 -0.33434215547E+02  0.62266813545E+01  0.43400725847E+02  0.00000000000E+00 0. -1.
         11    1    3    3    0    0 -0.56223889291E+01  0.34335135831E+01  0.41239844274E+01  0.77722275194E+01  0.51100000000E-03 0.  1.
        -11    1    3    3    0    0  0.13829146299E+01  0.13008352650E+01 -0.13158818696E+01  0.23100152848E+01  0.51100000000E-03 0. -1.
        -12    1    3    3    0    0 -0.22723549902E+02  0.28699866699E+02 -0.90347839123E+01  0.37705031349E+02  0.00000000000E+00 0.  1.
</event>
<event>
 7    1  0.2328615E-009  0.4778727E+02  0.7816164E-02  0.1312668E+00
        -11   -1    0    0    0    0  0.00000000000E+00  0.00000000000E+00  0.45593999997E+02  0.45594000000E+02  0.51100000000E-03 0.  1.
         11   -1    0    0    0    0 -0.00000000000E+00 -0.00000000000E+00 -0.45593999997E+02  0.45594000000E+02  0.51100000000E-03 0. -1.
    9900012    2    1    2    0    0  0.65821634469E+01 -0.40664951759E+02  0.13662365685E+02  0.47787269438E+02  0.19999992676E+02 0.  0.
         12    1    1    2    0    0 -0.65821634469E+01  0.40664951759E+02 -0.13662365685E+02  0.43400730562E+02  0.00000000000E+00 0. -1.
         11    1    3    3    0    0  0.27288841952E+01 -0.18365854623E+01 -0.53602960433E+00  0.33327440809E+01  0.51100000000E-03 0. -1.
        -11    1    3    3    0    0  0.42396192056E+01 -0.35467883561E+02  0.68587300492E+01  0.36372892563E+02  0.51100000000E-03 0.  1.
         12    1    3    3    0    0 -0.38633995389E+00 -0.33604827363E+01  0.73396652398E+01  0.80816327937E+01  0.00000000000E+00 0. -1.
</event>
<event>
 7    1  0.2328615E-009  0.4778727E+02  0.7816164E-02  0.1312668E+00
        -11   -1    0    0    0    0  0.00000000000E+00  0.00000000000E+00  0.45593999997E+02  0.45594000000E+02  0.51100000000E-03 0. -1.
         11   -1    0    0    0    0 -0.00000000000E+00 -0.00000000000E+00 -0.45593999997E+02  0.45594000000E+02  0.51100000000E-03 0.  1.
    9900012    2    1    2    0    0 -0.32706094244E+02 -0.14580052132E+02 -0.24522575258E+02  0.47787271687E+02  0.20000002928E+02 0.  0.
         12    1    1    2    0    0  0.32706094244E+02  0.14580052132E+02  0.24522575258E+02  0.43400728313E+02  0.00000000000E+00 0. -1.
         11    1    3    3    0    0  0.40165469388E+00 -0.28495310946E+00 -0.46975476730E+01  0.47232911375E+01  0.51100000000E-03 0. -1.
        -11    1    3    3    0    0 -0.71055976855E+01  0.21903927879E+01 -0.41599573807E+01  0.85201282094E+01  0.51100000000E-03 0.  1.
        -12    1    3    3    0    0 -0.26002151252E+02 -0.16485491811E+02 -0.15665070204E+02  0.34543852340E+02  0.00000000000E+00 0.  1.
</event>
<event>
 7    1  0.2328615E-009  0.4778727E+02  0.7816164E-02  0.1312668E+00
        -11   -1    0    0    0    0  0.00000000000E+00  0.00000000000E+00  0.45593999997E+02  0.45594000000E+02  0.51100000000E-03 0.  1.
         11   -1    0    0    0    0 -0.00000000000E+00 -0.00000000000E+00 -0.45593999997E+02  0.45594000000E+02  0.51100000000E-03 0. -1.
    9900012    2    1    2    0    0  0.27093710739E+02  0.29193020426E+02  0.17243011462E+02  0.47787273652E+02  0.20000011891E+02 0.  0.
         12    1    1    2    0    0 -0.27093710739E+02 -0.29193020426E+02 -0.17243011462E+02  0.43400726348E+02  0.00000000000E+00 0. -1.
         11    1    3    3    0    0  0.49145477761E+01  0.34778215886E+01 -0.18602702988E+01  0.63014782941E+01  0.51100000000E-03 0.  1.
        -11    1    3    3    0    0  0.48555241487E+00  0.42883047463E+01 -0.16298512048E+01  0.46132129753E+01  0.51100000000E-03 0. -1.
        -12    1    3    3    0    0  0.21693610548E+02  0.21426894091E+02  0.20733132966E+02  0.36872582383E+02  0.00000000000E+00 0.  1.
</event>
<event>
 7    1  0.2328615E-009  0.4778727E+02  0.7816164E-02  0.1312668E+00
        -11   -1    0    0    0    0  0.00000000000E+00  0.00000000000E+00  0.45593999997E+02  0.45594000000E+02  0.51100000000E-03 0. -1.
         11   -1    0    0    0    0 -0.00000000000E+00 -0.00000000000E+00 -0.45593999997E+02  0.45594000000E+02  0.51100000000E-03 0.  1.
    9900012    2    1    2    0    0  0.25250848836E+02 -0.16797641697E+02 -0.31046052306E+02  0.47787268470E+02  0.19999988262E+02 0.  0.
         12    1    1    2    0    0 -0.25250848836E+02  0.16797641697E+02  0.31046052306E+02  0.43400731530E+02  0.00000000000E+00 0. -1.
         11    1    3    3    0    0 -0.75747117716E+00 -0.15153638381E+01 -0.14621044862E+01  0.22378203538E+01  0.51100000000E-03 0. -1.
        -11    1    3    3    0    0  0.23582151406E+02 -0.84236670738E+01 -0.14840336758E+02  0.29108617749E+02  0.51100000000E-03 0.  1.
        -12    1    3    3    0    0  0.24261686072E+01 -0.68586107847E+01 -0.14743611062E+02  0.16440830367E+02  0.00000000000E+00 0.  1.
</event>
<event>
 7    1  0.2328615E-009  0.4778728E+02  0.7816164E-02  0.1312668E+00
        -11   -1    0    0    0    0  0.00000000000E+00  0.00000000000E+00  0.45593999997E+02  0.45594000000E+02  0.51100000000E-03 0.  1.
         11   -1    0    0    0    0 -0.00000000000E+00 -0.00000000000E+00 -0.45593999997E+02  0.45594000000E+02  0.51100000000E-03 0. -1.
    9900012    2    1    2    0    0 -0.91384252391E+01 -0.70509728623E+00  0.42421868424E+02  0.47787275368E+02  0.20000019711E+02 0.  0.
         12    1    1    2    0    0  0.91384252391E+01  0.70509728623E+00 -0.42421868424E+02  0.43400724632E+02  0.00000000000E+00 0. -1.
         11    1    3    3    0    0 -0.73858141899E+01 -0.35716705277E+01  0.12204631236E+02  0.14705784763E+02  0.51100000000E-03 0. -1.
        -11    1    3    3    0    0 -0.67357650179E+01  0.12111886538E+01  0.23932774146E+02  0.24892070764E+02  0.51100000000E-03 0.  1.
        -12    1    3    3    0    0  0.49831539687E+01  0.16553845877E+01  0.62844630415E+01  0.81894198408E+01  0.00000000000E+00 0.  1.
</event>
<event>
 7    1  0.2449775E-009  0.4778727E+02  0.7816164E-02  0.1312668E+00
        -11   -1    0    0    0    0  0.00000000000E+00  0.00000000000E+00  0.45593999997E+02  0.45594000000E+02  0.51100000000E-03 0. -1.
         11   -1    0    0    0    0 -0.00000000000E+00 -0.00000000000E+00 -0.45593999997E+02  0.45594000000E+02  0.51100000000E-03 0.  1.
    9900012    2    1    2    0    0  0.80584070625E+01  0.14896841812E+02 -0.39959598581E+02  0.47787270293E+02  0.19999996575E+02 0.  0.
         12    1    1    2    0    0 -0.80584070625E+01 -0.14896841812E+02  0.39959598581E+02  0.43400729707E+02  0.00000000000E+00 0. -1.
         11    1    3    3    0    0 -0.16150519346E+01  0.48978625232E+01 -0.33885949827E+01  0.61709015764E+01  0.51100000000E-03 0. -1.
        -11    1    3    3    0    0 -0.34140306827E+01  0.43393501918E+01 -0.11964769330E+02  0.13177301354E+02  0.51100000000E-03 0.  1.
        -12    1    3    3    0    0  0.13087489680E+02  0.56596290968E+01 -0.24606234268E+02  0.28439067363E+02  0.00000000000E+00 0.  1.
</event>
<event>
 7    1  0.2328615E-009  0.4778727E+02  0.7816164E-02  0.1312668E+00
        -11   -1    0    0    0    0  0.00000000000E+00  0.00000000000E+00  0.45593999997E+02  0.45594000000E+02  0.51100000000E-03 0.  1.
         11   -1    0    0    0    0 -0.00000000000E+00 -0.00000000000E+00 -0.45593999997E+02  0.45594000000E+02  0.51100000000E-03 0. -1.
    9900012    2    1    2    0    0 -0.35282134599E+02 -0.90323448327E+01  0.23605316516E+02  0.47787271401E+02  0.20000001627E+02 0.  0.
         12    1    1    2    0    0  0.35282134599E+02  0.90323448327E+01 -0.23605316516E+02  0.43400728599E+02  0.00000000000E+00 0. -1.
         11    1    3    3    0    0 -0.12307415331E+02 -0.47924992647E+01 -0.80952123695E+00  0.13232378706E+02  0.51100000000E-03 0. -1.
        -11    1    3    3    0    0  0.13974797142E+00 -0.67227327033E+00 -0.75413164536E-01  0.69077366193E+00  0.51100000000E-03 0.  1.
        -12    1    3    3    0    0 -0.23114467240E+02 -0.35675722977E+01  0.24490250918E+02  0.33864119033E+02  0.00000000000E+00 0.  1.
</event>
<event>
 7    1  0.2328615E-009  0.4778727E+02  0.7816164E-02  0.1312668E+00
        -11   -1    0    0    0    0  0.00000000000E+00  0.00000000000E+00  0.45593999997E+02  0.45594000000E+02  0.51100000000E-03 0.  1.
         11   -1    0    0    0    0 -0.00000000000E+00 -0.00000000000E+00 -0.45593999997E+02  0.45594000000E+02  0.51100000000E-03 0. -1.
    9900012    2    1    2    0    0  0.12458912413E+02 -0.29652377535E+02  0.29139927217E+02  0.47787270165E+02  0.19999995990E+02 0.  0.
         12    1    1    2    0    0 -0.12458912413E+02  0.29652377535E+02 -0.29139927217E+02  0.43400729835E+02  0.00000000000E+00 0. -1.
         11    1    3    3    0    0  0.21234174111E+01 -0.80400504751E+01  0.14917562150E+01  0.84484702764E+01  0.51100000000E-03 0. -1.
        -11    1    3    3    0    0  0.31600600798E+01 -0.16830500929E+02  0.10346710819E+02  0.20007652692E+02  0.51100000000E-03 0.  1.
         12    1    3    3    0    0  0.71754349217E+01 -0.47818261316E+01  0.17301460183E+02  0.19331147197E+02  0.00000000000E+00 0. -1.
</event>
<event>
 7    1  0.2328615E-009  0.4778727E+02  0.7816164E-02  0.1312668E+00
        -11   -1    0    0    0    0  0.00000000000E+00  0.00000000000E+00  0.45593999997E+02  0.45594000000E+02  0.51100000000E-03 0.  1.
         11   -1    0    0    0    0 -0.00000000000E+00 -0.00000000000E+00 -0.45593999997E+02  0.45594000000E+02  0.51100000000E-03 0. -1.
    9900012    2    1    2    0    0 -0.28832736398E+02 -0.32247530971E+02  0.35203985937E+01  0.47787272493E+02  0.20000006604E+02 0.  0.
         12    1    1    2    0    0  0.28832736398E+02  0.32247530971E+02 -0.35203985937E+01  0.43400727507E+02  0.00000000000E+00 0. -1.
         11    1    3    3    0    0 -0.34339174726E+01 -0.12227938541E+02  0.33013599544E+01  0.13123004533E+02  0.51100000000E-03 0.  1.
        -11    1    3    3    0    0  0.12563161286E+01 -0.22253022859E+01 -0.51556451744E+00  0.26069345046E+01  0.51100000000E-03 0. -1.
        -12    1    3    3    0    0 -0.26655135054E+02 -0.17794290144E+02  0.73460315669E+00  0.32057333455E+02  0.00000000000E+00 0.  1.
</event>
<event>
 7    1  0.2328615E-009  0.4778727E+02  0.7816164E-02  0.1312668E+00
        -11   -1    0    0    0    0  0.00000000000E+00  0.00000000000E+00  0.45593999997E+02  0.45594000000E+02  0.51100000000E-03 0.  1.
         11   -1    0    0    0    0 -0.00000000000E+00 -0.00000000000E+00 -0.45593999997E+02  0.45594000000E+02  0.51100000000E-03 0. -1.
    9900012    2    1    2    0    0 -0.16748446571E+02 -0.40032697590E+02  0.70412369950E+00  0.47787272713E+02  0.20000007607E+02 0.  0.
         12    1    1    2    0    0  0.16748446571E+02  0.40032697590E+02 -0.70412369950E+00  0.43400727287E+02  0.00000000000E+00 0. -1.
         11    1    3    3    0    0 -0.72432394105E+01 -0.14209712298E+02 -0.59768267056E-01  0.15949420468E+02  0.51100000000E-03 0. -1.
        -11    1    3    3    0    0 -0.13184339391E+02 -0.22310468844E+02 -0.21009355947E+01  0.25999956843E+02  0.51100000000E-03 0.  1.
         12    1    3    3    0    0  0.36791322305E+01 -0.35125164471E+01  0.28648275612E+01  0.58378954013E+01  0.00000000000E+00 0. -1.
</event>
<event>
 7    1  0.2328615E-009  0.4778724E+02  0.7816164E-02  0.1312668E+00
        -11   -1    0    0    0    0  0.00000000000E+00  0.00000000000E+00  0.45593999997E+02  0.45594000000E+02  0.51100000000E-03 0. -1.
         11   -1    0    0    0    0 -0.00000000000E+00 -0.00000000000E+00 -0.45593999997E+02  0.45594000000E+02  0.51100000000E-03 0.  1.
    9900012    2    1    2    0    0  0.14578261938E+02 -0.34679835162E+02  0.21642757960E+02  0.47787243554E+02  0.19999874658E+02 0.  0.
         12    1    1    2    0    0 -0.14578261938E+02  0.34679835162E+02 -0.21642757960E+02  0.43400756446E+02  0.00000000000E+00 0. -1.
         11    1    3    3    0    0  0.89537987428E+01 -0.14383530391E+02  0.73522476022E+01  0.18469217728E+02  0.51100000000E-03 0. -1.
        -11    1    3    3    0    0  0.74608444592E+01 -0.28030315043E+01  0.37057720863E+01  0.87894216348E+01  0.51100000000E-03 0.  1.
        -12    1    3    3    0    0 -0.18363812640E+01 -0.17493273267E+02  0.10584738271E+02  0.20528604190E+02  0.00000000000E+00 0.  1.
</event>
<event>
 7    1  0.2328615E-009  0.4778727E+02  0.7816164E-02  0.1312668E+00
        -11   -1    0    0    0    0  0.00000000000E+00  0.00000000000E+00  0.45593999997E+02  0.45594000000E+02  0.51100000000E-03 0. -1.
         11   -1    0    0    0    0 -0.00000000000E+00 -0.00000000000E+00 -0.45593999997E+02  0.45594000000E+02  0.51100000000E-03 0.  1.
    9900012    2    1    2    0    0  0.15583135203E+02  0.34731097722E+02 -0.20845628153E+02  0.47787268844E+02  0.19999989969E+02 0.  0.
         12    1    1    2    0    0 -0.15583135203E+02 -0.34731097722E+02  0.20845628153E+02  0.43400731156E+02  0.00000000000E+00 0. -1.
         11    1    3    3    0    0  0.46369502797E+01  0.15936652880E+02 -0.94152115105E+01  0.19082044465E+02  0.51100000000E-03 0. -1.
        -11    1    3    3    0    0  0.14602439571E+02  0.13561245408E+02 -0.91203497591E+01  0.21916190327E+02  0.51100000000E-03 0.  1.
         12    1    3    3    0    0 -0.36562546474E+01  0.52331994343E+01 -0.23100668831E+01  0.67890340528E+01  0.00000000000E+00 0. -1.
</event>
<event>
 7    1  0.2328615E-009  0.4778727E+02  0.7816164E-02  0.1312668E+00
        -11   -1    0    0    0    0  0.00000000000E+00  0.00000000000E+00  0.45593999997E+02  0.45594000000E+02  0.51100000000E-03 0. -1.
         11   -1    0    0    0    0 -0.00000000000E+00 -0.00000000000E+00 -0.45593999997E+02  0.45594000000E+02  0.51100000000E-03 0.  1.
    9900012    2    1    2    0    0  0.20184113236E+02  0.26159296412E+02  0.28141002010E+02  0.47787271780E+02  0.20000003354E+02 0.  0.
         12    1    1    2    0    0 -0.20184113236E+02 -0.26159296412E+02 -0.28141002010E+02  0.43400728220E+02  0.00000000000E+00 0. -1.
         11    1    3    3    0    0  0.81036982394E+01  0.11113436777E+02  0.97836106712E+01  0.16878905183E+02  0.51100000000E-03 0. -1.
        -11    1    3    3    0    0  0.73159023665E+01  0.17838100135E+02  0.13322059646E+02  0.23434963566E+02  0.51100000000E-03 0.  1.
         12    1    3    3    0    0  0.47645126296E+01 -0.27922404999E+01  0.50353316930E+01  0.74734030311E+01  0.00000000000E+00 0. -1.
</event>
<event>
 7    1  0.2328615E-009  0.4778727E+02  0.7816164E-02  0.1312668E+00
        -11   -1    0    0    0    0  0.00000000000E+00  0.00000000000E+00  0.45593999997E+02  0.45594000000E+02  0.51100000000E-03 0.  1.
         11   -1    0    0    0    0 -0.00000000000E+00 -0.00000000000E+00 -0.45593999997E+02  0.45594000000E+02  0.51100000000E-03 0. -1.
    9900012    2    1    2    0    0 -0.20040229620E+02 -0.19387802581E+02  0.33258465627E+02  0.47787271573E+02  0.20000002409E+02 0.  0.
         12    1    1    2    0    0  0.20040229620E+02  0.19387802581E+02 -0.33258465627E+02  0.43400728427E+02  0.00000000000E+00 0. -1.
         11    1    3    3    0    0  0.88335343505E+00 -0.68768343671E+01  0.20570506127E+01  0.72320551497E+01  0.51100000000E-03 0.  1.
        -11    1    3    3    0    0 -0.10776418993E+02 -0.14235018961E+01  0.12612407340E+02  0.16650236729E+02  0.51100000000E-03 0. -1.
        -12    1    3    3    0    0 -0.10147164063E+02 -0.11087466318E+02  0.18589007675E+02  0.23904979694E+02  0.00000000000E+00 0.  1.
</event>
<event>
 7    1  0.2328615E-009  0.4778727E+02  0.7816164E-02  0.1312668E+00
        -11   -1    0    0    0    0  0.00000000000E+00  0.00000000000E+00  0.45593999997E+02  0.45594000000E+02  0.51100000000E-03 0.  1.
         11   -1    0    0    0    0 -0.00000000000E+00 -0.00000000000E+00 -0.45593999997E+02  0.45594000000E+02  0.51100000000E-03 0. -1.
    9900012    2    1    2    0    0  0.20223001063E+02  0.15696443030E+02  0.35046752443E+02  0.47787274745E+02  0.20000016873E+02 0.  0.
         12    1    1    2    0    0 -0.20223001063E+02 -0.15696443030E+02 -0.35046752443E+02  0.43400725255E+02  0.00000000000E+00 0. -1.
         11    1    3    3    0    0  0.15168755042E+02  0.75963461042E+01  0.19190194444E+02  0.25613651959E+02  0.51100000000E-03 0. -1.
        -11    1    3    3    0    0  0.72133614024E+01  0.98696059295E+01  0.14782883156E+02  0.19182683300E+02  0.51100000000E-03 0.  1.
         12    1    3    3    0    0 -0.21591153805E+01 -0.17695090033E+01  0.10736748439E+01  0.29909394860E+01  0.00000000000E+00 0. -1.
</event>
<event>
 7    1  0.2328615E-009  0.4778727E+02  0.7816164E-02  0.1312668E+00
        -11   -1    0    0    0    0  0.00000000000E+00  0.00000000000E+00  0.45593999997E+02  0.45594000000E+02  0.51100000000E-03 0.  1.
         11   -1    0    0    0    0 -0.00000000000E+00 -0.00000000000E+00 -0.45593999997E+02  0.45594000000E+02  0.51100000000E-03 0. -1.
    9900012    2    1    2    0    0  0.28368902550E+02  0.18796640104E+02 -0.26935381736E+02  0.47787273043E+02  0.20000009112E+02 0.  0.
         12    1    1    2    0    0 -0.28368902550E+02 -0.18796640104E+02  0.26935381736E+02  0.43400726957E+02  0.00000000000E+00 0. -1.
         11    1    3    3    0    0  0.13348634687E+02  0.84168769782E+01 -0.17863790033E+02  0.23835789492E+02  0.51100000000E-03 0. -1.
        -11    1    3    3    0    0  0.10986628833E+02  0.10640715411E+02 -0.11589100922E+02  0.19189530949E+02  0.51100000000E-03 0.  1.
         12    1    3    3    0    0  0.40336390297E+01 -0.26095228521E+00  0.25175092195E+01  0.47619526024E+01  0.00000000000E+00 0. -1.
</event>
<event>
 7    1  0.2328615E-009  0.4778724E+02  0.7816164E-02  0.1312668E+00
        -11   -1    0    0    0    0  0.00000000000E+00  0.00000000000E+00  0.45593999997E+02  0.45594000000E+02  0.51100000000E-03 0.  1.
         11   -1    0    0    0    0 -0.00000000000E+00 -0.00000000000E+00 -0.45593999997E+02  0.45594000000E+02  0.51100000000E-03 0. -1.
    9900012    2    1    2    0    0  0.62902648688E+01 -0.30733951809E+02  0.29991375469E+02  0.47787241614E+02  0.19999865817E+02 0.  0.
         12    1    1    2    0    0 -0.62902648688E+01  0.30733951809E+02 -0.29991375469E+02  0.43400758386E+02  0.00000000000E+00 0. -1.
         11    1    3    3    0    0  0.50453983270E+01 -0.11990504441E+02  0.60300652013E+01  0.14338407430E+02  0.51100000000E-03 0. -1.
        -11    1    3    3    0    0  0.56227122864E+01 -0.17840934662E+02  0.17676662668E+02  0.25736710093E+02  0.51100000000E-03 0.  1.
         12    1    3    3    0    0 -0.43778457446E+01 -0.90251270524E+00  0.62846475998E+01  0.77121240913E+01  0.00000000000E+00 0. -1.
</event>
<event>
 7    1  0.2328615E-009  0.4778727E+02  0.7816164E-02  0.1312668E+00
        -11   -1    0    0    0    0  0.00000000000E+00  0.00000000000E+00  0.45593999997E+02  0.45594000000E+02  0.51100000000E-03 0.  1.
         11   -1    0    0    0    0 -0.00000000000E+00 -0.00000000000E+00 -0.45593999997E+02  0.45594000000E+02  0.51100000000E-03 0. -1.
    9900012    2    1    2    0    0 -0.34760545892E+02  0.22217189524E+02 -0.13480511326E+02  0.47787271357E+02  0.20000001427E+02 0.  0.
         12    1    1    2    0    0  0.34760545892E+02 -0.22217189524E+02  0.13480511326E+02  0.43400728643E+02  0.00000000000E+00 0. -1.
         11    1    3    3    0    0 -0.34070213924E+01  0.98747707309E+00 -0.37751561034E+01  0.51802229300E+01  0.51100000000E-03 0. -1.
        -11    1    3    3    0    0 -0.69105796066E+01  0.10806263429E+01  0.40386137366E+01  0.80767731778E+01  0.51100000000E-03 0.  1.
         12    1    3    3    0    0 -0.24442944894E+02  0.20149086108E+02 -0.13743968959E+02  0.34530275250E+02  0.00000000000E+00 0. -1.
</event>
<event>
 7    1  0.2328615E-009  0.4778727E+02  0.7816164E-02  0.1312668E+00
        -11   -1    0    0    0    0  0.00000000000E+00  0.00000000000E+00  0.45593999997E+02  0.45594000000E+02  0.51100000000E-03 0. -1.
         11   -1    0    0    0    0 -0.00000000000E+00 -0.00000000000E+00 -0.45593999997E+02  0.45594000000E+02  0.51100000000E-03 0.  1.
    9900012    2    1    2    0    0 -0.19771550906E+02  0.23231440915E+02 -0.30870848440E+02  0.47787270103E+02  0.19999995706E+02 0.  0.
         12    1    1    2    0    0  0.19771550906E+02 -0.23231440915E+02  0.30870848440E+02  0.43400729897E+02  0.00000000000E+00 0. -1.
         11    1    3    3    0    0 -0.77083331843E+01  0.61673073405E+01 -0.10224853491E+02  0.14212730543E+02  0.51100000000E-03 0. -1.
        -11    1    3    3    0    0 -0.13560227263E+02  0.79803571717E+01 -0.72602932038E+01  0.17328523355E+02  0.51100000000E-03 0.  1.
        -12    1    3    3    0    0  0.14970095412E+01  0.90837764025E+01 -0.13385701746E+02  0.16246016204E+02  0.00000000000E+00 0.  1.
</event>
<event>
 7    1  0.2365719E-009  0.4778727E+02  0.7816164E-02  0.1312668E+00
        -11   -1    0    0    0    0  0.00000000000E+00  0.00000000000E+00  0.45593999997E+02  0.45594000000E+02  0.51100000000E-03 0. -1.
         11   -1    0    0    0    0 -0.00000000000E+00 -0.00000000000E+00 -0.45593999997E+02  0.45594000000E+02  0.51100000000E-03 0.  1.
    9900012    2    1    2    0    0 -0.30677946361E+02 -0.92773537755E+01 -0.29264613052E+02  0.47787271169E+02  0.20000000567E+02 0.  0.
         12    1    1    2    0    0  0.30677946361E+02  0.92773537755E+01  0.29264613052E+02  0.43400728831E+02  0.00000000000E+00 0. -1.
         11    1    3    3    0    0 -0.35300703951E+01  0.40493727179E+01 -0.14617156096E+01  0.55673538766E+01  0.51100000000E-03 0. -1.
        -11    1    3    3    0    0 -0.95858949212E+01 -0.10863367500E+01 -0.13020898363E+02  0.16205347988E+02  0.51100000000E-03 0.  1.
        -12    1    3    3    0    0 -0.17561981045E+02 -0.12240389743E+02 -0.14781999079E+02  0.26014569304E+02  0.00000000000E+00 0.  1.
</event>
<event>
 7    1  0.2328615E-009  0.4778727E+02  0.7816164E-02  0.1312668E+00
        -11   -1    0    0    0    0  0.00000000000E+00  0.00000000000E+00  0.45593999997E+02  0.45594000000E+02  0.51100000000E-03 0. -1.
         11   -1    0    0    0    0 -0.00000000000E+00 -0.00000000000E+00 -0.45593999997E+02  0.45594000000E+02  0.51100000000E-03 0.  1.
    9900012    2    1    2    0    0  0.20802664435E+02  0.13933845705E+02  0.35450253580E+02  0.47787269791E+02  0.19999994286E+02 0.  0.
         12    1    1    2    0    0 -0.20802664435E+02 -0.13933845705E+02 -0.35450253580E+02  0.43400730209E+02  0.00000000000E+00 0. -1.
         11    1    3    3    0    0  0.16488723451E+01 -0.10468439414E+01  0.36029649136E+01  0.40982946061E+01  0.51100000000E-03 0. -1.
        -11    1    3    3    0    0  0.20812865973E+02  0.13830827837E+02  0.20958939989E+02  0.32615093966E+02  0.51100000000E-03 0.  1.
         12    1    3    3    0    0 -0.16590738827E+01  0.11498618092E+01  0.10888348678E+02  0.11073881219E+02  0.00000000000E+00 0. -1.
</event>
<event>
 7    1  0.2328615E-009  0.4778726E+02  0.7816164E-02  0.1312668E+00
        -11   -1    0    0    0    0  0.00000000000E+00  0.00000000000E+00  0.45593999997E+02  0.45594000000E+02  0.51100000000E-03 0. -1.
         11   -1    0    0    0    0 -0.00000000000E+00 -0.00000000000E+00 -0.45593999997E+02  0.45594000000E+02  0.51100000000E-03 0.  1.
    9900012    2    1    2    0    0  0.94977263502E+01 -0.21497509432E+02 -0.36486631539E+02  0.47787262695E+02  0.19999961930E+02 0.  0.
         12    1    1    2    0    0 -0.94977263502E+01  0.21497509432E+02  0.36486631539E+02  0.43400737305E+02  0.00000000000E+00 0. -1.
         11    1    3    3    0    0  0.89349683205E+01 -0.54757842308E+01 -0.13826804289E+02  0.17349305143E+02  0.51100000000E-03 0. -1.
        -11    1    3    3    0    0  0.53925836856E+01 -0.27376462306E+01 -0.84876862561E+01  0.10421875260E+02  0.51100000000E-03 0.  1.
         12    1    3    3    0    0 -0.48298256558E+01 -0.13284078971E+02 -0.14172140994E+02  0.20016082292E+02  0.00000000000E+00 0. -1.
</event>
<event>
 7    1  0.2328615E-009  0.4778727E+02  0.7816164E-02  0.1312668E+00
        -11   -1    0    0    0    0  0.00000000000E+00  0.00000000000E+00  0.45593999997E+02  0.45594000000E+02  0.51100000000E-03 0.  1.
         11   -1    0    0    0    0 -0.00000000000E+00 -0.00000000000E+00 -0.45593999997E+02  0.45594000000E+02  0.51100000000E-03 0. -1.
    9900012    2    1    2    0    0 -0.31548131612E+02 -0.18843954912E+02  0.23092078333E+02  0.47787270436E+02  0.19999997227E+02 0.  0.
         12    1    1    2    0    0  0.31548131612E+02  0.18843954912E+02 -0.23092078333E+02  0.43400729564E+02  0.00000000000E+00 0. -1.
         11    1    3    3    0    0 -0.14416693153E+02 -0.11651690618E+02  0.54197260301E+01  0.19312596051E+02  0.51100000000E-03 0.  1.
        -11    1    3    3    0    0 -0.10197279837E+02 -0.23811136360E+01  0.19806094484E+01  0.10657252567E+02  0.51100000000E-03 0. -1.
         12    1    3    3    0    0 -0.69341586214E+01 -0.48111506586E+01  0.15691742855E+02  0.17817421819E+02  0.00000000000E+00 0. -1.
</event>
<event>
 7    1  0.2328615E-009  0.4778726E+02  0.7816164E-02  0.1312668E+00
        -11   -1    0    0    0    0  0.00000000000E+00  0.00000000000E+00  0.45593999997E+02  0.45594000000E+02  0.51100000000E-03 0.  1.
         11   -1    0    0    0    0 -0.00000000000E+00 -0.00000000000E+00 -0.45593999997E+02  0.45594000000E+02  0.51100000000E-03 0. -1.
    9900012    2    1    2    0    0 -0.27644265010E+02  0.33317150676E+02  0.30636643228E+01  0.47787263184E+02  0.19999964160E+02 0.  0.
         12    1    1    2    0    0  0.27644265010E+02 -0.33317150676E+02 -0.30636643228E+01  0.43400736816E+02  0.00000000000E+00 0. -1.
         11    1    3    3    0    0 -0.44549710826E+01  0.13512818749E+02 -0.20683158339E+01  0.14377794286E+02  0.51100000000E-03 0. -1.
        -11    1    3    3    0    0 -0.10026200566E+02  0.82651302962E+01 -0.40922968269E+01  0.13622920766E+02  0.51100000000E-03 0.  1.
        -12    1    3    3    0    0 -0.13163093362E+02  0.11539201631E+02  0.92242769836E+01  0.19786548132E+02  0.00000000000E+00 0.  1.
</event>
<event>
 7    1  0.2328615E-009  0.4778729E+02  0.7816164E-02  0.1312668E+00
        -11   -1    0    0    0    0  0.00000000000E+00  0.00000000000E+00  0.45593999997E+02  0.45594000000E+02  0.51100000000E-03 0.  1.
         11   -1    0    0    0    0 -0.00000000000E+00 -0.00000000000E+00 -0.45593999997E+02  0.45594000000E+02  0.51100000000E-03 0. -1.
    9900012    2    1    2    0    0  0.22254398662E+02 -0.13500656737E+02  0.34728892703E+02  0.47787285945E+02  0.20000067936E+02 0.  0.
         12    1    1    2    0    0 -0.22254398662E+02  0.13500656737E+02 -0.34728892703E+02  0.43400714055E+02  0.00000000000E+00 0. -1.
         11    1    3    3    0    0  0.56466297092E+01 -0.63881137663E+01  0.37399879689E+01  0.93102059501E+01  0.51100000000E-03 0. -1.
        -11    1    3    3    0    0  0.36391662636E+01 -0.84908323728E+01  0.17027459774E+02  0.19371942394E+02  0.51100000000E-03 0.  1.
        -12    1    3    3    0    0  0.12968602689E+02  0.13782894019E+01  0.13961444960E+02  0.19105137601E+02  0.00000000000E+00 0.  1.
</event>
<event>
 7    1  0.2328615E-009  0.4778728E+02  0.7816164E-02  0.1312668E+00
        -11   -1    0    0    0    0  0.00000000000E+00  0.00000000000E+00  0.45593999997E+02  0.45594000000E+02  0.51100000000E-03 0. -1.
         11   -1    0    0    0    0 -0.00000000000E+00 -0.00000000000E+00 -0.45593999997E+02  0.45594000000E+02  0.51100000000E-03 0.  1.
    9900012    2    1    2    0    0  0.38320451276E+01 -0.38564527834E+02 -0.19537524147E+02  0.47787283108E+02  0.20000055003E+02 0.  0.
         12    1    1    2    0    0 -0.38320451276E+01  0.38564527834E+02  0.19537524147E+02  0.43400716892E+02  0.00000000000E+00 0. -1.
         11    1    3    3    0    0 -0.54738189642E+01 -0.28089368765E+01 -0.15162335756E+01  0.63365436120E+01  0.51100000000E-03 0. -1.
        -11    1    3    3    0    0  0.23406969214E-01 -0.78894809289E+01 -0.48512779887E+01  0.92617145064E+01  0.51100000000E-03 0.  1.
         12    1    3    3    0    0  0.92824571226E+01 -0.27866110029E+02 -0.13170012582E+02  0.32189024990E+02  0.00000000000E+00 0. -1.
</event>
<event>
 7    1  0.2328615E-009  0.4778727E+02  0.7816164E-02  0.1312668E+00
        -11   -1    0    0    0    0  0.00000000000E+00  0.00000000000E+00  0.45593999997E+02  0.45594000000E+02  0.51100000000E-03 0. -1.
         11   -1    0    0    0    0 -0.00000000000E+00 -0.00000000000E+00 -0.45593999997E+02  0.45594000000E+02  0.51100000000E-03 0.  1.
    9900012    2    1    2    0    0  0.20560133351E+02  0.39282762196E+01 -0.38019374483E+02  0.47787271048E+02  0.20000000018E+02 0.  0.
         12    1    1    2    0    0 -0.20560133351E+02 -0.39282762196E+01  0.38019374483E+02  0.43400728952E+02  0.00000000000E+00 0. -1.
         11    1    3    3    0    0  0.98404710882E+00 -0.17258640123E+01 -0.63373844321E+00  0.20853249092E+01  0.51100000000E-03 0.  1.
        -11    1    3    3    0    0  0.15715006371E+02  0.20315313846E+01 -0.37165963503E+02  0.40402937868E+02  0.51100000000E-03 0. -1.
         12    1    3    3    0    0  0.38610798711E+01  0.36226088473E+01 -0.21967253643E+00  0.52990082708E+01  0.00000000000E+00 0. -1.
</event>
<event>
 7    1  0.2328615E-009  0.4778728E+02  0.7816164E-02  0.1312668E+00
        -11   -1    0    0    0    0  0.00000000000E+00  0.00000000000E+00  0.45593999997E+02  0.45594000000E+02  0.51100000000E-03 0.  1.
         11   -1    0    0    0    0 -0.00000000000E+00 -0.00000000000E+00 -0.45593999997E+02  0.45594000000E+02  0.51100000000E-03 0. -1.
    9900012    2    1    2    0    0 -0.31658743323E+02  0.20734621814E+01  0.29614982401E+02  0.47787280457E+02  0.20000042917E+02 0.  0.
         12    1    1    2    0    0  0.31658743323E+02 -0.20734621814E+01 -0.29614982401E+02  0.43400719543E+02  0.00000000000E+00 0. -1.
         11    1    3    3    0    0 -0.87187711576E+01  0.26509746899E+01  0.84682003597E+01  0.12440058476E+02  0.51100000000E-03 0.  1.
        -11    1    3    3    0    0 -0.48386059634E+01  0.69242235693E+01  0.41656311607E+01  0.94185701110E+01  0.51100000000E-03 0. -1.
         12    1    3    3    0    0 -0.18101366202E+02 -0.75017360778E+01  0.16981150880E+02  0.25928651870E+02  0.00000000000E+00 0. -1.
</event>
<event>
 7    1  0.2328615E-009  0.4778727E+02  0.7816164E-02  0.1312668E+00
        -11   -1    0    0    0    0  0.00000000000E+00  0.00000000000E+00  0.45593999997E+02  0.45594000000E+02  0.51100000000E-03 0.  1.
         11   -1    0    0    0    0 -0.00000000000E+00 -0.00000000000E+00 -0.45593999997E+02  0.45594000000E+02  0.51100000000E-03 0. -1.
    9900012    2    1    2    0    0 -0.32734310643E+02 -0.23875850422E+02  0.15557374771E+02  0.47787271476E+02  0.20000001968E+02 0.  0.
         12    1    1    2    0    0  0.32734310643E+02  0.23875850422E+02 -0.15557374771E+02  0.43400728524E+02  0.00000000000E+00 0. -1.
         11    1    3    3    0    0 -0.87328739936E+01 -0.12503796374E+01  0.18559519684E+01  0.90150482748E+01  0.51100000000E-03 0. -1.
        -11    1    3    3    0    0 -0.20597057936E+02 -0.97023230275E+01  0.10256123385E+02  0.24971222135E+02  0.51100000000E-03 0.  1.
        -12    1    3    3    0    0 -0.34043787136E+01 -0.12923147757E+02  0.34452994172E+01  0.13801001067E+02  0.00000000000E+00 0.  1.
</event>
<event>
 7    1  0.2328615E-009  0.4778726E+02  0.7816164E-02  0.1312668E+00
        -11   -1    0    0    0    0  0.00000000000E+00  0.00000000000E+00  0.45593999997E+02  0.45594000000E+02  0.51100000000E-03 0.  1.
         11   -1    0    0    0    0 -0.00000000000E+00 -0.00000000000E+00 -0.45593999997E+02  0.45594000000E+02  0.51100000000E-03 0. -1.
    9900012    2    1    2    0    0 -0.42749947034E-01  0.97059171069E+01  0.42301507263E+02  0.47787260707E+02  0.19999952868E+02 0.  0.
         12    1    1    2    0    0  0.42749947034E-01 -0.97059171069E+01 -0.42301507263E+02  0.43400739293E+02  0.00000000000E+00 0. -1.
         11    1    3    3    0    0  0.53258154354E+01  0.63217676830E+01  0.38536791329E+02  0.39413365028E+02  0.51100000000E-03 0.  1.
        -11    1    3    3    0    0 -0.10239659664E+01 -0.80159623409E-01  0.24603785695E+01  0.26661573156E+01  0.51100000000E-03 0. -1.
        -12    1    3    3    0    0 -0.43445994161E+01  0.34643090473E+01  0.13043373651E+01  0.57077383633E+01  0.00000000000E+00 0.  1.
</event>
<event>
 7    1  0.2328615E-009  0.4778728E+02  0.7816164E-02  0.1312668E+00
        -11   -1    0    0    0    0  0.00000000000E+00  0.00000000000E+00  0.45593999997E+02  0.45594000000E+02  0.51100000000E-03 0.  1.
         11   -1    0    0    0    0 -0.00000000000E+00 -0.00000000000E+00 -0.45593999997E+02  0.45594000000E+02  0.51100000000E-03 0. -1.
    9900012    2    1    2    0    0 -0.36906176595E+02  0.18100791208E+02  0.13925456981E+02  0.47787275751E+02  0.20000021459E+02 0.  0.
         12    1    1    2    0    0  0.36906176595E+02 -0.18100791208E+02 -0.13925456981E+02  0.43400724249E+02  0.00000000000E+00 0. -1.
         11    1    3    3    0    0 -0.14416247945E+02  0.10165167057E+02 -0.14729593344E+00  0.17640309591E+02  0.51100000000E-03 0. -1.
        -11    1    3    3    0    0 -0.75328159921E+01  0.47050811014E+01  0.11657803761E+02  0.14655561871E+02  0.51100000000E-03 0.  1.
         12    1    3    3    0    0 -0.14957112657E+02  0.32305430498E+01  0.24149491533E+01  0.15491404289E+02  0.00000000000E+00 0. -1.
</event>
<event>
 7    1  0.2328615E-009  0.4778727E+02  0.7816164E-02  0.1312668E+00
        -11   -1    0    0    0    0  0.00000000000E+00  0.00000000000E+00  0.45593999997E+02  0.45594000000E+02  0.51100000000E-03 0. -1.
         11   -1    0    0    0    0 -0.00000000000E+00 -0.00000000000E+00 -0.45593999997E+02  0.45594000000E+02  0.51100000000E-03 0.  1.
    9900012    2    1    2    0    0  0.35833073789E+02  0.15787459336E+02 -0.18718179325E+02  0.47787270897E+02  0.19999999326E+02 0.  0.
         12    1    1    2    0    0 -0.35833073789E+02 -0.15787459336E+02  0.18718179325E+02  0.43400729103E+02  0.00000000000E+00 0. -1.
         11    1    3    3    0    0  0.28471708237E+01 -0.15325817870E+01 -0.17257866333E+01  0.36651778126E+01  0.51100000000E-03 0. -1.
        -11    1    3    3    0    0  0.33136707845E+02  0.11907855018E+02 -0.15715664426E+02  0.38559311800E+02  0.51100000000E-03 0.  1.
         12    1    3    3    0    0 -0.15080487873E+00  0.54121861049E+01 -0.12767282648E+01  0.55627812835E+01  0.00000000000E+00 0. -1.
</event>
<event>
 7    1  0.2328615E-009  0.4778727E+02  0.7816164E-02  0.1312668E+00
        -11   -1    0    0    0    0  0.00000000000E+00  0.00000000000E+00  0.45593999997E+02  0.45594000000E+02  0.51100000000E-03 0.  1.
         11   -1    0    0    0    0 -0.00000000000E+00 -0.00000000000E+00 -0.45593999997E+02  0.45594000000E+02  0.51100000000E-03 0. -1.
    9900012    2    1    2    0    0 -0.38266160960E+02 -0.58174090488E+01  0.19633689197E+02  0.47787273346E+02  0.20000010492E+02 0.  0.
         12    1    1    2    0    0  0.38266160960E+02  0.58174090488E+01 -0.19633689197E+02  0.43400726654E+02  0.00000000000E+00 0. -1.
         11    1    3    3    0    0 -0.48236759812E+01 -0.44036543602E+01  0.91878063474E+00  0.65957698422E+01  0.51100000000E-03 0. -1.
        -11    1    3    3    0    0 -0.24576010029E+02 -0.46160052764E+01  0.66396976786E+01  0.25872250756E+02  0.51100000000E-03 0.  1.
         12    1    3    3    0    0 -0.88664749502E+01  0.32022505878E+01  0.12075210883E+02  0.15319252748E+02  0.00000000000E+00 0. -1.
</event>
<event>
 7    1  0.2328615E-009  0.4778730E+02  0.7816164E-02  0.1312668E+00
        -11   -1    0    0    0    0  0.00000000000E+00  0.00000000000E+00  0.45593999997E+02  0.45594000000E+02  0.51100000000E-03 0.  1.
         11   -1    0    0    0    0 -0.00000000000E+00 -0.00000000000E+00 -0.45593999997E+02  0.45594000000E+02  0.51100000000E-03 0. -1.
    9900012    2    1    2    0    0  0.31113569778E+02 -0.44636286184E+01  0.29927287364E+02  0.47787300308E+02  0.20000133425E+02 0.  0.
         12    1    1    2    0    0 -0.31113569778E+02  0.44636286184E+01 -0.29927287364E+02  0.43400699692E+02  0.00000000000E+00 0. -1.
         11    1    3    3    0    0  0.94749189072E+01  0.33372435861E+01  0.49288973144E+01  0.11189517954E+02  0.51100000000E-03 0. -1.
        -11    1    3    3    0    0  0.18785148813E+02 -0.28409476047E+01  0.12200421687E+02  0.22578819474E+02  0.51100000000E-03 0.  1.
         12    1    3    3    0    0  0.28535020571E+01 -0.49599245998E+01  0.12797968362E+02  0.14018962880E+02  0.00000000000E+00 0. -1.
</event>
<event>
 7    1  0.2328615E-009  0.4778727E+02  0.7816164E-02  0.1312668E+00
        -11   -1    0    0    0    0  0.00000000000E+00  0.00000000000E+00  0.45593999997E+02  0.45594000000E+02  0.51100000000E-03 0.  1.
         11   -1    0    0    0    0 -0.00000000000E+00 -0.00000000000E+00 -0.45593999997E+02  0.45594000000E+02  0.51100000000E-03 0. -1.
    9900012    2    1    2    0    0 -0.14920000856E+02 -0.72287340258E+01  0.40109380020E+02  0.47787269744E+02  0.19999994072E+02 0.  0.
         12    1    1    2    0    0  0.14920000856E+02  0.72287340258E+01 -0.40109380020E+02  0.43400730256E+02  0.00000000000E+00 0. -1.
         11    1    3    3    0    0 -0.89728025893E+00  0.16084875191E+01  0.26899954188E+01  0.32601256995E+01  0.51100000000E-03 0.  1.
        -11    1    3    3    0    0 -0.87217328431E+01 -0.61498714596E+01  0.53990203101E+01  0.11959889771E+02  0.51100000000E-03 0. -1.
         12    1    3    3    0    0 -0.53009877543E+01 -0.26873500853E+01  0.32020364291E+02  0.32567254274E+02  0.00000000000E+00 0. -1.
</event>
<event>
 7    1  0.2328615E-009  0.4778727E+02  0.7816164E-02  0.1312668E+00
        -11   -1    0    0    0    0  0.00000000000E+00  0.00000000000E+00  0.45593999997E+02  0.45594000000E+02  0.51100000000E-03 0.  1.
         11   -1    0    0    0    0 -0.00000000000E+00 -0.00000000000E+00 -0.45593999997E+02  0.45594000000E+02  0.51100000000E-03 0. -1.
    9900012    2    1    2    0    0 -0.16447948166E+02 -0.59036799165E+01  0.39727003132E+02  0.47787271742E+02  0.20000003183E+02 0.  0.
         12    1    1    2    0    0  0.16447948166E+02  0.59036799165E+01 -0.39727003132E+02  0.43400728258E+02  0.00000000000E+00 0. -1.
         11    1    3    3    0    0 -0.97458133915E+00 -0.60625796346E+00 -0.90118253713E+00  0.14592764410E+01  0.51100000000E-03 0. -1.
        -11    1    3    3    0    0 -0.22505918192E+01 -0.18185516988E+01 -0.54462748871E+00  0.29443018154E+01  0.51100000000E-03 0.  1.
        -12    1    3    3    0    0 -0.13222775008E+02 -0.34788702542E+01  0.41172813158E+02  0.43383693486E+02  0.00000000000E+00 0.  1.
</event>
<event>
 7    1  0.2500939E-009  0.4778727E+02  0.7816164E-02  0.1312668E+00
        -11   -1    0    0    0    0  0.00000000000E+00  0.00000000000E+00  0.45593999997E+02  0.45594000000E+02  0.51100000000E-03 0.  1.
         11   -1    0    0    0    0 -0.00000000000E+00 -0.00000000000E+00 -0.45593999997E+02  0.45594000000E+02  0.51100000000E-03 0. -1.
    9900012    2    1    2    0    0 -0.10811080809E+02  0.41728695440E+02 -0.50457469880E+01  0.47787273577E+02  0.20000011545E+02 0.  0.
         12    1    1    2    0    0  0.10811080809E+02 -0.41728695440E+02  0.50457469880E+01  0.43400726423E+02  0.00000000000E+00 0. -1.
         11    1    3    3    0    0  0.14583417243E+01  0.41211458990E+01  0.25333611996E+01  0.50525759108E+01  0.51100000000E-03 0.  1.
        -11    1    3    3    0    0 -0.81505482141E+01  0.66880893978E+01  0.35337933347E+00  0.10549258419E+02  0.51100000000E-03 0. -1.
        -12    1    3    3    0    0 -0.41188743193E+01  0.30919460144E+02 -0.79324875211E+01  0.32185439247E+02  0.00000000000E+00 0.  1.
</event>
<event>
 7    1  0.2328615E-009  0.4778725E+02  0.7816164E-02  0.1312668E+00
        -11   -1    0    0    0    0  0.00000000000E+00  0.00000000000E+00  0.45593999997E+02  0.45594000000E+02  0.51100000000E-03 0. -1.
         11   -1    0    0    0    0 -0.00000000000E+00 -0.00000000000E+00 -0.45593999997E+02  0.45594000000E+02  0.51100000000E-03 0.  1.
    9900012    2    1    2    0    0 -0.19142551730E+02 -0.38941962316E+02  0.84358691363E+00  0.47787247073E+02  0.19999890703E+02 0.  0.
         12    1    1    2    0    0  0.19142551730E+02  0.38941962316E+02 -0.84358691363E+00  0.43400752927E+02  0.00000000000E+00 0. -1.
         11    1    3    3    0    0 -0.62063012990E+00 -0.76176741418E+01 -0.53110957099E+01  0.93070875675E+01  0.51100000000E-03 0.  1.
        -11    1    3    3    0    0 -0.25319362120E+01 -0.10044365063E+01 -0.18338860172E+01  0.32837070305E+01  0.51100000000E-03 0. -1.
         12    1    3    3    0    0 -0.15989985388E+02 -0.30319851668E+02  0.79885686408E+01  0.35196452475E+02  0.00000000000E+00 0. -1.
</event>
<event>
 7    1  0.2328615E-009  0.4778727E+02  0.7816164E-02  0.1312668E+00
        -11   -1    0    0    0    0  0.00000000000E+00  0.00000000000E+00  0.45593999997E+02  0.45594000000E+02  0.51100000000E-03 0.  1.
         11   -1    0    0    0    0 -0.00000000000E+00 -0.00000000000E+00 -0.45593999997E+02  0.45594000000E+02  0.51100000000E-03 0. -1.
    9900012    2    1    2    0    0 -0.27810889731E+02  0.33247785785E+02 -0.21823120642E+01  0.47787270361E+02  0.19999996885E+02 0.  0.
         12    1    1    2    0    0  0.27810889731E+02 -0.33247785785E+02  0.21823120642E+01  0.43400729639E+02  0.00000000000E+00 0. -1.
         11    1    3    3    0    0 -0.67351883547E+01  0.11729226389E+02  0.28240752244E+01  0.13817123977E+02  0.51100000000E-03 0. -1.
        -11    1    3    3    0    0 -0.11822857940E+02  0.19959285955E+02  0.28070880620E+00  0.23199824642E+02  0.51100000000E-03 0.  1.
         12    1    3    3    0    0 -0.92528434362E+01  0.15592734403E+01 -0.52870960948E+01  0.10770321742E+02  0.00000000000E+00 0. -1.
</event>
<event>
 7    1  0.2328615E-009  0.4778727E+02  0.7816164E-02  0.1312668E+00
        -11   -1    0    0    0    0  0.00000000000E+00  0.00000000000E+00  0.45593999997E+02  0.45594000000E+02  0.51100000000E-03 0.  1.
         11   -1    0    0    0    0 -0.00000000000E+00 -0.00000000000E+00 -0.45593999997E+02  0.45594000000E+02  0.51100000000E-03 0. -1.
    9900012    2    1    2    0    0 -0.14894121376E+01  0.44906900247E+01  0.43142072115E+02  0.47787273833E+02  0.20000012716E+02 0.  0.
         12    1    1    2    0    0  0.14894121376E+01 -0.44906900247E+01 -0.43142072115E+02  0.43400726167E+02  0.00000000000E+00 0. -1.
         11    1    3    3    0    0 -0.10725318540E+01 -0.19950486891E+01  0.86594562147E+01  0.89507947158E+01  0.51100000000E-03 0. -1.
        -11    1    3    3    0    0  0.31546532600E+01  0.16018123112E+01  0.32162307271E+02  0.32356323171E+02  0.51100000000E-03 0.  1.
         12    1    3    3    0    0 -0.35715335437E+01  0.48839264026E+01  0.23203086292E+01  0.64801559467E+01  0.00000000000E+00 0. -1.
</event>
<event>
 7    1  0.2328615E-009  0.4778727E+02  0.7816164E-02  0.1312668E+00
        -11   -1    0    0    0    0  0.00000000000E+00  0.00000000000E+00  0.45593999997E+02  0.45594000000E+02  0.51100000000E-03 0.  1.
         11   -1    0    0    0    0 -0.00000000000E+00 -0.00000000000E+00 -0.45593999997E+02  0.45594000000E+02  0.51100000000E-03 0. -1.
    9900012    2    1    2    0    0 -0.28962845626E+02  0.18127773905E+02  0.26761181329E+02  0.47787269135E+02  0.19999991295E+02 0.  0.
         12    1    1    2    0    0  0.28962845626E+02 -0.18127773905E+02 -0.26761181329E+02  0.43400730865E+02  0.00000000000E+00 0. -1.
         11    1    3    3    0    0 -0.36811438712E+01 -0.31687382850E+01  0.46116694990E+01  0.66977024678E+01  0.51100000000E-03 0. -1.
        -11    1    3    3    0    0 -0.15999271199E+02  0.12199474483E+02  0.19095166936E+02  0.27738587872E+02  0.51100000000E-03 0.  1.
         12    1    3    3    0    0 -0.92824305557E+01  0.90970377071E+01  0.30543448935E+01  0.13350978795E+02  0.00000000000E+00 0. -1.
</event>
<event>
 7    1  0.2328615E-009  0.4778727E+02  0.7816164E-02  0.1312668E+00
        -11   -1    0    0    0    0  0.00000000000E+00  0.00000000000E+00  0.45593999997E+02  0.45594000000E+02  0.51100000000E-03 0.  1.
         11   -1    0    0    0    0 -0.00000000000E+00 -0.00000000000E+00 -0.45593999997E+02  0.45594000000E+02  0.51100000000E-03 0. -1.
    9900012    2    1    2    0    0  0.16341293543E+02  0.22267860406E+02  0.33477274033E+02  0.47787270071E+02  0.19999995560E+02 0.  0.
         12    1    1    2    0    0 -0.16341293543E+02 -0.22267860406E+02 -0.33477274033E+02  0.43400729929E+02  0.00000000000E+00 0. -1.
         11    1    3    3    0    0  0.26253428021E+01  0.21526400535E+00  0.16317456182E+01  0.30986057258E+01  0.51100000000E-03 0. -1.
        -11    1    3    3    0    0  0.14818824257E+02  0.22413305235E+02  0.33325390570E+02  0.42808123771E+02  0.51100000000E-03 0.  1.
        -12    1    3    3    0    0 -0.11028735155E+01 -0.36070883391E+00 -0.14798621546E+01  0.18805405741E+01  0.00000000000E+00 0.  1.
</event>
<event>
 7    1  0.2328615E-009  0.4778727E+02  0.7816164E-02  0.1312668E+00
        -11   -1    0    0    0    0  0.00000000000E+00  0.00000000000E+00  0.45593999997E+02  0.45594000000E+02  0.51100000000E-03 0.  1.
         11   -1    0    0    0    0 -0.00000000000E+00 -0.00000000000E+00 -0.45593999997E+02  0.45594000000E+02  0.51100000000E-03 0. -1.
    9900012    2    1    2    0    0 -0.86506487380E+01 -0.11718556655E+02  0.40883553025E+02  0.47787271877E+02  0.20000003795E+02 0.  0.
         12    1    1    2    0    0  0.86506487380E+01  0.11718556655E+02 -0.40883553025E+02  0.43400728123E+02  0.00000000000E+00 0. -1.
         11    1    3    3    0    0 -0.21999929347E+01 -0.26266864831E+01  0.11422688773E+02  0.11925488244E+02  0.51100000000E-03 0. -1.
        -11    1    3    3    0    0 -0.84461732649E+01 -0.31642022325E+01  0.28030364925E+02  0.29445736138E+02  0.51100000000E-03 0.  1.
         12    1    3    3    0    0  0.19955174617E+01 -0.59276679392E+01  0.14304993274E+01  0.64160474954E+01  0.00000000000E+00 0. -1.
</event>
<event>
 7    1  0.2328615E-009  0.4778727E+02  0.7816164E-02  0.1312668E+00
        -11   -1    0    0    0    0  0.00000000000E+00  0.00000000000E+00  0.45593999997E+02  0.45594000000E+02  0.51100000000E-03 0.  1.
         11   -1    0    0    0    0 -0.00000000000E+00 -0.00000000000E+00 -0.45593999997E+02  0.45594000000E+02  0.51100000000E-03 0. -1.
    9900012    2    1    2    0    0  0.22390976556E+02  0.32622377596E+02  0.17833898024E+02  0.47787271091E+02  0.20000000211E+02 0.  0.
         12    1    1    2    0    0 -0.22390976556E+02 -0.32622377596E+02 -0.17833898024E+02  0.43400728909E+02  0.00000000000E+00 0. -1.
         11    1    3    3    0    0  0.59809270878E+01  0.36377813872E+01  0.90262991917E+00  0.70583059783E+01  0.51100000000E-03 0. -1.
        -11    1    3    3    0    0  0.19565076108E+02  0.25116522207E+02  0.16070760890E+02  0.35663724521E+02  0.51100000000E-03 0.  1.
         12    1    3    3    0    0 -0.31550266397E+01  0.38680740014E+01  0.86050721472E+00  0.50652405910E+01  0.00000000000E+00 0. -1.
</event>
<event>
 7    1  0.2328615E-009  0.4778727E+02  0.7816164E-02  0.1312668E+00
        -11   -1    0    0    0    0  0.00000000000E+00  0.00000000000E+00  0.45593999997E+02  0.45594000000E+02  0.51100000000E-03 0.  1.
         11   -1    0    0    0    0 -0.00000000000E+00 -0.00000000000E+00 -0.45593999997E+02  0.45594000000E+02  0.51100000000E-03 0. -1.
    9900012    2    1    2    0    0  0.13422914258E+02  0.23578658893E+02  0.33874703056E+02  0.47787270865E+02  0.19999999180E+02 0.  0.
         12    1    1    2    0    0 -0.13422914258E+02 -0.23578658893E+02 -0.33874703056E+02  0.43400729135E+02  0.00000000000E+00 0. -1.
         11    1    3    3    0    0  0.12090390062E+02  0.75856764446E+01  0.16309737578E+02  0.21673199097E+02  0.51100000000E-03 0. -1.
        -11    1    3    3    0    0  0.21502457817E+01  0.49548667426E+01  0.57922935127E-01  0.54016309283E+01  0.51100000000E-03 0.  1.
        -12    1    3    3    0    0 -0.81772158621E+00  0.11038115705E+02  0.17507042543E+02  0.20712440839E+02  0.00000000000E+00 0.  1.
</event>
<event>
 7    1  0.2328615E-009  0.4778727E+02  0.7816164E-02  0.1312668E+00
        -11   -1    0    0    0    0  0.00000000000E+00  0.00000000000E+00  0.45593999997E+02  0.45594000000E+02  0.51100000000E-03 0. -1.
         11   -1    0    0    0    0 -0.00000000000E+00 -0.00000000000E+00 -0.45593999997E+02  0.45594000000E+02  0.51100000000E-03 0.  1.
    9900012    2    1    2    0    0 -0.28499572184E+02 -0.28251858029E+02  0.16529677742E+02  0.47787270248E+02  0.19999996367E+02 0.  0.
         12    1    1    2    0    0  0.28499572184E+02  0.28251858029E+02 -0.16529677742E+02  0.43400729752E+02  0.00000000000E+00 0. -1.
         11    1    3    3    0    0 -0.40737791476E+01  0.78793792305E+00  0.71031177610E+01  0.82262266503E+01  0.51100000000E-03 0. -1.
        -11    1    3    3    0    0 -0.84369096204E+01 -0.97981219655E+01  0.30899426977E+00  0.12933681445E+02  0.51100000000E-03 0.  1.
         12    1    3    3    0    0 -0.15988883416E+02 -0.19241673987E+02  0.91175657110E+01  0.26627362153E+02  0.00000000000E+00 0. -1.
</event>
<event>
 7    1  0.2328615E-009  0.4778726E+02  0.7816164E-02  0.1312668E+00
        -11   -1    0    0    0    0  0.00000000000E+00  0.00000000000E+00  0.45593999997E+02  0.45594000000E+02  0.51100000000E-03 0.  1.
         11   -1    0    0    0    0 -0.00000000000E+00 -0.00000000000E+00 -0.45593999997E+02  0.45594000000E+02  0.51100000000E-03 0. -1.
    9900012    2    1    2    0    0 -0.13699429825E+02  0.26623651983E+02  0.31418642488E+02  0.47787259013E+02  0.19999945143E+02 0.  0.
         12    1    1    2    0    0  0.13699429825E+02 -0.26623651983E+02 -0.31418642488E+02  0.43400740987E+02  0.00000000000E+00 0. -1.
         11    1    3    3    0    0 -0.64483395400E+01 -0.50808634162E+00  0.62459031921E+01  0.89916929162E+01  0.51100000000E-03 0. -1.
        -11    1    3    3    0    0 -0.12117175093E+00  0.73011250921E+01  0.22112954414E+01  0.76296092950E+01  0.51100000000E-03 0.  1.
        -12    1    3    3    0    0 -0.71299185340E+01  0.19830613233E+02  0.22961443854E+02  0.31165956802E+02  0.00000000000E+00 0.  1.
</event>
<event>
 7    1  0.2328615E-009  0.4778727E+02  0.7816164E-02  0.1312668E+00
        -11   -1    0    0    0    0  0.00000000000E+00  0.00000000000E+00  0.45593999997E+02  0.45594000000E+02  0.51100000000E-03 0.  1.
         11   -1    0    0    0    0 -0.00000000000E+00 -0.00000000000E+00 -0.45593999997E+02  0.45594000000E+02  0.51100000000E-03 0. -1.
    9900012    2    1    2    0    0  0.12073030709E+02  0.16513039786E+01  0.41654990911E+02  0.47787272550E+02  0.20000006866E+02 0.  0.
         12    1    1    2    0    0 -0.12073030709E+02 -0.16513039786E+01 -0.41654990911E+02  0.43400727450E+02  0.00000000000E+00 0. -1.
         11    1    3    3    0    0 -0.24135565551E+00 -0.44740602566E+01  0.18597487242E+02  0.19129610548E+02  0.51100000000E-03 0. -1.
        -11    1    3    3    0    0  0.43390214038E+01  0.35244989459E+01  0.18032355124E+02  0.18878957363E+02  0.51100000000E-03 0.  1.
         12    1    3    3    0    0  0.79753649612E+01  0.26008652893E+01  0.50251485454E+01  0.97787046392E+01  0.00000000000E+00 0. -1.
</event>
<event>
 7    1  0.2328615E-009  0.4778727E+02  0.7816164E-02  0.1312668E+00
        -11   -1    0    0    0    0  0.00000000000E+00  0.00000000000E+00  0.45593999997E+02  0.45594000000E+02  0.51100000000E-03 0.  1.
         11   -1    0    0    0    0 -0.00000000000E+00 -0.00000000000E+00 -0.45593999997E+02  0.45594000000E+02  0.51100000000E-03 0. -1.
    9900012    2    1    2    0    0 -0.55236608467E+01  0.20205487679E+02  0.38011194447E+02  0.47787268845E+02  0.19999989974E+02 0.  0.
         12    1    1    2    0    0  0.55236608467E+01 -0.20205487679E+02 -0.38011194447E+02  0.43400731155E+02  0.00000000000E+00 0. -1.
         11    1    3    3    0    0  0.45117342043E+01  0.12361411536E+02  0.18909675774E+02  0.23037709930E+02  0.51100000000E-03 0. -1.
        -11    1    3    3    0    0 -0.15767208786E+01  0.55722863921E+01  0.32535902256E+01  0.66424599346E+01  0.51100000000E-03 0.  1.
        -12    1    3    3    0    0 -0.84586741724E+01  0.22717897507E+01  0.15847928448E+02  0.18107098981E+02  0.00000000000E+00 0.  1.
</event>
<event>
 7    1  0.2328615E-009  0.4778727E+02  0.7816164E-02  0.1312668E+00
        -11   -1    0    0    0    0  0.00000000000E+00  0.00000000000E+00  0.45593999997E+02  0.45594000000E+02  0.51100000000E-03 0.  1.
         11   -1    0    0    0    0 -0.00000000000E+00 -0.00000000000E+00 -0.45593999997E+02  0.45594000000E+02  0.51100000000E-03 0. -1.
    9900012    2    1    2    0    0  0.11663909510E+02 -0.12713995427E+02  0.39823747158E+02  0.47787270715E+02  0.19999998498E+02 0.  0.
         12    1    1    2    0    0 -0.11663909510E+02  0.12713995427E+02 -0.39823747158E+02  0.43400729285E+02  0.00000000000E+00 0. -1.
         11    1    3    3    0    0  0.62321858972E+01 -0.11745826840E+02  0.14234277300E+02  0.19478686807E+02  0.51100000000E-03 0. -1.
        -11    1    3    3    0    0  0.27744279792E+01  0.80734689226E+00  0.39985632241E+00  0.29170438729E+01  0.51100000000E-03 0.  1.
         12    1    3    3    0    0  0.26572956340E+01 -0.17755154794E+01  0.25189613535E+02  0.25391540035E+02  0.00000000000E+00 0. -1.
</event>
<event>
 7    1  0.2328615E-009  0.4778729E+02  0.7816164E-02  0.1312668E+00
        -11   -1    0    0    0    0  0.00000000000E+00  0.00000000000E+00  0.45593999997E+02  0.45594000000E+02  0.51100000000E-03 0.  1.
         11   -1    0    0    0    0 -0.00000000000E+00 -0.00000000000E+00 -0.45593999997E+02  0.45594000000E+02  0.51100000000E-03 0. -1.
    9900012    2    1    2    0    0  0.18846233565E+02  0.25226726307E+01  0.39013807669E+02  0.47787290494E+02  0.20000088679E+02 0.  0.
         12    1    1    2    0    0 -0.18846233565E+02 -0.25226726307E+01 -0.39013807669E+02  0.43400709506E+02  0.00000000000E+00 0. -1.
         11    1    3    3    0    0  0.16970531812E+02  0.18412512585E+01  0.36145412941E+02  0.39973491630E+02  0.51100000000E-03 0. -1.
        -11    1    3    3    0    0  0.26043046609E+01  0.20855329777E+01  0.44599436616E+01  0.55698247992E+01  0.51100000000E-03 0.  1.
         12    1    3    3    0    0 -0.72860290777E+00 -0.14041116055E+01 -0.15915489333E+01  0.22439740652E+01  0.00000000000E+00 0. -1.
</event>
<event>
 7    1  0.2599002E-009  0.4778727E+02  0.7816164E-02  0.1312668E+00
        -11   -1    0    0    0    0  0.00000000000E+00  0.00000000000E+00  0.45593999997E+02  0.45594000000E+02  0.51100000000E-03 0.  1.
         11   -1    0    0    0    0 -0.00000000000E+00 -0.00000000000E+00 -0.45593999997E+02  0.45594000000E+02  0.51100000000E-03 0. -1.
    9900012    2    1    2    0    0  0.67168511471E-01  0.43201962478E+02  0.41484098869E+01  0.47787269843E+02  0.19999994523E+02 0.  0.
         12    1    1    2    0    0 -0.67168511471E-01 -0.43201962478E+02 -0.41484098869E+01  0.43400730157E+02  0.00000000000E+00 0. -1.
         11    1    3    3    0    0  0.21424424696E+01  0.15624883815E+01  0.29858148661E+01  0.39933094488E+01  0.51100000000E-03 0. -1.
        -11    1    3    3    0    0  0.51027744446E+01  0.21162464538E+02  0.31871388103E+01  0.22001046939E+02  0.51100000000E-03 0.  1.
        -12    1    3    3    0    0 -0.71780484027E+01  0.20477009558E+02 -0.20245437895E+01  0.21792913456E+02  0.00000000000E+00 0.  1.
</event>
<event>
 7    1  0.2328615E-009  0.4778728E+02  0.7816164E-02  0.1312668E+00
        -11   -1    0    0    0    0  0.00000000000E+00  0.00000000000E+00  0.45593999997E+02  0.45594000000E+02  0.51100000000E-03 0.  1.
         11   -1    0    0    0    0 -0.00000000000E+00 -0.00000000000E+00 -0.45593999997E+02  0.45594000000E+02  0.51100000000E-03 0. -1.
    9900012    2    1    2    0    0 -0.31531034813E+02 -0.10197476193E+02  0.28025482976E+02  0.47787281421E+02  0.20000047313E+02 0.  0.
         12    1    1    2    0    0  0.31531034813E+02  0.10197476193E+02 -0.28025482976E+02  0.43400718579E+02  0.00000000000E+00 0. -1.
         11    1    3    3    0    0 -0.78304334269E+01 -0.11161349390E+02  0.10165386022E+02  0.17006659904E+02  0.51100000000E-03 0.  1.
        -11    1    3    3    0    0  0.12125173402E+00  0.11570572364E+01  0.34942514885E+00  0.12147352086E+01  0.51100000000E-03 0. -1.
        -12    1    3    3    0    0 -0.23821853121E+02 -0.19318403958E+00  0.17510671805E+02  0.29565886309E+02  0.00000000000E+00 0.  1.
</event>
<event>
 7    1  0.2328615E-009  0.4778727E+02  0.7816164E-02  0.1312668E+00
        -11   -1    0    0    0    0  0.00000000000E+00  0.00000000000E+00  0.45593999997E+02  0.45594000000E+02  0.51100000000E-03 0. -1.
         11   -1    0    0    0    0 -0.00000000000E+00 -0.00000000000E+00 -0.45593999997E+02  0.45594000000E+02  0.51100000000E-03 0.  1.
    9900012    2    1    2    0    0 -0.36258674152E+02 -0.13480948113E+02 -0.19677289041E+02  0.47787272849E+02  0.20000008226E+02 0.  0.
         12    1    1    2    0    0  0.36258674152E+02  0.13480948113E+02  0.19677289041E+02  0.43400727151E+02  0.00000000000E+00 0. -1.
         11    1    3    3    0    0 -0.61421582131E+01  0.20473556619E+01 -0.10545486877E+02  0.12374371356E+02  0.51100000000E-03 0. -1.
        -11    1    3    3    0    0 -0.21249309823E+01 -0.23672757888E+01 -0.71056886891E-01  0.31818824117E+01  0.51100000000E-03 0.  1.
        -12    1    3    3    0    0 -0.27991584956E+02 -0.13161027986E+02 -0.90607452772E+01  0.32231019081E+02  0.00000000000E+00 0.  1.
</event>
<event>
 7    1  0.2328615E-009  0.4778727E+02  0.7816164E-02  0.1312668E+00
        -11   -1    0    0    0    0  0.00000000000E+00  0.00000000000E+00  0.45593999997E+02  0.45594000000E+02  0.51100000000E-03 0.  1.
         11   -1    0    0    0    0 -0.00000000000E+00 -0.00000000000E+00 -0.45593999997E+02  0.45594000000E+02  0.51100000000E-03 0. -1.
    9900012    2    1    2    0    0  0.83505262465E+01  0.30162535184E+02  0.30068474303E+02  0.47787274612E+02  0.20000016265E+02 0.  0.
         12    1    1    2    0    0 -0.83505262465E+01 -0.30162535184E+02 -0.30068474303E+02  0.43400725388E+02  0.00000000000E+00 0. -1.
         11    1    3    3    0    0  0.24830477285E+01  0.23231198513E+02  0.13178578004E+02  0.26824038265E+02  0.51100000000E-03 0.  1.
        -11    1    3    3    0    0  0.11168798586E+01  0.49471635815E+01  0.24488635005E+01  0.56319428998E+01  0.51100000000E-03 0. -1.
        -12    1    3    3    0    0  0.47505986594E+01  0.19841730895E+01  0.14441032799E+02  0.15331293447E+02  0.00000000000E+00 0.  1.
</event>
<event>
 7    1  0.2328615E-009  0.4778727E+02  0.7816164E-02  0.1312668E+00
        -11   -1    0    0    0    0  0.00000000000E+00  0.00000000000E+00  0.45593999997E+02  0.45594000000E+02  0.51100000000E-03 0.  1.
         11   -1    0    0    0    0 -0.00000000000E+00 -0.00000000000E+00 -0.45593999997E+02  0.45594000000E+02  0.51100000000E-03 0. -1.
    9900012    2    1    2    0    0  0.22833153262E+02 -0.76577617841E+01  0.36105808758E+02  0.47787266947E+02  0.19999981318E+02 0.  0.
         12    1    1    2    0    0 -0.22833153262E+02  0.76577617841E+01 -0.36105808758E+02  0.43400733053E+02  0.00000000000E+00 0. -1.
         11    1    3    3    0    0 -0.11449917912E+01  0.15859558049E+01  0.12141895118E+02  0.12298450282E+02  0.51100000000E-03 0. -1.
        -11    1    3    3    0    0  0.47611055519E+01 -0.39738264241E+01  0.47964715038E+01  0.78399975557E+01  0.51100000000E-03 0.  1.
        -12    1    3    3    0    0  0.19217039502E+02 -0.52698911649E+01  0.19167442137E+02  0.27648819110E+02  0.00000000000E+00 0.  1.
</event>
<event>
 7    1  0.2328615E-009  0.4778727E+02  0.7816164E-02  0.1312668E+00
        -11   -1    0    0    0    0  0.00000000000E+00  0.00000000000E+00  0.45593999997E+02  0.45594000000E+02  0.51100000000E-03 0.  1.
         11   -1    0    0    0    0 -0.00000000000E+00 -0.00000000000E+00 -0.45593999997E+02  0.45594000000E+02  0.51100000000E-03 0. -1.
    9900012    2    1    2    0    0 -0.34411604544E+02 -0.19797071459E+02  0.17536833003E+02  0.47787273308E+02  0.20000010321E+02 0.  0.
         12    1    1    2    0    0  0.34411604544E+02  0.19797071459E+02 -0.17536833003E+02  0.43400726692E+02  0.00000000000E+00 0. -1.
         11    1    3    3    0    0 -0.89819784640E+01  0.11653485403E+01  0.65687544365E+01  0.11188498981E+02  0.51100000000E-03 0. -1.
        -11    1    3    3    0    0 -0.45666786656E+01 -0.43774784427E+00 -0.14433935719E+01  0.48093203755E+01  0.51100000000E-03 0.  1.
        -12    1    3    3    0    0 -0.20862947414E+02 -0.20524672155E+02  0.12411472139E+02  0.31789453951E+02  0.00000000000E+00 0.  1.
</event>
<event>
 7    1  0.3480874E-009  0.4778727E+02  0.7816164E-02  0.1312668E+00
        -11   -1    0    0    0    0  0.00000000000E+00  0.00000000000E+00  0.45593999997E+02  0.45594000000E+02  0.51100000000E-03 0. -1.
         11   -1    0    0    0    0 -0.00000000000E+00 -0.00000000000E+00 -0.45593999997E+02  0.45594000000E+02  0.51100000000E-03 0.  1.
    9900012    2    1    2    0    0 -0.18017215785E+02  0.20229869794E+02 -0.33908046860E+02  0.47787270301E+02  0.19999996612E+02 0.  0.
         12    1    1    2    0    0  0.18017215785E+02 -0.20229869794E+02  0.33908046860E+02  0.43400729699E+02  0.00000000000E+00 0. -1.
         11    1    3    3    0    0  0.25649630282E+01  0.24780053364E+00 -0.22442653353E+01  0.34171870884E+01  0.51100000000E-03 0. -1.
        -11    1    3    3    0    0 -0.64702261451E+01  0.12914665764E+02 -0.10007053140E+02  0.17572522044E+02  0.51100000000E-03 0.  1.
        -12    1    3    3    0    0 -0.14111952668E+02  0.70674034960E+01 -0.21656728384E+02  0.26797561169E+02  0.00000000000E+00 0.  1.
</event>
<event>
 7    1  0.2328615E-009  0.4778726E+02  0.7816164E-02  0.1312668E+00
        -11   -1    0    0    0    0  0.00000000000E+00  0.00000000000E+00  0.45593999997E+02  0.45594000000E+02  0.51100000000E-03 0. -1.
         11   -1    0    0    0    0 -0.00000000000E+00 -0.00000000000E+00 -0.45593999997E+02  0.45594000000E+02  0.51100000000E-03 0.  1.
    9900012    2    1    2    0    0 -0.25486441313E+02 -0.34658511600E+02 -0.57317428612E+01  0.47787262756E+02  0.19999962208E+02 0.  0.
         12    1    1    2    0    0  0.25486441313E+02  0.34658511600E+02  0.57317428612E+01  0.43400737244E+02  0.00000000000E+00 0. -1.
         11    1    3    3    0    0 -0.15490062909E+02 -0.25766498933E+02  0.31676654005E+01  0.30230590807E+02  0.51100000000E-03 0. -1.
        -11    1    3    3    0    0 -0.78219391261E+01 -0.60020072918E+01 -0.24449221707E+01  0.10157975581E+02  0.51100000000E-03 0.  1.
         12    1    3    3    0    0 -0.21744392778E+01 -0.28900053754E+01 -0.64544860910E+01  0.73986963677E+01  0.00000000000E+00 0. -1.
</event>
<event>
 7    1  0.2328615E-009  0.4778727E+02  0.7816164E-02  0.1312668E+00
        -11   -1    0    0    0    0  0.00000000000E+00  0.00000000000E+00  0.45593999997E+02  0.45594000000E+02  0.51100000000E-03 0.  1.
         11   -1    0    0    0    0 -0.00000000000E+00 -0.00000000000E+00 -0.45593999997E+02  0.45594000000E+02  0.51100000000E-03 0. -1.
    9900012    2    1    2    0    0  0.36682512937E+02 -0.22940425962E+01  0.23081457739E+02  0.47787273299E+02  0.20000010280E+02 0.  0.
         12    1    1    2    0    0 -0.36682512937E+02  0.22940425962E+01 -0.23081457739E+02  0.43400726701E+02  0.00000000000E+00 0. -1.
         11    1    3    3    0    0  0.81909133522E+01  0.24390613730E+00 -0.22500627700E+01  0.84978429309E+01  0.51100000000E-03 0. -1.
        -11    1    3    3    0    0  0.63176135484E+01 -0.43956571812E+01  0.52540222244E+01  0.93187334331E+01  0.51100000000E-03 0.  1.
        -12    1    3    3    0    0  0.22173986036E+02  0.18577084477E+01  0.20077498285E+02  0.29970696935E+02  0.00000000000E+00 0.  1.
</event>
<event>
 7    1  0.2328615E-009  0.4778727E+02  0.7816164E-02  0.1312668E+00
        -11   -1    0    0    0    0  0.00000000000E+00  0.00000000000E+00  0.45593999997E+02  0.45594000000E+02  0.51100000000E-03 0.  1.
         11   -1    0    0    0    0 -0.00000000000E+00 -0.00000000000E+00 -0.45593999997E+02  0.45594000000E+02  0.51100000000E-03 0. -1.
    9900012    2    1    2    0    0  0.32138219556E+02 -0.29141912525E+02 -0.12275506916E+01  0.47787273019E+02  0.20000009001E+02 0.  0.
         12    1    1    2    0    0 -0.32138219556E+02  0.29141912525E+02  0.12275506916E+01  0.43400726981E+02  0.00000000000E+00 0. -1.
         11    1    3    3    0    0  0.73509315119E+01 -0.40234783893E+01 -0.31864710965E+00  0.83860663415E+01  0.51100000000E-03 0. -1.
        -11    1    3    3    0    0  0.26781763511E+02 -0.22688756522E+02  0.19466335840E+01  0.35154401031E+02  0.51100000000E-03 0.  1.
         12    1    3    3    0    0 -0.19944754668E+01 -0.24296776136E+01 -0.28555371659E+01  0.42468056465E+01  0.00000000000E+00 0. -1.
</event>
<event>
 7    1  0.2328615E-009  0.4778729E+02  0.7816164E-02  0.1312668E+00
        -11   -1    0    0    0    0  0.00000000000E+00  0.00000000000E+00  0.45593999997E+02  0.45594000000E+02  0.51100000000E-03 0.  1.
         11   -1    0    0    0    0 -0.00000000000E+00 -0.00000000000E+00 -0.45593999997E+02  0.45594000000E+02  0.51100000000E-03 0. -1.
    9900012    2    1    2    0    0  0.20704522419E+02  0.12495353982E+02  0.36039018291E+02  0.47787286191E+02  0.20000069060E+02 0.  0.
         12    1    1    2    0    0 -0.20704522419E+02 -0.12495353982E+02 -0.36039018291E+02  0.43400713809E+02  0.00000000000E+00 0. -1.
         11    1    3    3    0    0  0.79532628632E+00  0.12695992847E+01  0.16908463788E+02  0.16974703949E+02  0.51100000000E-03 0. -1.
        -11    1    3    3    0    0  0.99915283845E+01  0.29521957567E+01  0.12569672170E+02  0.16326137264E+02  0.51100000000E-03 0.  1.
         12    1    3    3    0    0  0.99176677483E+01  0.82735589405E+01  0.65608823330E+01  0.14486444978E+02  0.00000000000E+00 0. -1.
</event>
<event>
 7    1  0.2328615E-009  0.4778727E+02  0.7816164E-02  0.1312668E+00
        -11   -1    0    0    0    0  0.00000000000E+00  0.00000000000E+00  0.45593999997E+02  0.45594000000E+02  0.51100000000E-03 0. -1.
         11   -1    0    0    0    0 -0.00000000000E+00 -0.00000000000E+00 -0.45593999997E+02  0.45594000000E+02  0.51100000000E-03 0.  1.
    9900012    2    1    2    0    0  0.21183070801E+02 -0.22414169081E+02 -0.30536954111E+02  0.47787273848E+02  0.20000012781E+02 0.  0.
         12    1    1    2    0    0 -0.21183070801E+02  0.22414169081E+02  0.30536954111E+02  0.43400726152E+02  0.00000000000E+00 0. -1.
         11    1    3    3    0    0  0.51877693258E+01 -0.31680208182E+01 -0.58363459960E+01  0.84268761311E+01  0.51100000000E-03 0. -1.
        -11    1    3    3    0    0  0.75934775416E+01 -0.17278331824E+02 -0.78736672327E+01  0.20449848110E+02  0.51100000000E-03 0.  1.
        -12    1    3    3    0    0  0.84018239339E+01 -0.19678164396E+01 -0.16826940882E+02  0.18910549606E+02  0.00000000000E+00 0.  1.
</event>
<event>
 7    1  0.2328615E-009  0.4778727E+02  0.7816164E-02  0.1312668E+00
        -11   -1    0    0    0    0  0.00000000000E+00  0.00000000000E+00  0.45593999997E+02  0.45594000000E+02  0.51100000000E-03 0.  1.
         11   -1    0    0    0    0 -0.00000000000E+00 -0.00000000000E+00 -0.45593999997E+02  0.45594000000E+02  0.51100000000E-03 0. -1.
    9900012    2    1    2    0    0 -0.16643786637E+02  0.97103057516E+01  0.38888527210E+02  0.47787271665E+02  0.20000002830E+02 0.  0.
         12    1    1    2    0    0  0.16643786637E+02 -0.97103057516E+01 -0.38888527210E+02  0.43400728335E+02  0.00000000000E+00 0. -1.
         11    1    3    3    0    0 -0.26714367916E+01 -0.24778720641E+01  0.66798649267E+01  0.76090091469E+01  0.51100000000E-03 0. -1.
        -11    1    3    3    0    0  0.28150320025E+01 -0.12374748873E+00  0.18627650175E+01  0.33778117751E+01  0.51100000000E-03 0.  1.
        -12    1    3    3    0    0 -0.16787381848E+02  0.12311925304E+02  0.30345897266E+02  0.36800450743E+02  0.00000000000E+00 0.  1.
</event>
<event>
 7    1  0.2328615E-009  0.4778727E+02  0.7816164E-02  0.1312668E+00
        -11   -1    0    0    0    0  0.00000000000E+00  0.00000000000E+00  0.45593999997E+02  0.45594000000E+02  0.51100000000E-03 0.  1.
         11   -1    0    0    0    0 -0.00000000000E+00 -0.00000000000E+00 -0.45593999997E+02  0.45594000000E+02  0.51100000000E-03 0. -1.
    9900012    2    1    2    0    0  0.17655643507E+01  0.26894435469E+02  0.34017582142E+02  0.47787265312E+02  0.19999973864E+02 0.  0.
         12    1    1    2    0    0 -0.17655643507E+01 -0.26894435469E+02 -0.34017582142E+02  0.43400734688E+02  0.00000000000E+00 0. -1.
         11    1    3    3    0    0 -0.27929852390E+01 -0.41626261403E+00  0.30584562600E+01  0.41627149872E+01  0.51100000000E-03 0. -1.
        -11    1    3    3    0    0 -0.39497678194E+01  0.14248172657E+02  0.11750783275E+02  0.18886291265E+02  0.51100000000E-03 0.  1.
        -12    1    3    3    0    0  0.85083174091E+01  0.13062525426E+02  0.19208342606E+02  0.24738259060E+02  0.00000000000E+00 0.  1.
</event>
<event>
 7    1  0.2328615E-009  0.4778727E+02  0.7816164E-02  0.1312668E+00
        -11   -1    0    0    0    0  0.00000000000E+00  0.00000000000E+00  0.45593999997E+02  0.45594000000E+02  0.51100000000E-03 0. -1.
         11   -1    0    0    0    0 -0.00000000000E+00 -0.00000000000E+00 -0.45593999997E+02  0.45594000000E+02  0.51100000000E-03 0.  1.
    9900012    2    1    2    0    0 -0.35977995956E+02 -0.11402942663E+02 -0.21428488647E+02  0.47787269361E+02  0.19999992323E+02 0.  0.
         12    1    1    2    0    0  0.35977995956E+02  0.11402942663E+02  0.21428488647E+02  0.43400730639E+02  0.00000000000E+00 0. -1.
         11    1    3    3    0    0 -0.25528906088E+01 -0.10052147300E+01  0.49296385625E+00  0.27876012517E+01  0.51100000000E-03 0. -1.
        -11    1    3    3    0    0 -0.21125583642E+02 -0.10426401991E+02 -0.22647259432E+02  0.32678716357E+02  0.51100000000E-03 0.  1.
        -12    1    3    3    0    0 -0.12299521705E+02  0.28674058523E-01  0.72580692943E+00  0.12320951752E+02  0.00000000000E+00 0.  1.
</event>
<event>
 7    1  0.2328615E-009  0.4778727E+02  0.7816164E-02  0.1312668E+00
        -11   -1    0    0    0    0  0.00000000000E+00  0.00000000000E+00  0.45593999997E+02  0.45594000000E+02  0.51100000000E-03 0.  1.
         11   -1    0    0    0    0 -0.00000000000E+00 -0.00000000000E+00 -0.45593999997E+02  0.45594000000E+02  0.51100000000E-03 0. -1.
    9900012    2    1    2    0    0 -0.40785858796E+02 -0.13709937370E+01  0.14773540152E+02  0.47787269704E+02  0.19999993889E+02 0.  0.
         12    1    1    2    0    0  0.40785858796E+02  0.13709937370E+01 -0.14773540152E+02  0.43400730296E+02  0.00000000000E+00 0. -1.
         11    1    3    3    0    0 -0.21218950546E+02  0.86461400855E+00  0.14016223942E+02  0.25444959295E+02  0.51100000000E-03 0. -1.
        -11    1    3    3    0    0 -0.14613908931E+02  0.91017167732E+00  0.45771203022E+01  0.15340950989E+02  0.51100000000E-03 0.  1.
         12    1    3    3    0    0 -0.49529993187E+01 -0.31457794228E+01 -0.38198040916E+01  0.70013594198E+01  0.00000000000E+00 0. -1.
</event>
<event>
 7    1  0.1565061E-008  0.4778727E+02  0.7816164E-02  0.1312668E+00
        -11   -1    0    0    0    0  0.00000000000E+00  0.00000000000E+00  0.45593999997E+02  0.45594000000E+02  0.51100000000E-03 0. -1.
         11   -1    0    0    0    0 -0.00000000000E+00 -0.00000000000E+00 -0.45593999997E+02  0.45594000000E+02  0.51100000000E-03 0.  1.
    9900012    2    1    2    0    0  0.22648287713E+02 -0.19395677485E+02 -0.31535469301E+02  0.47787273445E+02  0.20000010946E+02 0.  0.
         12    1    1    2    0    0 -0.22648287713E+02  0.19395677485E+02  0.31535469301E+02  0.43400726555E+02  0.00000000000E+00 0. -1.
         11    1    3    3    0    0 -0.10787927824E+01 -0.30861354446E+01 -0.34483195124E+01  0.47517295347E+01  0.51100000000E-03 0. -1.
        -11    1    3    3    0    0  0.97914796152E+01 -0.17547443623E+01 -0.21265222705E+01  0.10172231715E+02  0.51100000000E-03 0.  1.
        -12    1    3    3    0    0  0.13935600881E+02 -0.14554797678E+02 -0.25960627518E+02  0.32863312196E+02  0.00000000000E+00 0.  1.
</event>
<event>
 7    1  0.2328615E-009  0.4778727E+02  0.7816164E-02  0.1312668E+00
        -11   -1    0    0    0    0  0.00000000000E+00  0.00000000000E+00  0.45593999997E+02  0.45594000000E+02  0.51100000000E-03 0.  1.
         11   -1    0    0    0    0 -0.00000000000E+00 -0.00000000000E+00 -0.45593999997E+02  0.45594000000E+02  0.51100000000E-03 0. -1.
    9900012    2    1    2    0    0  0.22126071695E+02 -0.31514136611E+02  0.20022968652E+02  0.47787272718E+02  0.20000007630E+02 0.  0.
         12    1    1    2    0    0 -0.22126071695E+02  0.31514136611E+02 -0.20022968652E+02  0.43400727282E+02  0.00000000000E+00 0. -1.
         11    1    3    3    0    0  0.51205980805E+00  0.12127185282E+01 -0.92455578446E+00  0.16086314479E+01  0.51100000000E-03 0. -1.
        -11    1    3    3    0    0  0.10826226967E+02 -0.93809296157E+01  0.25316084695E+01  0.14547098422E+02  0.51100000000E-03 0.  1.
         12    1    3    3    0    0  0.10787784919E+02 -0.23345925524E+02  0.18415915967E+02  0.31631542848E+02  0.00000000000E+00 0. -1.
</event>
<event>
 7    1  0.2328615E-009  0.4778727E+02  0.7816164E-02  0.1312668E+00
        -11   -1    0    0    0    0  0.00000000000E+00  0.00000000000E+00  0.45593999997E+02  0.45594000000E+02  0.51100000000E-03 0. -1.
         11   -1    0    0    0    0 -0.00000000000E+00 -0.00000000000E+00 -0.45593999997E+02  0.45594000000E+02  0.51100000000E-03 0.  1.
    9900012    2    1    2    0    0  0.36353613225E+02  0.23636964917E+02 -0.18253068873E+01  0.47787273621E+02  0.20000011747E+02 0.  0.
         12    1    1    2    0    0 -0.36353613225E+02 -0.23636964917E+02  0.18253068873E+01  0.43400726379E+02  0.00000000000E+00 0. -1.
         11    1    3    3    0    0  0.14403284108E+01  0.36763634733E+01 -0.78169127135E+00  0.40250758780E+01  0.51100000000E-03 0. -1.
        -11    1    3    3    0    0  0.69097970877E+01 -0.18253636647E+01 -0.39459044480E+01  0.81637865281E+01  0.51100000000E-03 0.  1.
        -12    1    3    3    0    0  0.28003487727E+02  0.21785965108E+02  0.29022888321E+01  0.35598411215E+02  0.00000000000E+00 0.  1.
</event>
<event>
 7    1  0.2328615E-009  0.4778723E+02  0.7816164E-02  0.1312668E+00
        -11   -1    0    0    0    0  0.00000000000E+00  0.00000000000E+00  0.45593999997E+02  0.45594000000E+02  0.51100000000E-03 0.  1.
         11   -1    0    0    0    0 -0.00000000000E+00 -0.00000000000E+00 -0.45593999997E+02  0.45594000000E+02  0.51100000000E-03 0. -1.
    9900012    2    1    2    0    0 -0.13087747388E+02 -0.18215604089E+02  0.37155477485E+02  0.47787229602E+02  0.19999811046E+02 0.  0.
         12    1    1    2    0    0  0.13087747388E+02  0.18215604089E+02 -0.37155477485E+02  0.43400770398E+02  0.00000000000E+00 0. -1.
         11    1    3    3    0    0 -0.97865516701E+01 -0.13816102182E+02  0.14793360687E+02  0.22483433763E+02  0.51100000000E-03 0. -1.
        -11    1    3    3    0    0 -0.42549049916E+01 -0.74789167253E+01  0.16785912698E+02  0.18862801415E+02  0.51100000000E-03 0.  1.
         12    1    3    3    0    0  0.95370927388E+00  0.30794148183E+01  0.55762040998E+01  0.64409944236E+01  0.00000000000E+00 0. -1.
</event>
<event>
 7    1  0.2328615E-009  0.4778727E+02  0.7816164E-02  0.1312668E+00
        -11   -1    0    0    0    0  0.00000000000E+00  0.00000000000E+00  0.45593999997E+02  0.45594000000E+02  0.51100000000E-03 0.  1.
         11   -1    0    0    0    0 -0.00000000000E+00 -0.00000000000E+00 -0.45593999997E+02  0.45594000000E+02  0.51100000000E-03 0. -1.
    9900012    2    1    2    0    0 -0.22269078859E+02 -0.28300737080E+02  0.24223540785E+02  0.47787268202E+02  0.19999987038E+02 0.  0.
         12    1    1    2    0    0  0.22269078859E+02  0.28300737080E+02 -0.24223540785E+02  0.43400731798E+02  0.00000000000E+00 0. -1.
         11    1    3    3    0    0 -0.96738415563E+01 -0.19037149452E+02  0.15177030257E+02  0.26198063237E+02  0.51100000000E-03 0. -1.
        -11    1    3    3    0    0 -0.12222837351E+01 -0.68239680929E+01  0.68616437367E+01  0.97541105742E+01  0.51100000000E-03 0.  1.
         12    1    3    3    0    0 -0.11372953568E+02 -0.24396195352E+01  0.21848667910E+01  0.11835094390E+02  0.00000000000E+00 0. -1.
</event>
<event>
 7    1  0.2328615E-009  0.4778729E+02  0.7816164E-02  0.1312668E+00
        -11   -1    0    0    0    0  0.00000000000E+00  0.00000000000E+00  0.45593999997E+02  0.45594000000E+02  0.51100000000E-03 0.  1.
         11   -1    0    0    0    0 -0.00000000000E+00 -0.00000000000E+00 -0.45593999997E+02  0.45594000000E+02  0.51100000000E-03 0. -1.
    9900012    2    1    2    0    0  0.39557692307E+02 -0.56415534482E+01  0.16940576889E+02  0.47787293885E+02  0.20000104137E+02 0.  0.
         12    1    1    2    0    0 -0.39557692307E+02  0.56415534482E+01 -0.16940576889E+02  0.43400706115E+02  0.00000000000E+00 0. -1.
         11    1    3    3    0    0  0.13150111111E+01  0.23411570761E+01 -0.16943928307E+01  0.31750965345E+01  0.51100000000E-03 0. -1.
        -11    1    3    3    0    0 -0.27321981555E+00 -0.13162870878E+01  0.12361188329E+01  0.18262669014E+01  0.51100000000E-03 0.  1.
        -12    1    3    3    0    0  0.38515901012E+02 -0.66664234365E+01  0.17398850887E+02  0.42785930449E+02  0.00000000000E+00 0.  1.
</event>
<event>
 7    1  0.2328615E-009  0.4778727E+02  0.7816164E-02  0.1312668E+00
        -11   -1    0    0    0    0  0.00000000000E+00  0.00000000000E+00  0.45593999997E+02  0.45594000000E+02  0.51100000000E-03 0.  1.
         11   -1    0    0    0    0 -0.00000000000E+00 -0.00000000000E+00 -0.45593999997E+02  0.45594000000E+02  0.51100000000E-03 0. -1.
    9900012    2    1    2    0    0  0.25017489661E+02 -0.37190839010E+01  0.35269207635E+02  0.47787269808E+02  0.19999994365E+02 0.  0.
         12    1    1    2    0    0 -0.25017489661E+02  0.37190839010E+01 -0.35269207635E+02  0.43400730192E+02  0.00000000000E+00 0. -1.
         11    1    3    3    0    0  0.22831884426E+02  0.69250120773E+00  0.21803827063E+02  0.31578178846E+02  0.51100000000E-03 0. -1.
        -11    1    3    3    0    0  0.30950995282E+01  0.13824299172E+00  0.98536374962E+01  0.10329226708E+02  0.51100000000E-03 0.  1.
         12    1    3    3    0    0 -0.90949429334E+00 -0.45498281004E+01  0.36117430752E+01  0.58798642547E+01  0.00000000000E+00 0. -1.
</event>
<event>
 7    1  0.2328615E-009  0.4778727E+02  0.7816164E-02  0.1312668E+00
        -11   -1    0    0    0    0  0.00000000000E+00  0.00000000000E+00  0.45593999997E+02  0.45594000000E+02  0.51100000000E-03 0. -1.
         11   -1    0    0    0    0 -0.00000000000E+00 -0.00000000000E+00 -0.45593999997E+02  0.45594000000E+02  0.51100000000E-03 0.  1.
    9900012    2    1    2    0    0  0.34506525412E+02 -0.71614482003E+01 -0.25330548351E+02  0.47787270559E+02  0.19999997785E+02 0.  0.
         12    1    1    2    0    0 -0.34506525412E+02  0.71614482003E+01  0.25330548351E+02  0.43400729441E+02  0.00000000000E+00 0. -1.
         11    1    3    3    0    0  0.12053291505E+01  0.22195301579E+01 -0.12587886275E+01  0.28219995664E+01  0.51100000000E-03 0. -1.
        -11    1    3    3    0    0  0.10969448740E+02  0.39977715835E+01 -0.10002423656E+02  0.15373986553E+02  0.51100000000E-03 0.  1.
        -12    1    3    3    0    0  0.22331747521E+02 -0.13378749942E+02 -0.14069336067E+02  0.29591284439E+02  0.00000000000E+00 0.  1.
</event>
<event>
 7    1  0.2328615E-009  0.4778727E+02  0.7816164E-02  0.1312668E+00
        -11   -1    0    0    0    0  0.00000000000E+00  0.00000000000E+00  0.45593999997E+02  0.45594000000E+02  0.51100000000E-03 0.  1.
         11   -1    0    0    0    0 -0.00000000000E+00 -0.00000000000E+00 -0.45593999997E+02  0.45594000000E+02  0.51100000000E-03 0. -1.
    9900012    2    1    2    0    0  0.26186175449E+01 -0.19472838095E+02  0.38698515830E+02  0.47787266034E+02  0.19999977157E+02 0.  0.
         12    1    1    2    0    0 -0.26186175449E+01  0.19472838095E+02 -0.38698515830E+02  0.43400733966E+02  0.00000000000E+00 0. -1.
         11    1    3    3    0    0  0.42080214069E+00 -0.27249064307E+01  0.42275584952E+00  0.27894286632E+01  0.51100000000E-03 0. -1.
        -11    1    3    3    0    0  0.24201655000E+01 -0.15397804645E+02  0.14837858984E+02  0.21520029006E+02  0.51100000000E-03 0.  1.
        -12    1    3    3    0    0 -0.22235009575E+00 -0.13501270198E+01  0.23437900996E+02  0.23477808365E+02  0.00000000000E+00 0.  1.
</event>
<event>
 7    1  0.2328615E-009  0.4778726E+02  0.7816164E-02  0.1312668E+00
        -11   -1    0    0    0    0  0.00000000000E+00  0.00000000000E+00  0.45593999997E+02  0.45594000000E+02  0.51100000000E-03 0.  1.
         11   -1    0    0    0    0 -0.00000000000E+00 -0.00000000000E+00 -0.45593999997E+02  0.45594000000E+02  0.51100000000E-03 0. -1.
    9900012    2    1    2    0    0 -0.69664197121E+01 -0.30509974293E+02  0.30070498636E+02  0.47787257804E+02  0.19999939632E+02 0.  0.
         12    1    1    2    0    0  0.69664197121E+01  0.30509974293E+02 -0.30070498636E+02  0.43400742196E+02  0.00000000000E+00 0. -1.
         11    1    3    3    0    0 -0.40977523696E+01 -0.51383039638E+01  0.57708370766E+01  0.87462164924E+01  0.51100000000E-03 0. -1.
        -11    1    3    3    0    0 -0.27841852308E+01 -0.14551922964E+02  0.24014594877E+02  0.28217209584E+02  0.51100000000E-03 0.  1.
         12    1    3    3    0    0 -0.84482111722E-01 -0.10819747364E+02  0.28506668271E+00  0.10823831728E+02  0.00000000000E+00 0. -1.
</event>
<event>
 7    1  0.2328615E-009  0.4778727E+02  0.7816164E-02  0.1312668E+00
        -11   -1    0    0    0    0  0.00000000000E+00  0.00000000000E+00  0.45593999997E+02  0.45594000000E+02  0.51100000000E-03 0.  1.
         11   -1    0    0    0    0 -0.00000000000E+00 -0.00000000000E+00 -0.45593999997E+02  0.45594000000E+02  0.51100000000E-03 0. -1.
    9900012    2    1    2    0    0 -0.42653719637E+02  0.43270913151E+01 -0.67497934700E+01  0.47787271550E+02  0.20000002305E+02 0.  0.
         12    1    1    2    0    0  0.42653719637E+02 -0.43270913151E+01  0.67497934700E+01  0.43400728450E+02  0.00000000000E+00 0. -1.
         11    1    3    3    0    0 -0.88366731048E+01  0.62509788014E+01 -0.72254261266E+01  0.13014158079E+02  0.51100000000E-03 0. -1.
        -11    1    3    3    0    0 -0.13860365490E+02 -0.24639938804E+01 -0.32901963681E+01  0.14457053288E+02  0.51100000000E-03 0.  1.
        -12    1    3    3    0    0 -0.19956681041E+02  0.54010639417E+00  0.37658290247E+01  0.20316060183E+02  0.00000000000E+00 0.  1.
</event>
<event>
 7    1  0.2328615E-009  0.4778727E+02  0.7816164E-02  0.1312668E+00
        -11   -1    0    0    0    0  0.00000000000E+00  0.00000000000E+00  0.45593999997E+02  0.45594000000E+02  0.51100000000E-03 0.  1.
         11   -1    0    0    0    0 -0.00000000000E+00 -0.00000000000E+00 -0.45593999997E+02  0.45594000000E+02  0.51100000000E-03 0. -1.
    9900012    2    1    2    0    0  0.41998001768E+02  0.65479830705E+01 -0.87701208412E+01  0.47787271269E+02  0.20000001026E+02 0.  0.
         12    1    1    2    0    0 -0.41998001768E+02 -0.65479830705E+01  0.87701208412E+01  0.43400728731E+02  0.00000000000E+00 0. -1.
         11    1    3    3    0    0 -0.23193167996E-01 -0.35383485289E+01 -0.11692017888E+01  0.37265911124E+01  0.51100000000E-03 0. -1.
        -11    1    3    3    0    0  0.12069511885E+02  0.14283090061E+01 -0.32486503068E+01  0.12580417832E+02  0.51100000000E-03 0.  1.
         12    1    3    3    0    0  0.29951683051E+02  0.86580225933E+01 -0.43522687457E+01  0.31480262325E+02  0.00000000000E+00 0. -1.
</event>
<event>
 7    1  0.2328615E-009  0.4778727E+02  0.7816164E-02  0.1312668E+00
        -11   -1    0    0    0    0  0.00000000000E+00  0.00000000000E+00  0.45593999997E+02  0.45594000000E+02  0.51100000000E-03 0.  1.
         11   -1    0    0    0    0 -0.00000000000E+00 -0.00000000000E+00 -0.45593999997E+02  0.45594000000E+02  0.51100000000E-03 0. -1.
    9900012    2    1    2    0    0 -0.73393354500E+01  0.91593887404E+01  0.41783526869E+02  0.47787270000E+02  0.19999995237E+02 0.  0.
         12    1    1    2    0    0  0.73393354500E+01 -0.91593887404E+01 -0.41783526869E+02  0.43400730000E+02  0.00000000000E+00 0. -1.
         11    1    3    3    0    0 -0.21394242271E+01  0.24978957669E+00  0.20265157431E+02  0.20379306583E+02  0.51100000000E-03 0. -1.
        -11    1    3    3    0    0 -0.18697547791E+00  0.36671430422E+01  0.19550435940E+02  0.19892270952E+02  0.51100000000E-03 0.  1.
         12    1    3    3    0    0 -0.50129357450E+01  0.52424561215E+01  0.19679334980E+01  0.75156924645E+01  0.00000000000E+00 0. -1.
</event>
<event>
 7    1  0.2328615E-009  0.4778727E+02  0.7816164E-02  0.1312668E+00
        -11   -1    0    0    0    0  0.00000000000E+00  0.00000000000E+00  0.45593999997E+02  0.45594000000E+02  0.51100000000E-03 0.  1.
         11   -1    0    0    0    0 -0.00000000000E+00 -0.00000000000E+00 -0.45593999997E+02  0.45594000000E+02  0.51100000000E-03 0. -1.
    9900012    2    1    2    0    0  0.29572281729E+02  0.22898933313E+02  0.22016863114E+02  0.47787271263E+02  0.20000000997E+02 0.  0.
         12    1    1    2    0    0 -0.29572281729E+02 -0.22898933313E+02 -0.22016863114E+02  0.43400728737E+02  0.00000000000E+00 0. -1.
         11    1    3    3    0    0  0.24089686662E+02  0.19493561216E+02  0.15750579966E+02  0.34761943299E+02  0.51100000000E-03 0. -1.
        -11    1    3    3    0    0  0.65017181113E+01  0.58633707659E+01  0.46787676813E+01  0.99268485641E+01  0.51100000000E-03 0.  1.
        -12    1    3    3    0    0 -0.10191230446E+01 -0.24579986692E+01  0.15875154667E+01  0.30984794004E+01  0.00000000000E+00 0.  1.
</event>
<event>
 7    1  0.2328615E-009  0.4778727E+02  0.7816164E-02  0.1312668E+00
        -11   -1    0    0    0    0  0.00000000000E+00  0.00000000000E+00  0.45593999997E+02  0.45594000000E+02  0.51100000000E-03 0.  1.
         11   -1    0    0    0    0 -0.00000000000E+00 -0.00000000000E+00 -0.45593999997E+02  0.45594000000E+02  0.51100000000E-03 0. -1.
    9900012    2    1    2    0    0  0.18170096726E+02 -0.10667389733E+02  0.37943085667E+02  0.47787269952E+02  0.19999995018E+02 0.  0.
         12    1    1    2    0    0 -0.18170096726E+02  0.10667389733E+02 -0.37943085667E+02  0.43400730048E+02  0.00000000000E+00 0. -1.
         11    1    3    3    0    0  0.39296311213E+01 -0.10201386128E+01  0.96549864859E+01  0.10473845895E+02  0.51100000000E-03 0. -1.
        -11    1    3    3    0    0  0.71985299442E+01  0.34306027281E+01  0.16589059601E+02  0.18406106790E+02  0.51100000000E-03 0.  1.
         12    1    3    3    0    0  0.70419356610E+01 -0.13077853848E+02  0.11699039580E+02  0.18907317267E+02  0.00000000000E+00 0. -1.
</event>
<event>
 7    1  0.2328615E-009  0.4778727E+02  0.7816164E-02  0.1312668E+00
        -11   -1    0    0    0    0  0.00000000000E+00  0.00000000000E+00  0.45593999997E+02  0.45594000000E+02  0.51100000000E-03 0. -1.
         11   -1    0    0    0    0 -0.00000000000E+00 -0.00000000000E+00 -0.45593999997E+02  0.45594000000E+02  0.51100000000E-03 0.  1.
    9900012    2    1    2    0    0 -0.18109980603E+02  0.39441713464E+02  0.57709972761E-01  0.47787268568E+02  0.19999988707E+02 0.  0.
         12    1    1    2    0    0  0.18109980603E+02 -0.39441713464E+02 -0.57709972761E-01  0.43400731432E+02  0.00000000000E+00 0. -1.
         11    1    3    3    0    0 -0.29299076370E+01  0.38332223454E-03  0.18412177370E+01  0.34604106584E+01  0.51100000000E-03 0. -1.
        -11    1    3    3    0    0 -0.11053526377E+02  0.11786286172E+02 -0.25317192612E+01  0.16355628687E+02  0.51100000000E-03 0.  1.
        -12    1    3    3    0    0 -0.41265465898E+01  0.27655043970E+02  0.74821149698E+00  0.27971229222E+02  0.00000000000E+00 0.  1.
</event>
<event>
 7    1  0.2328615E-009  0.4778722E+02  0.7816164E-02  0.1312668E+00
        -11   -1    0    0    0    0  0.00000000000E+00  0.00000000000E+00  0.45593999997E+02  0.45594000000E+02  0.51100000000E-03 0.  1.
         11   -1    0    0    0    0 -0.00000000000E+00 -0.00000000000E+00 -0.45593999997E+02  0.45594000000E+02  0.51100000000E-03 0. -1.
    9900012    2    1    2    0    0  0.72580926483E+00  0.40664005151E+02  0.15150551169E+02  0.47787224491E+02  0.19999787745E+02 0.  0.
         12    1    1    2    0    0 -0.72580926483E+00 -0.40664005151E+02 -0.15150551169E+02  0.43400775509E+02  0.00000000000E+00 0. -1.
         11    1    3    3    0    0 -0.29109595238E+01  0.16976518662E+01  0.31774284628E+00  0.33847700048E+01  0.51100000000E-03 0. -1.
        -11    1    3    3    0    0 -0.27779772452E+01  0.11233319802E+02  0.10469051706E+02  0.15604668380E+02  0.51100000000E-03 0.  1.
        -12    1    3    3    0    0  0.64147460338E+01  0.27733033483E+02  0.43637566166E+01  0.28797786107E+02  0.00000000000E+00 0.  1.
</event>
<event>
 7    1  0.2328615E-009  0.4778728E+02  0.7816164E-02  0.1312668E+00
        -11   -1    0    0    0    0  0.00000000000E+00  0.00000000000E+00  0.45593999997E+02  0.45594000000E+02  0.51100000000E-03 0.  1.
         11   -1    0    0    0    0 -0.00000000000E+00 -0.00000000000E+00 -0.45593999997E+02  0.45594000000E+02  0.51100000000E-03 0. -1.
    9900012    2    1    2    0    0  0.18005858921E+02 -0.11880982336E+02  0.37659714887E+02  0.47787276249E+02  0.20000023729E+02 0.  0.
         12    1    1    2    0    0 -0.18005858921E+02  0.11880982336E+02 -0.37659714887E+02  0.43400723751E+02  0.00000000000E+00 0. -1.
         11    1    3    3    0    0  0.13980010202E+02 -0.14629916900E+01  0.92657944416E+01  0.16835556921E+02  0.51100000000E-03 0. -1.
        -11    1    3    3    0    0  0.11010194604E+01 -0.18786868908E+00  0.66609928807E+01  0.67539888151E+01  0.51100000000E-03 0.  1.
        -12    1    3    3    0    0  0.29248292582E+01 -0.10230121957E+02  0.21732927565E+02  0.24197730513E+02  0.00000000000E+00 0.  1.
</event>
<event>
 7    1  0.2328615E-009  0.4778727E+02  0.7816164E-02  0.1312668E+00
        -11   -1    0    0    0    0  0.00000000000E+00  0.00000000000E+00  0.45593999997E+02  0.45594000000E+02  0.51100000000E-03 0.  1.
         11   -1    0    0    0    0 -0.00000000000E+00 -0.00000000000E+00 -0.45593999997E+02  0.45594000000E+02  0.51100000000E-03 0. -1.
    9900012    2    1    2    0    0 -0.76886791464E+01  0.30366142357E+02  0.30040055784E+02  0.47787270280E+02  0.19999996516E+02 0.  0.
         12    1    1    2    0    0  0.76886791464E+01 -0.30366142357E+02 -0.30040055784E+02  0.43400729720E+02  0.00000000000E+00 0. -1.
         11    1    3    3    0    0 -0.14254742500E+01  0.58169125341E+01  0.30438354880E+01  0.67181383587E+01  0.51100000000E-03 0.  1.
        -11    1    3    3    0    0  0.49293262683E+01  0.12841310211E+02  0.17622558409E+02  0.22355135217E+02  0.51100000000E-03 0. -1.
         12    1    3    3    0    0 -0.11192531165E+02  0.11707919612E+02  0.93736618870E+01  0.18713996705E+02  0.00000000000E+00 0. -1.
</event>
<event>
 7    1  0.2328615E-009  0.4778727E+02  0.7816164E-02  0.1312668E+00
        -11   -1    0    0    0    0  0.00000000000E+00  0.00000000000E+00  0.45593999997E+02  0.45594000000E+02  0.51100000000E-03 0.  1.
         11   -1    0    0    0    0 -0.00000000000E+00 -0.00000000000E+00 -0.45593999997E+02  0.45594000000E+02  0.51100000000E-03 0. -1.
    9900012    2    1    2    0    0  0.26185405501E+02 -0.33843442665E+02  0.72504405156E+01  0.47787274656E+02  0.20000016468E+02 0.  0.
         12    1    1    2    0    0 -0.26185405501E+02  0.33843442665E+02 -0.72504405156E+01  0.43400725344E+02  0.00000000000E+00 0. -1.
         11    1    3    3    0    0  0.15334607612E+01 -0.62140314820E+00  0.24903184206E+01  0.29898712140E+01  0.51100000000E-03 0. -1.
        -11    1    3    3    0    0  0.10781842200E+02 -0.23409657248E+02  0.89769352632E+01  0.27291858505E+02  0.51100000000E-03 0.  1.
         12    1    3    3    0    0  0.13870102539E+02 -0.98123822693E+01 -0.42168131683E+01  0.17505544937E+02  0.00000000000E+00 0. -1.
</event>
<event>
 7    1  0.2328615E-009  0.4778729E+02  0.7816164E-02  0.1312668E+00
        -11   -1    0    0    0    0  0.00000000000E+00  0.00000000000E+00  0.45593999997E+02  0.45594000000E+02  0.51100000000E-03 0.  1.
         11   -1    0    0    0    0 -0.00000000000E+00 -0.00000000000E+00 -0.45593999997E+02  0.45594000000E+02  0.51100000000E-03 0. -1.
    9900012    2    1    2    0    0 -0.10625240557E+02  0.38040037462E+02  0.17991147726E+02  0.47787290518E+02  0.20000088788E+02 0.  0.
         12    1    1    2    0    0  0.10625240557E+02 -0.38040037462E+02 -0.17991147726E+02  0.43400709482E+02  0.00000000000E+00 0. -1.
         11    1    3    3    0    0 -0.25715057957E+01  0.13452175079E+02  0.85484109571E+00  0.13722405401E+02  0.51100000000E-03 0. -1.
        -11    1    3    3    0    0 -0.19991280524E+01  0.35454539987E+01 -0.23958367339E+01  0.47230065576E+01  0.51100000000E-03 0.  1.
        -12    1    3    3    0    0 -0.60546067087E+01  0.21042408384E+02  0.19532143364E+02  0.29341878560E+02  0.00000000000E+00 0.  1.
</event>
<event>
 7    1  0.2328615E-009  0.4778727E+02  0.7816164E-02  0.1312668E+00
        -11   -1    0    0    0    0  0.00000000000E+00  0.00000000000E+00  0.45593999997E+02  0.45594000000E+02  0.51100000000E-03 0.  1.
         11   -1    0    0    0    0 -0.00000000000E+00 -0.00000000000E+00 -0.45593999997E+02  0.45594000000E+02  0.51100000000E-03 0. -1.
    9900012    2    1    2    0    0 -0.84343354035E+01  0.22619988302E+02  0.36066903713E+02  0.47787269269E+02  0.19999991906E+02 0.  0.
         12    1    1    2    0    0  0.84343354035E+01 -0.22619988302E+02 -0.36066903713E+02  0.43400730731E+02  0.00000000000E+00 0. -1.
         11    1    3    3    0    0 -0.50665106258E+01  0.86787442664E+00  0.53482060096E+01  0.74179541468E+01  0.51100000000E-03 0. -1.
        -11    1    3    3    0    0  0.37607435242E+01  0.79801380615E+00  0.65677052176E+01  0.76101754234E+01  0.51100000000E-03 0.  1.
        -12    1    3    3    0    0 -0.71285683019E+01  0.20954100070E+02  0.24150992486E+02  0.32759139699E+02  0.00000000000E+00 0.  1.
</event>
<event>
 7    1  0.2328615E-009  0.4778727E+02  0.7816164E-02  0.1312668E+00
        -11   -1    0    0    0    0  0.00000000000E+00  0.00000000000E+00  0.45593999997E+02  0.45594000000E+02  0.51100000000E-03 0.  1.
         11   -1    0    0    0    0 -0.00000000000E+00 -0.00000000000E+00 -0.45593999997E+02  0.45594000000E+02  0.51100000000E-03 0. -1.
    9900012    2    1    2    0    0  0.94799562779E+01 -0.15976208557E+01  0.42322588331E+02  0.47787269056E+02  0.19999990933E+02 0.  0.
         12    1    1    2    0    0 -0.94799562779E+01  0.15976208557E+01 -0.42322588331E+02  0.43400730944E+02  0.00000000000E+00 0. -1.
         11    1    3    3    0    0  0.28303075281E+01 -0.60405915089E+01  0.98638720762E+01  0.11907785650E+02  0.51100000000E-03 0. -1.
        -11    1    3    3    0    0  0.34764352535E+01 -0.41821302691E+01  0.17476615860E+02  0.18303221516E+02  0.51100000000E-03 0.  1.
         12    1    3    3    0    0  0.31732134963E+01  0.86251009222E+01  0.14982100395E+02  0.17576261891E+02  0.00000000000E+00 0. -1.
</event>
<event>
 7    1  0.2328615E-009  0.4778729E+02  0.7816164E-02  0.1312668E+00
        -11   -1    0    0    0    0  0.00000000000E+00  0.00000000000E+00  0.45593999997E+02  0.45594000000E+02  0.51100000000E-03 0.  1.
         11   -1    0    0    0    0 -0.00000000000E+00 -0.00000000000E+00 -0.45593999997E+02  0.45594000000E+02  0.51100000000E-03 0. -1.
    9900012    2    1    2    0    0  0.24126770303E+02  0.19173212732E+02  0.30559923081E+02  0.47787285369E+02  0.20000065313E+02 0.  0.
         12    1    1    2    0    0 -0.24126770303E+02 -0.19173212732E+02 -0.30559923081E+02  0.43400714631E+02  0.00000000000E+00 0. -1.
         11    1    3    3    0    0  0.12524473964E+01 -0.84679072299E+00 -0.14333071541E+01  0.20832783464E+01  0.51100000000E-03 0. -1.
        -11    1    3    3    0    0  0.15475789939E+02  0.67808723492E+01  0.12559697351E+02  0.21052940456E+02  0.51100000000E-03 0.  1.
        -12    1    3    3    0    0  0.73985329679E+01  0.13239131106E+02  0.19433532885E+02  0.24651066567E+02  0.00000000000E+00 0.  1.
</event>
<event>
 7    1  0.2328615E-009  0.4778732E+02  0.7816164E-02  0.1312668E+00
        -11   -1    0    0    0    0  0.00000000000E+00  0.00000000000E+00  0.45593999997E+02  0.45594000000E+02  0.51100000000E-03 0.  1.
         11   -1    0    0    0    0 -0.00000000000E+00 -0.00000000000E+00 -0.45593999997E+02  0.45594000000E+02  0.51100000000E-03 0. -1.
    9900012    2    1    2    0    0 -0.38659835346E+02 -0.47204996019E+01  0.19150797927E+02  0.47787319744E+02  0.20000222040E+02 0.  0.
         12    1    1    2    0    0  0.38659835346E+02  0.47204996019E+01 -0.19150797927E+02  0.43400680256E+02  0.00000000000E+00 0. -1.
         11    1    3    3    0    0 -0.10104445016E+02 -0.20468608601E+01  0.48924997825E+01  0.11411660827E+02  0.51100000000E-03 0. -1.
        -11    1    3    3    0    0 -0.17817525601E+02  0.28846104098E+01  0.49596500879E+00  0.18056333441E+02  0.51100000000E-03 0.  1.
        -12    1    3    3    0    0 -0.10737864729E+02 -0.55582491516E+01  0.13762333136E+02  0.18319325476E+02  0.00000000000E+00 0.  1.
</event>
<event>
 7    1  0.2328615E-009  0.4778730E+02  0.7816164E-02  0.1312668E+00
        -11   -1    0    0    0    0  0.00000000000E+00  0.00000000000E+00  0.45593999997E+02  0.45594000000E+02  0.51100000000E-03 0.  1.
         11   -1    0    0    0    0 -0.00000000000E+00 -0.00000000000E+00 -0.45593999997E+02  0.45594000000E+02  0.51100000000E-03 0. -1.
    9900012    2    1    2    0    0  0.14850559264E+02 -0.94715224021E+01  0.39665757279E+02  0.47787295540E+02  0.20000111685E+02 0.  0.
         12    1    1    2    0    0 -0.14850559264E+02  0.94715224021E+01 -0.39665757279E+02  0.43400704460E+02  0.00000000000E+00 0. -1.
         11    1    3    3    0    0  0.87819206054E+00  0.18780791362E+01  0.27043630260E+01  0.34076358629E+01  0.51100000000E-03 0.  1.
        -11    1    3    3    0    0  0.73180205309E+01  0.65291768026E+00  0.33506207047E+01  0.80750470807E+01  0.51100000000E-03 0. -1.
        -12    1    3    3    0    0  0.66543466727E+01 -0.12002519219E+02  0.33610773549E+02  0.36304612596E+02  0.00000000000E+00 0.  1.
</event>
<event>
 7    1  0.2474877E-009  0.4778727E+02  0.7816164E-02  0.1312668E+00
        -11   -1    0    0    0    0  0.00000000000E+00  0.00000000000E+00  0.45593999997E+02  0.45594000000E+02  0.51100000000E-03 0.  1.
         11   -1    0    0    0    0 -0.00000000000E+00 -0.00000000000E+00 -0.45593999997E+02  0.45594000000E+02  0.51100000000E-03 0. -1.
    9900012    2    1    2    0    0 -0.43915133562E+01 -0.40361271257E+02  0.15339680083E+02  0.47787269683E+02  0.19999993791E+02 0.  0.
         12    1    1    2    0    0  0.43915133562E+01  0.40361271257E+02 -0.15339680083E+02  0.43400730317E+02  0.00000000000E+00 0. -1.
         11    1    3    3    0    0 -0.41437569381E+01 -0.61940579287E+01 -0.11916936167E+01  0.75470000081E+01  0.51100000000E-03 0. -1.
        -11    1    3    3    0    0  0.23965480151E+00 -0.22867011825E+00  0.40692991080E+01  0.40827588636E+01  0.51100000000E-03 0.  1.
        -12    1    3    3    0    0 -0.48741121958E+00 -0.33938543210E+02  0.12462074592E+02  0.36157510811E+02  0.00000000000E+00 0.  1.
</event>
<event>
 7    1  0.2328615E-009  0.4778727E+02  0.7816164E-02  0.1312668E+00
        -11   -1    0    0    0    0  0.00000000000E+00  0.00000000000E+00  0.45593999997E+02  0.45594000000E+02  0.51100000000E-03 0.  1.
         11   -1    0    0    0    0 -0.00000000000E+00 -0.00000000000E+00 -0.45593999997E+02  0.45594000000E+02  0.51100000000E-03 0. -1.
    9900012    2    1    2    0    0  0.48014566369E+01  0.28918148758E+02  0.32004847303E+02  0.47787267699E+02  0.19999984747E+02 0.  0.
         12    1    1    2    0    0 -0.48014566369E+01 -0.28918148758E+02 -0.32004847303E+02  0.43400732301E+02  0.00000000000E+00 0. -1.
         11    1    3    3    0    0 -0.67422627119E+01  0.42406945681E+01  0.90811728501E+01  0.12079292094E+02  0.51100000000E-03 0. -1.
        -11    1    3    3    0    0  0.34848253401E+01  0.64151612365E+01  0.76409636554E+01  0.10568000151E+02  0.51100000000E-03 0.  1.
         12    1    3    3    0    0  0.80588940087E+01  0.18262292953E+02  0.15282710797E+02  0.25139975454E+02  0.00000000000E+00 0. -1.
</event>
<event>
 7    1  0.2328615E-009  0.4778725E+02  0.7816164E-02  0.1312668E+00
        -11   -1    0    0    0    0  0.00000000000E+00  0.00000000000E+00  0.45593999997E+02  0.45594000000E+02  0.51100000000E-03 0.  1.
         11   -1    0    0    0    0 -0.00000000000E+00 -0.00000000000E+00 -0.45593999997E+02  0.45594000000E+02  0.51100000000E-03 0. -1.
    9900012    2    1    2    0    0  0.26346192642E+02  0.12498620495E+02  0.32144787413E+02  0.47787254167E+02  0.19999923051E+02 0.  0.
         12    1    1    2    0    0 -0.26346192642E+02 -0.12498620495E+02 -0.32144787413E+02  0.43400745833E+02  0.00000000000E+00 0. -1.
         11    1    3    3    0    0  0.12359027031E+01  0.65154883094E+01  0.45947539860E+01  0.80678874468E+01  0.51100000000E-03 0. -1.
        -11    1    3    3    0    0  0.14869529153E+02  0.86988366613E+01  0.21387759562E+02  0.27462864304E+02  0.51100000000E-03 0.  1.
         12    1    3    3    0    0  0.10240760787E+02 -0.27157044759E+01  0.61622738652E+01  0.12256502416E+02  0.00000000000E+00 0. -1.
</event>
<event>
 7    1  0.2328615E-009  0.4778727E+02  0.7816164E-02  0.1312668E+00
        -11   -1    0    0    0    0  0.00000000000E+00  0.00000000000E+00  0.45593999997E+02  0.45594000000E+02  0.51100000000E-03 0.  1.
         11   -1    0    0    0    0 -0.00000000000E+00 -0.00000000000E+00 -0.45593999997E+02  0.45594000000E+02  0.51100000000E-03 0. -1.
    9900012    2    1    2    0    0  0.18441963741E+02  0.31291440588E+02  0.23756333833E+02  0.47787266391E+02  0.19999978781E+02 0.  0.
         12    1    1    2    0    0 -0.18441963741E+02 -0.31291440588E+02 -0.23756333833E+02  0.43400733609E+02  0.00000000000E+00 0. -1.
         11    1    3    3    0    0 -0.29878238112E+01  0.15820326645E+01  0.23685115800E+01  0.41279251257E+01  0.51100000000E-03 0. -1.
        -11    1    3    3    0    0  0.48387662524E+01  0.27512245667E+01  0.68491857151E+01  0.88257713930E+01  0.51100000000E-03 0.  1.
         12    1    3    3    0    0  0.16591021300E+02  0.26958183356E+02  0.14538636538E+02  0.34833569872E+02  0.00000000000E+00 0. -1.
</event>
<event>
 7    1  0.2328615E-009  0.4778727E+02  0.7816164E-02  0.1312668E+00
        -11   -1    0    0    0    0  0.00000000000E+00  0.00000000000E+00  0.45593999997E+02  0.45594000000E+02  0.51100000000E-03 0.  1.
         11   -1    0    0    0    0 -0.00000000000E+00 -0.00000000000E+00 -0.45593999997E+02  0.45594000000E+02  0.51100000000E-03 0. -1.
    9900012    2    1    2    0    0  0.39793179976E+02  0.13776076513E+02  0.10504569108E+02  0.47787269259E+02  0.19999991860E+02 0.  0.
         12    1    1    2    0    0 -0.39793179976E+02 -0.13776076513E+02 -0.10504569108E+02  0.43400730741E+02  0.00000000000E+00 0. -1.
         11    1    3    3    0    0  0.13285860383E+02  0.13773686830E+02  0.75277401649E+01  0.20564420907E+02  0.51100000000E-03 0. -1.
        -11    1    3    3    0    0  0.11655310335E+02  0.21161476768E+01  0.30053547496E+01  0.12221149595E+02  0.51100000000E-03 0.  1.
         12    1    3    3    0    0  0.14852009259E+02 -0.21137579939E+01 -0.28525806904E-01  0.15001698757E+02  0.00000000000E+00 0. -1.
</event>
<event>
 7    1  0.2328615E-009  0.4778728E+02  0.7816164E-02  0.1312668E+00
        -11   -1    0    0    0    0  0.00000000000E+00  0.00000000000E+00  0.45593999997E+02  0.45594000000E+02  0.51100000000E-03 0.  1.
         11   -1    0    0    0    0 -0.00000000000E+00 -0.00000000000E+00 -0.45593999997E+02  0.45594000000E+02  0.51100000000E-03 0. -1.
    9900012    2    1    2    0    0 -0.38650797254E+02 -0.19695545344E+02  0.13506413780E+01  0.47787275733E+02  0.20000021379E+02 0.  0.
         12    1    1    2    0    0  0.38650797254E+02  0.19695545344E+02 -0.13506413780E+01  0.43400724267E+02  0.00000000000E+00 0. -1.
         11    1    3    3    0    0 -0.54834052416E+01 -0.11455904064E+02 -0.16695622112E+01  0.12809875456E+02  0.51100000000E-03 0. -1.
        -11    1    3    3    0    0 -0.15125568932E+02 -0.67832316053E+01 -0.27583145215E+00  0.16579238516E+02  0.51100000000E-03 0.  1.
        -12    1    3    3    0    0 -0.18041823080E+02 -0.14564096750E+01  0.32960350414E+01  0.18398161761E+02  0.00000000000E+00 0.  1.
</event>
<event>
 7    1  0.2328615E-009  0.4778727E+02  0.7816164E-02  0.1312668E+00
        -11   -1    0    0    0    0  0.00000000000E+00  0.00000000000E+00  0.45593999997E+02  0.45594000000E+02  0.51100000000E-03 0.  1.
         11   -1    0    0    0    0 -0.00000000000E+00 -0.00000000000E+00 -0.45593999997E+02  0.45594000000E+02  0.51100000000E-03 0. -1.
    9900012    2    1    2    0    0 -0.34879349050E+02  0.24372007740E+02 -0.85474713374E+01  0.47787273996E+02  0.20000013457E+02 0.  0.
         12    1    1    2    0    0  0.34879349050E+02 -0.24372007740E+02  0.85474713374E+01  0.43400726004E+02  0.00000000000E+00 0. -1.
         11    1    3    3    0    0 -0.12978500327E+02  0.10798310153E+02 -0.67854512849E+01  0.18195805074E+02  0.51100000000E-03 0. -1.
        -11    1    3    3    0    0 -0.14521163077E+02  0.63800865564E+01 -0.77704921324E+01  0.17662112836E+02  0.51100000000E-03 0.  1.
         12    1    3    3    0    0 -0.73796856458E+01  0.71936110303E+01  0.60084720800E+01  0.11929356086E+02  0.00000000000E+00 0. -1.
</event>
<event>
 7    1  0.2328615E-009  0.4778727E+02  0.7816164E-02  0.1312668E+00
        -11   -1    0    0    0    0  0.00000000000E+00  0.00000000000E+00  0.45593999997E+02  0.45594000000E+02  0.51100000000E-03 0. -1.
         11   -1    0    0    0    0 -0.00000000000E+00 -0.00000000000E+00 -0.45593999997E+02  0.45594000000E+02  0.51100000000E-03 0.  1.
    9900012    2    1    2    0    0  0.11165637352E+02  0.41939707826E+02 -0.11438931665E+00  0.47787266885E+02  0.19999981037E+02 0.  0.
         12    1    1    2    0    0 -0.11165637352E+02 -0.41939707826E+02  0.11438931665E+00  0.43400733115E+02  0.00000000000E+00 0. -1.
         11    1    3    3    0    0  0.10987383586E+02  0.13260152826E+02 -0.17018990074E+00  0.17221591561E+02  0.51100000000E-03 0. -1.
        -11    1    3    3    0    0  0.41558403502E+01  0.20100823217E+02 -0.27328226661E+01  0.20707062153E+02  0.51100000000E-03 0.  1.
         12    1    3    3    0    0 -0.39775865843E+01  0.85787317824E+01  0.27886232502E+01  0.98586131713E+01  0.00000000000E+00 0. -1.
</event>
<event>
 7    1  0.2328615E-009  0.4778727E+02  0.7816164E-02  0.1312668E+00
        -11   -1    0    0    0    0  0.00000000000E+00  0.00000000000E+00  0.45593999997E+02  0.45594000000E+02  0.51100000000E-03 0.  1.
         11   -1    0    0    0    0 -0.00000000000E+00 -0.00000000000E+00 -0.45593999997E+02  0.45594000000E+02  0.51100000000E-03 0. -1.
    9900012    2    1    2    0    0  0.20366368758E+02 -0.74664065673E+00  0.38318101415E+02  0.47787270229E+02  0.19999996281E+02 0.  0.
         12    1    1    2    0    0 -0.20366368758E+02  0.74664065673E+00 -0.38318101415E+02  0.43400729771E+02  0.00000000000E+00 0. -1.
         11    1    3    3    0    0  0.25629172253E+01  0.30969277734E+01  0.64049300100E+01  0.75619200625E+01  0.51100000000E-03 0.  1.
        -11    1    3    3    0    0  0.17838919858E+02  0.18640221351E+01  0.28184720063E+02  0.33407784804E+02  0.51100000000E-03 0. -1.
         12    1    3    3    0    0 -0.35468325657E-01 -0.57075905651E+01  0.37284513422E+01  0.68175653625E+01  0.00000000000E+00 0. -1.
</event>
<event>
 7    1  0.2328615E-009  0.4778727E+02  0.7816164E-02  0.1312668E+00
        -11   -1    0    0    0    0  0.00000000000E+00  0.00000000000E+00  0.45593999997E+02  0.45594000000E+02  0.51100000000E-03 0.  1.
         11   -1    0    0    0    0 -0.00000000000E+00 -0.00000000000E+00 -0.45593999997E+02  0.45594000000E+02  0.51100000000E-03 0. -1.
    9900012    2    1    2    0    0  0.29382287016E+01 -0.28332268239E+02  0.32745574928E+02  0.47787270872E+02  0.19999999214E+02 0.  0.
         12    1    1    2    0    0 -0.29382287016E+01  0.28332268239E+02 -0.32745574928E+02  0.43400729128E+02  0.00000000000E+00 0. -1.
         11    1    3    3    0    0  0.16821957938E+01 -0.12883219451E+02  0.91304519703E+01  0.15879933235E+02  0.51100000000E-03 0.  1.
        -11    1    3    3    0    0  0.44020911075E+01 -0.12183748771E+02  0.70826831276E+01  0.14764367266E+02  0.51100000000E-03 0. -1.
         12    1    3    3    0    0 -0.31460581998E+01 -0.32653000178E+01  0.16532439830E+02  0.17142970371E+02  0.00000000000E+00 0. -1.
</event>
<event>
 7    1  0.2328615E-009  0.4778729E+02  0.7816164E-02  0.1312668E+00
        -11   -1    0    0    0    0  0.00000000000E+00  0.00000000000E+00  0.45593999997E+02  0.45594000000E+02  0.51100000000E-03 0.  1.
         11   -1    0    0    0    0 -0.00000000000E+00 -0.00000000000E+00 -0.45593999997E+02  0.45594000000E+02  0.51100000000E-03 0. -1.
    9900012    2    1    2    0    0  0.11757016718E+02  0.65767683439E+00  0.41772734895E+02  0.47787293075E+02  0.20000100448E+02 0.  0.
         12    1    1    2    0    0 -0.11757016718E+02 -0.65767683439E+00 -0.41772734895E+02  0.43400706925E+02  0.00000000000E+00 0. -1.
         11    1    3    3    0    0 -0.32375456341E+01  0.12825822349E+01  0.39100022561E+01  0.52359179545E+01  0.51100000000E-03 0. -1.
        -11    1    3    3    0    0  0.12840911833E+00  0.36335621377E+01  0.45492108523E+01  0.58236227857E+01  0.51100000000E-03 0.  1.
         12    1    3    3    0    0  0.14866153234E+02 -0.42584675383E+01  0.33313521787E+02  0.36727752335E+02  0.00000000000E+00 0. -1.
</event>
<event>
 7    1  0.2328615E-009  0.4778727E+02  0.7816164E-02  0.1312668E+00
        -11   -1    0    0    0    0  0.00000000000E+00  0.00000000000E+00  0.45593999997E+02  0.45594000000E+02  0.51100000000E-03 0.  1.
         11   -1    0    0    0    0 -0.00000000000E+00 -0.00000000000E+00 -0.45593999997E+02  0.45594000000E+02  0.51100000000E-03 0. -1.
    9900012    2    1    2    0    0 -0.43383854322E+02 -0.12100835858E+01 -0.10235222334E-01  0.47787271632E+02  0.20000002678E+02 0.  0.
         12    1    1    2    0    0  0.43383854322E+02  0.12100835858E+01  0.10235222334E-01  0.43400728368E+02  0.00000000000E+00 0. -1.
         11    1    3    3    0    0 -0.14629020511E+01 -0.10959236605E+01 -0.32772556299E+01  0.37525372490E+01  0.51100000000E-03 0. -1.
        -11    1    3    3    0    0 -0.35349398959E+01 -0.38951223722E+01 -0.47741721922E+00  0.52816385549E+01  0.51100000000E-03 0.  1.
        -12    1    3    3    0    0 -0.38386012375E+02  0.37809624469E+01  0.37444376268E+01  0.38753095828E+02  0.00000000000E+00 0.  1.
</event>
<event>
 7    1  0.2328615E-009  0.4778727E+02  0.7816164E-02  0.1312668E+00
        -11   -1    0    0    0    0  0.00000000000E+00  0.00000000000E+00  0.45593999997E+02  0.45594000000E+02  0.51100000000E-03 0. -1.
         11   -1    0    0    0    0 -0.00000000000E+00 -0.00000000000E+00 -0.45593999997E+02  0.45594000000E+02  0.51100000000E-03 0.  1.
    9900012    2    1    2    0    0  0.20514937268E+02  0.14168719421E+02 -0.35524751226E+02  0.47787271771E+02  0.20000003311E+02 0.  0.
         12    1    1    2    0    0 -0.20514937268E+02 -0.14168719421E+02  0.35524751226E+02  0.43400728229E+02  0.00000000000E+00 0. -1.
         11    1    3    3    0    0 -0.74995781732E+00 -0.34895858648E+00 -0.63867481088E+01  0.64400900994E+01  0.51100000000E-03 0. -1.
        -11    1    3    3    0    0  0.98825941718E+01 -0.95421563179E+00 -0.12273237963E+02  0.15786341102E+02  0.51100000000E-03 0.  1.
        -12    1    3    3    0    0  0.11382300914E+02  0.15471893640E+02 -0.16864765155E+02  0.25560840569E+02  0.00000000000E+00 0.  1.
</event>
<event>
 7    1  0.2328615E-009  0.4778724E+02  0.7816164E-02  0.1312668E+00
        -11   -1    0    0    0    0  0.00000000000E+00  0.00000000000E+00  0.45593999997E+02  0.45594000000E+02  0.51100000000E-03 0. -1.
         11   -1    0    0    0    0 -0.00000000000E+00 -0.00000000000E+00 -0.45593999997E+02  0.45594000000E+02  0.51100000000E-03 0.  1.
    9900012    2    1    2    0    0 -0.23504022088E+02  0.34856483217E+02  0.10780185959E+02  0.47787240952E+02  0.19999862797E+02 0.  0.
         12    1    1    2    0    0  0.23504022088E+02 -0.34856483217E+02 -0.10780185959E+02  0.43400759048E+02  0.00000000000E+00 0. -1.
         11    1    3    3    0    0 -0.62825872372E+01  0.85675042397E+01  0.57269089108E+01  0.12069404179E+02  0.51100000000E-03 0. -1.
        -11    1    3    3    0    0  0.24338274765E+01  0.19082390837E+01 -0.19115407526E+01  0.36357778942E+01  0.51100000000E-03 0.  1.
        -12    1    3    3    0    0 -0.19655262327E+02  0.24380739894E+02  0.69648178011E+01  0.32082058879E+02  0.00000000000E+00 0.  1.
</event>
<event>
 7    1  0.2328615E-009  0.4778727E+02  0.7816164E-02  0.1312668E+00
        -11   -1    0    0    0    0  0.00000000000E+00  0.00000000000E+00  0.45593999997E+02  0.45594000000E+02  0.51100000000E-03 0.  1.
         11   -1    0    0    0    0 -0.00000000000E+00 -0.00000000000E+00 -0.45593999997E+02  0.45594000000E+02  0.51100000000E-03 0. -1.
    9900012    2    1    2    0    0 -0.39606053130E+02 -0.16255690639E+02  0.71229319706E+01  0.47787273248E+02  0.20000010049E+02 0.  0.
         12    1    1    2    0    0  0.39606053130E+02  0.16255690639E+02 -0.71229319706E+01  0.43400726752E+02  0.00000000000E+00 0. -1.
         11    1    3    3    0    0 -0.94482722888E+01 -0.18596233088E+01  0.12726668413E+01  0.97132759275E+01  0.51100000000E-03 0.  1.
        -11    1    3    3    0    0 -0.28923967122E+02 -0.16566185489E+02  0.18812819221E+01  0.33385230232E+02  0.51100000000E-03 0. -1.
         12    1    3    3    0    0 -0.12338137197E+01  0.21701181582E+01  0.39689832073E+01  0.46887670890E+01  0.00000000000E+00 0. -1.
</event>
<event>
 7    1  0.2328615E-009  0.4778727E+02  0.7816164E-02  0.1312668E+00
        -11   -1    0    0    0    0  0.00000000000E+00  0.00000000000E+00  0.45593999997E+02  0.45594000000E+02  0.51100000000E-03 0.  1.
         11   -1    0    0    0    0 -0.00000000000E+00 -0.00000000000E+00 -0.45593999997E+02  0.45594000000E+02  0.51100000000E-03 0. -1.
    9900012    2    1    2    0    0 -0.32172646281E+02 -0.22814056676E+02 -0.18112508517E+02  0.47787270565E+02  0.19999997814E+02 0.  0.
         12    1    1    2    0    0  0.32172646281E+02  0.22814056676E+02  0.18112508517E+02  0.43400729435E+02  0.00000000000E+00 0. -1.
         11    1    3    3    0    0  0.43388339061E+00 -0.16015571953E+01 -0.41124336524E+01  0.44345632313E+01  0.51100000000E-03 0. -1.
        -11    1    3    3    0    0 -0.14483702089E+02 -0.13331958022E+02 -0.12949225820E+02  0.23562707410E+02  0.51100000000E-03 0.  1.
         12    1    3    3    0    0 -0.18122827582E+02 -0.78805414582E+01 -0.10508490450E+01  0.19789999923E+02  0.00000000000E+00 0. -1.
</event>
<event>
 7    1  0.2328615E-009  0.4778727E+02  0.7816164E-02  0.1312668E+00
        -11   -1    0    0    0    0  0.00000000000E+00  0.00000000000E+00  0.45593999997E+02  0.45594000000E+02  0.51100000000E-03 0. -1.
         11   -1    0    0    0    0 -0.00000000000E+00 -0.00000000000E+00 -0.45593999997E+02  0.45594000000E+02  0.51100000000E-03 0.  1.
    9900012    2    1    2    0    0 -0.10236074639E+02 -0.30916700893E+02 -0.28688043791E+02  0.47787268731E+02  0.19999989454E+02 0.  0.
         12    1    1    2    0    0  0.10236074639E+02  0.30916700893E+02  0.28688043791E+02  0.43400731269E+02  0.00000000000E+00 0. -1.
         11    1    3    3    0    0 -0.31912250790E+01 -0.17245349362E+01 -0.57883785708E+01  0.68310515289E+01  0.51100000000E-03 0. -1.
        -11    1    3    3    0    0 -0.76001225996E+01 -0.37633519950E+01 -0.48747017048E+01  0.97819935974E+01  0.51100000000E-03 0.  1.
        -12    1    3    3    0    0  0.55527304013E+00 -0.25428813962E+02 -0.18024963515E+02  0.31174223605E+02  0.00000000000E+00 0.  1.
</event>
<event>
 7    1  0.2328615E-009  0.4778728E+02  0.7816164E-02  0.1312668E+00
        -11   -1    0    0    0    0  0.00000000000E+00  0.00000000000E+00  0.45593999997E+02  0.45594000000E+02  0.51100000000E-03 0.  1.
         11   -1    0    0    0    0 -0.00000000000E+00 -0.00000000000E+00 -0.45593999997E+02  0.45594000000E+02  0.51100000000E-03 0. -1.
    9900012    2    1    2    0    0  0.16191162667E+02 -0.40267242507E+02  0.13511329777E+00  0.47787276236E+02  0.20000023670E+02 0.  0.
         12    1    1    2    0    0 -0.16191162667E+02  0.40267242507E+02 -0.13511329777E+00  0.43400723764E+02  0.00000000000E+00 0. -1.
         11    1    3    3    0    0  0.98691602853E+01 -0.15477504286E+02  0.19560575795E+01  0.18460217365E+02  0.51100000000E-03 0. -1.
        -11    1    3    3    0    0  0.44341969715E+01 -0.24177709734E+02  0.23650365117E+01  0.24694476077E+02  0.51100000000E-03 0.  1.
        -12    1    3    3    0    0  0.18878054101E+01 -0.61202848749E+00 -0.41859807935E+01  0.46325827936E+01  0.00000000000E+00 0.  1.
</event>
<event>
 7    1  0.2328615E-009  0.4778727E+02  0.7816164E-02  0.1312668E+00
        -11   -1    0    0    0    0  0.00000000000E+00  0.00000000000E+00  0.45593999997E+02  0.45594000000E+02  0.51100000000E-03 0. -1.
         11   -1    0    0    0    0 -0.00000000000E+00 -0.00000000000E+00 -0.45593999997E+02  0.45594000000E+02  0.51100000000E-03 0.  1.
    9900012    2    1    2    0    0  0.33121765346E+02 -0.75352028390E+01 -0.27014679778E+02  0.47787267921E+02  0.19999985758E+02 0.  0.
         12    1    1    2    0    0 -0.33121765346E+02  0.75352028390E+01  0.27014679778E+02  0.43400732079E+02  0.00000000000E+00 0. -1.
         11    1    3    3    0    0  0.23372494572E+01 -0.82394311598E+00 -0.57460930447E+01  0.62577314438E+01  0.51100000000E-03 0.  1.
        -11    1    3    3    0    0 -0.42756808934E+00  0.29599586396E+01 -0.19402288879E+01  0.35649204784E+01  0.51100000000E-03 0. -1.
         12    1    3    3    0    0  0.31212083979E+02 -0.96712183626E+01 -0.19328357846E+02  0.37964615999E+02  0.00000000000E+00 0. -1.
</event>
<event>
 7    1  0.2328615E-009  0.4778727E+02  0.7816164E-02  0.1312668E+00
        -11   -1    0    0    0    0  0.00000000000E+00  0.00000000000E+00  0.45593999997E+02  0.45594000000E+02  0.51100000000E-03 0. -1.
         11   -1    0    0    0    0 -0.00000000000E+00 -0.00000000000E+00 -0.45593999997E+02  0.45594000000E+02  0.51100000000E-03 0.  1.
    9900012    2    1    2    0    0 -0.73223999387E+01  0.21183058473E+02 -0.37165630129E+02  0.47787267633E+02  0.19999984446E+02 0.  0.
         12    1    1    2    0    0  0.73223999387E+01 -0.21183058473E+02  0.37165630129E+02  0.43400732367E+02  0.00000000000E+00 0. -1.
         11    1    3    3    0    0 -0.61316207113E+01  0.58814792820E+01 -0.29329135723E+02  0.30535008983E+02  0.51100000000E-03 0.  1.
        -11    1    3    3    0    0  0.69518747556E-01  0.33470508401E+01 -0.17970469652E+01  0.37996000104E+01  0.51100000000E-03 0. -1.
        -12    1    3    3    0    0 -0.12602979750E+01  0.11954528351E+02 -0.60394474405E+01  0.13452658639E+02  0.00000000000E+00 0.  1.
</event>
<event>
 7    1  0.2328615E-009  0.4778727E+02  0.7816164E-02  0.1312668E+00
        -11   -1    0    0    0    0  0.00000000000E+00  0.00000000000E+00  0.45593999997E+02  0.45594000000E+02  0.51100000000E-03 0. -1.
         11   -1    0    0    0    0 -0.00000000000E+00 -0.00000000000E+00 -0.45593999997E+02  0.45594000000E+02  0.51100000000E-03 0.  1.
    9900012    2    1    2    0    0  0.12597550106E+02  0.35986869942E+02 -0.20733310749E+02  0.47787271302E+02  0.20000001176E+02 0.  0.
         12    1    1    2    0    0 -0.12597550106E+02 -0.35986869942E+02  0.20733310749E+02  0.43400728698E+02  0.00000000000E+00 0. -1.
         11    1    3    3    0    0 -0.14223572929E+01  0.12751565704E+02 -0.92289830176E+01  0.15805051597E+02  0.51100000000E-03 0. -1.
        -11    1    3    3    0    0 -0.14497536720E+01  0.72276126952E+00  0.10391144534E+01  0.19245593445E+01  0.51100000000E-03 0.  1.
        -12    1    3    3    0    0  0.15469661070E+02  0.22512542968E+02 -0.12543442185E+02  0.30057660361E+02  0.00000000000E+00 0.  1.
</event>
<event>
 7    1  0.2328615E-009  0.4778728E+02  0.7816164E-02  0.1312668E+00
        -11   -1    0    0    0    0  0.00000000000E+00  0.00000000000E+00  0.45593999997E+02  0.45594000000E+02  0.51100000000E-03 0. -1.
         11   -1    0    0    0    0 -0.00000000000E+00 -0.00000000000E+00 -0.45593999997E+02  0.45594000000E+02  0.51100000000E-03 0.  1.
    9900012    2    1    2    0    0 -0.37270443733E+02  0.21204019034E+02 -0.67026909165E+01  0.47787280366E+02  0.20000042499E+02 0.  0.
         12    1    1    2    0    0  0.37270443733E+02 -0.21204019034E+02  0.67026909165E+01  0.43400719634E+02  0.00000000000E+00 0. -1.
         11    1    3    3    0    0 -0.10490058837E+02  0.13052828685E+02 -0.92384051562E+01  0.19125004606E+02  0.51100000000E-03 0. -1.
        -11    1    3    3    0    0 -0.15451014732E+01 -0.40282450579E+00 -0.83902557108E+00  0.18037655931E+01  0.51100000000E-03 0.  1.
        -12    1    3    3    0    0 -0.25235283423E+02  0.85540148548E+01  0.33747398108E+01  0.26858510167E+02  0.00000000000E+00 0.  1.
</event>
<event>
 7    1  0.2328615E-009  0.4778727E+02  0.7816164E-02  0.1312668E+00
        -11   -1    0    0    0    0  0.00000000000E+00  0.00000000000E+00  0.45593999997E+02  0.45594000000E+02  0.51100000000E-03 0.  1.
         11   -1    0    0    0    0 -0.00000000000E+00 -0.00000000000E+00 -0.45593999997E+02  0.45594000000E+02  0.51100000000E-03 0. -1.
    9900012    2    1    2    0    0 -0.65613788393E+01  0.33772773107E+02  0.26456975343E+02  0.47787269132E+02  0.19999991280E+02 0.  0.
         12    1    1    2    0    0  0.65613788393E+01 -0.33772773107E+02 -0.26456975343E+02  0.43400730868E+02  0.00000000000E+00 0. -1.
         11    1    3    3    0    0 -0.28771744406E+01  0.25452833144E+01 -0.38568547387E+00  0.38607451947E+01  0.51100000000E-03 0. -1.
        -11    1    3    3    0    0 -0.63649682684E+01  0.30114260091E+02  0.20585814879E+02  0.37029140638E+02  0.51100000000E-03 0.  1.
        -12    1    3    3    0    0  0.26807638698E+01  0.11132297015E+01  0.62568459377E+01  0.68973832996E+01  0.00000000000E+00 0.  1.
</event>
<event>
 7    1  0.2328615E-009  0.4778729E+02  0.7816164E-02  0.1312668E+00
        -11   -1    0    0    0    0  0.00000000000E+00  0.00000000000E+00  0.45593999997E+02  0.45594000000E+02  0.51100000000E-03 0.  1.
         11   -1    0    0    0    0 -0.00000000000E+00 -0.00000000000E+00 -0.45593999997E+02  0.45594000000E+02  0.51100000000E-03 0. -1.
    9900012    2    1    2    0    0 -0.14867796199E+02 -0.18254104018E+02  0.36460365660E+02  0.47787286395E+02  0.20000069991E+02 0.  0.
         12    1    1    2    0    0  0.14867796199E+02  0.18254104018E+02 -0.36460365660E+02  0.43400713605E+02  0.00000000000E+00 0. -1.
         11    1    3    3    0    0 -0.40542999206E+01 -0.13049375919E+01  0.49800756214E+00  0.42881489898E+01  0.51100000000E-03 0. -1.
        -11    1    3    3    0    0 -0.91294726816E+01 -0.12919077696E+02  0.14056607267E+02  0.21162184388E+02  0.51100000000E-03 0.  1.
        -12    1    3    3    0    0 -0.16840235970E+01 -0.40300887305E+01  0.21905750831E+02  0.22336953018E+02  0.00000000000E+00 0.  1.
</event>
<event>
 7    1  0.2328615E-009  0.4778727E+02  0.7816164E-02  0.1312668E+00
        -11   -1    0    0    0    0  0.00000000000E+00  0.00000000000E+00  0.45593999997E+02  0.45594000000E+02  0.51100000000E-03 0.  1.
         11   -1    0    0    0    0 -0.00000000000E+00 -0.00000000000E+00 -0.45593999997E+02  0.45594000000E+02  0.51100000000E-03 0. -1.
    9900012    2    1    2    0    0  0.34203032040E+02 -0.25240152909E+02  0.87584380286E+01  0.47787274704E+02  0.20000016683E+02 0.  0.
         12    1    1    2    0    0 -0.34203032040E+02  0.25240152909E+02 -0.87584380286E+01  0.43400725296E+02  0.00000000000E+00 0. -1.
         11    1    3    3    0    0  0.86987230653E+01 -0.61765525985E+01 -0.30634102279E+01  0.11099642672E+02  0.51100000000E-03 0. -1.
        -11    1    3    3    0    0  0.11949554242E+02 -0.70402186375E+01 -0.18462320174E+01  0.13991608127E+02  0.51100000000E-03 0.  1.
         12    1    3    3    0    0  0.13554754732E+02 -0.12023381673E+02  0.13668080274E+02  0.22696023905E+02  0.00000000000E+00 0. -1.
</event>
<event>
 7    1  0.2328615E-009  0.4778732E+02  0.7816164E-02  0.1312668E+00
        -11   -1    0    0    0    0  0.00000000000E+00  0.00000000000E+00  0.45593999997E+02  0.45594000000E+02  0.51100000000E-03 0. -1.
         11   -1    0    0    0    0 -0.00000000000E+00 -0.00000000000E+00 -0.45593999997E+02  0.45594000000E+02  0.51100000000E-03 0.  1.
    9900012    2    1    2    0    0 -0.83027785574E+01  0.53866703602E+01 -0.42257150809E+02  0.47787318625E+02  0.20000216936E+02 0.  0.
         12    1    1    2    0    0  0.83027785574E+01 -0.53866703602E+01  0.42257150809E+02  0.43400681375E+02  0.00000000000E+00 0. -1.
         11    1    3    3    0    0 -0.68817787614E+01 -0.40333794393E+01 -0.17156789355E+02  0.18920424146E+02  0.51100000000E-03 0. -1.
        -11    1    3    3    0    0 -0.49226949866E+01  0.89804025372E+01 -0.21556290028E+02  0.23865334602E+02  0.51100000000E-03 0.  1.
        -12    1    3    3    0    0  0.35016951906E+01  0.43964726238E+00 -0.35440714261E+01  0.50015598763E+01  0.00000000000E+00 0.  1.
</event>
<event>
 7    1  0.2328615E-009  0.4778727E+02  0.7816164E-02  0.1312668E+00
        -11   -1    0    0    0    0  0.00000000000E+00  0.00000000000E+00  0.45593999997E+02  0.45594000000E+02  0.51100000000E-03 0.  1.
         11   -1    0    0    0    0 -0.00000000000E+00 -0.00000000000E+00 -0.45593999997E+02  0.45594000000E+02  0.51100000000E-03 0. -1.
    9900012    2    1    2    0    0  0.95425227343E+00 -0.37693766707E+01  0.43226202265E+02  0.47787270050E+02  0.19999995468E+02 0.  0.
         12    1    1    2    0    0 -0.95425227343E+00  0.37693766707E+01 -0.43226202265E+02  0.43400729950E+02  0.00000000000E+00 0. -1.
         11    1    3    3    0    0  0.19337323062E+01  0.11294328618E+01  0.13485426391E+02  0.13670101112E+02  0.51100000000E-03 0. -1.
        -11    1    3    3    0    0  0.58200916886E+01 -0.43477643548E+01  0.24384848342E+02  0.25444004227E+02  0.51100000000E-03 0.  1.
         12    1    3    3    0    0 -0.67995717213E+01 -0.55104517761E+00  0.53559275320E+01  0.86731647113E+01  0.00000000000E+00 0. -1.
</event>
<event>
 7    1  0.2328615E-009  0.4778727E+02  0.7816164E-02  0.1312668E+00
        -11   -1    0    0    0    0  0.00000000000E+00  0.00000000000E+00  0.45593999997E+02  0.45594000000E+02  0.51100000000E-03 0.  1.
         11   -1    0    0    0    0 -0.00000000000E+00 -0.00000000000E+00 -0.45593999997E+02  0.45594000000E+02  0.51100000000E-03 0. -1.
    9900012    2    1    2    0    0 -0.39391329725E+02  0.44000763010E+01  0.17680099882E+02  0.47787268891E+02  0.19999990180E+02 0.  0.
         12    1    1    2    0    0  0.39391329725E+02 -0.44000763010E+01 -0.17680099882E+02  0.43400731109E+02  0.00000000000E+00 0. -1.
         11    1    3    3    0    0 -0.15610509765E+02 -0.72884920567E+01  0.59131481423E+01  0.18214704302E+02  0.51100000000E-03 0. -1.
        -11    1    3    3    0    0 -0.91266528800E+01  0.35837795669E+01  0.14717340603E+01  0.99149014207E+01  0.51100000000E-03 0.  1.
         12    1    3    3    0    0 -0.14654167080E+02  0.81047887908E+01  0.10295217679E+02  0.19657663168E+02  0.00000000000E+00 0. -1.
</event>
<event>
 7    1  0.2328615E-009  0.4778725E+02  0.7816164E-02  0.1312668E+00
        -11   -1    0    0    0    0  0.00000000000E+00  0.00000000000E+00  0.45593999997E+02  0.45594000000E+02  0.51100000000E-03 0.  1.
         11   -1    0    0    0    0 -0.00000000000E+00 -0.00000000000E+00 -0.45593999997E+02  0.45594000000E+02  0.51100000000E-03 0. -1.
    9900012    2    1    2    0    0  0.26722053524E+02 -0.31724009053E+02  0.12772780787E+02  0.47787253186E+02  0.19999918578E+02 0.  0.
         12    1    1    2    0    0 -0.26722053524E+02  0.31724009053E+02 -0.12772780787E+02  0.43400746814E+02  0.00000000000E+00 0. -1.
         11    1    3    3    0    0  0.12926177126E+02 -0.10884515490E+02  0.17082570132E+01  0.16984606997E+02  0.51100000000E-03 0. -1.
        -11    1    3    3    0    0  0.12893216114E+02 -0.14112096507E+02  0.16359497985E+01  0.19184958212E+02  0.51100000000E-03 0.  1.
         12    1    3    3    0    0  0.90266028326E+00 -0.67273970563E+01  0.94285739750E+01  0.11617687978E+02  0.00000000000E+00 0. -1.
</event>
<event>
 7    1  0.2328615E-009  0.4778729E+02  0.7816164E-02  0.1312668E+00
        -11   -1    0    0    0    0  0.00000000000E+00  0.00000000000E+00  0.45593999997E+02  0.45594000000E+02  0.51100000000E-03 0.  1.
         11   -1    0    0    0    0 -0.00000000000E+00 -0.00000000000E+00 -0.45593999997E+02  0.45594000000E+02  0.51100000000E-03 0. -1.
    9900012    2    1    2    0    0  0.36891873689E+02 -0.20777890514E+02  0.95336592845E+01  0.47787288740E+02  0.20000080681E+02 0.  0.
         12    1    1    2    0    0 -0.36891873689E+02  0.20777890514E+02 -0.95336592845E+01  0.43400711260E+02  0.00000000000E+00 0. -1.
         11    1    3    3    0    0  0.44133570481E+00 -0.29332256451E+01  0.29331534685E+01  0.41715679810E+01  0.51100000000E-03 0. -1.
        -11    1    3    3    0    0  0.63639459545E+01 -0.84394746231E+01 -0.23889702502E+01  0.10836591676E+02  0.51100000000E-03 0.  1.
        -12    1    3    3    0    0  0.30086592030E+02 -0.94051902460E+01  0.89894760662E+01  0.32779129084E+02  0.00000000000E+00 0.  1.
</event>
<event>
 7    1  0.2328615E-009  0.4778727E+02  0.7816164E-02  0.1312668E+00
        -11   -1    0    0    0    0  0.00000000000E+00  0.00000000000E+00  0.45593999997E+02  0.45594000000E+02  0.51100000000E-03 0.  1.
         11   -1    0    0    0    0 -0.00000000000E+00 -0.00000000000E+00 -0.45593999997E+02  0.45594000000E+02  0.51100000000E-03 0. -1.
    9900012    2    1    2    0    0  0.24227876580E+02 -0.21195815370E+02  0.29109629669E+02  0.47787272676E+02  0.20000007437E+02 0.  0.
         12    1    1    2    0    0 -0.24227876580E+02  0.21195815370E+02 -0.29109629669E+02  0.43400727324E+02  0.00000000000E+00 0. -1.
         11    1    3    3    0    0  0.13825464499E+02 -0.56696515344E+01  0.82679762637E+01  0.17077700340E+02  0.51100000000E-03 0. -1.
        -11    1    3    3    0    0  0.64148794644E+01 -0.73347462242E+01  0.22423663046E+01  0.99988693172E+01  0.51100000000E-03 0.  1.
        -12    1    3    3    0    0  0.39875326165E+01 -0.81914176119E+01  0.18599287101E+02  0.20710703018E+02  0.00000000000E+00 0.  1.
</event>
<event>
 7    1  0.2328615E-009  0.4778727E+02  0.7816164E-02  0.1312668E+00
        -11   -1    0    0    0    0  0.00000000000E+00  0.00000000000E+00  0.45593999997E+02  0.45594000000E+02  0.51100000000E-03 0.  1.
         11   -1    0    0    0    0 -0.00000000000E+00 -0.00000000000E+00 -0.45593999997E+02  0.45594000000E+02  0.51100000000E-03 0. -1.
    9900012    2    1    2    0    0 -0.11657673883E+01  0.17337515671E+02  0.39770278692E+02  0.47787268089E+02  0.19999986524E+02 0.  0.
         12    1    1    2    0    0  0.11657673883E+01 -0.17337515671E+02 -0.39770278692E+02  0.43400731911E+02  0.00000000000E+00 0. -1.
         11    1    3    3    0    0  0.10806681107E+01  0.84544084167E+01  0.17007577251E+02  0.19023736474E+02  0.51100000000E-03 0. -1.
        -11    1    3    3    0    0 -0.72475282516E+00  0.13086582401E+02  0.16614836852E+02  0.21162152761E+02  0.51100000000E-03 0.  1.
         12    1    3    3    0    0 -0.15216826739E+01 -0.42034751471E+01  0.61478645890E+01  0.76013788537E+01  0.00000000000E+00 0. -1.
</event>
<event>
 7    1  0.2328615E-009  0.4778727E+02  0.7816164E-02  0.1312668E+00
        -11   -1    0    0    0    0  0.00000000000E+00  0.00000000000E+00  0.45593999997E+02  0.45594000000E+02  0.51100000000E-03 0.  1.
         11   -1    0    0    0    0 -0.00000000000E+00 -0.00000000000E+00 -0.45593999997E+02  0.45594000000E+02  0.51100000000E-03 0. -1.
    9900012    2    1    2    0    0 -0.38646846817E+02 -0.15338676386E+02  0.12440638226E+02  0.47787271416E+02  0.20000001694E+02 0.  0.
         12    1    1    2    0    0  0.38646846817E+02  0.15338676386E+02 -0.12440638226E+02  0.43400728584E+02  0.00000000000E+00 0. -1.
         11    1    3    3    0    0 -0.21605994206E+02 -0.88863424889E+01  0.92952772515E+01  0.25143353951E+02  0.51100000000E-03 0.  1.
        -11    1    3    3    0    0 -0.54970017893E+01 -0.10743210742E+00  0.70167029329E+01  0.89141847995E+01  0.51100000000E-03 0. -1.
         12    1    3    3    0    0 -0.11543850822E+02 -0.63449017894E+01 -0.38713419586E+01  0.13729732666E+02  0.00000000000E+00 0. -1.
</event>
<event>
 7    1  0.2328615E-009  0.4778727E+02  0.7816164E-02  0.1312668E+00
        -11   -1    0    0    0    0  0.00000000000E+00  0.00000000000E+00  0.45593999997E+02  0.45594000000E+02  0.51100000000E-03 0.  1.
         11   -1    0    0    0    0 -0.00000000000E+00 -0.00000000000E+00 -0.45593999997E+02  0.45594000000E+02  0.51100000000E-03 0. -1.
    9900012    2    1    2    0    0  0.10633177144E+02  0.40494281993E+02 -0.11435554330E+02  0.47787271514E+02  0.20000002141E+02 0.  0.
         12    1    1    2    0    0 -0.10633177144E+02 -0.40494281993E+02  0.11435554330E+02  0.43400728486E+02  0.00000000000E+00 0. -1.
         11    1    3    3    0    0  0.24042573044E+01 -0.55658438731E+00 -0.19410707253E+00  0.24754630239E+01  0.51100000000E-03 0. -1.
        -11    1    3    3    0    0  0.89515013407E+01  0.17396560086E+02 -0.11909802567E+01  0.19600717163E+02  0.51100000000E-03 0.  1.
         12    1    3    3    0    0 -0.72258150117E+00  0.23654306294E+02 -0.10050467001E+02  0.25711091327E+02  0.00000000000E+00 0. -1.
</event>
<event>
 7    1  0.2328615E-009  0.4778727E+02  0.7816164E-02  0.1312668E+00
        -11   -1    0    0    0    0  0.00000000000E+00  0.00000000000E+00  0.45593999997E+02  0.45594000000E+02  0.51100000000E-03 0. -1.
         11   -1    0    0    0    0 -0.00000000000E+00 -0.00000000000E+00 -0.45593999997E+02  0.45594000000E+02  0.51100000000E-03 0.  1.
    9900012    2    1    2    0    0  0.25705212463E+02  0.23074835431E+02  0.26275794914E+02  0.47787269864E+02  0.19999994618E+02 0.  0.
         12    1    1    2    0    0 -0.25705212463E+02 -0.23074835431E+02 -0.26275794914E+02  0.43400730136E+02  0.00000000000E+00 0. -1.
         11    1    3    3    0    0  0.86966262725E+01  0.91311828692E+01  0.39714865445E+01  0.13220533830E+02  0.51100000000E-03 0. -1.
        -11    1    3    3    0    0  0.58998364365E+01  0.13364359200E+02  0.16435934701E+02  0.21989863951E+02  0.51100000000E-03 0.  1.
         12    1    3    3    0    0  0.11108749754E+02  0.57929336260E+00  0.58683736683E+01  0.12576872084E+02  0.00000000000E+00 0. -1.
</event>
<event>
 7    1  0.2328615E-009  0.4778728E+02  0.7816164E-02  0.1312668E+00
        -11   -1    0    0    0    0  0.00000000000E+00  0.00000000000E+00  0.45593999997E+02  0.45594000000E+02  0.51100000000E-03 0.  1.
         11   -1    0    0    0    0 -0.00000000000E+00 -0.00000000000E+00 -0.45593999997E+02  0.45594000000E+02  0.51100000000E-03 0. -1.
    9900012    2    1    2    0    0 -0.38109821880E+01 -0.18653499934E+01  0.43192818757E+02  0.47787277564E+02  0.20000029724E+02 0.  0.
         12    1    1    2    0    0  0.38109821880E+01  0.18653499934E+01 -0.43192818757E+02  0.43400722436E+02  0.00000000000E+00 0. -1.
         11    1    3    3    0    0  0.18027700278E+00  0.11151004891E+01 -0.17439229099E+01  0.20777912011E+01  0.51100000000E-03 0. -1.
        -11    1    3    3    0    0 -0.34807363809E+01  0.12432601486E+01  0.13921123322E+02  0.14403433492E+02  0.51100000000E-03 0.  1.
        -12    1    3    3    0    0 -0.51052280987E+00 -0.42237106311E+01  0.31015618344E+02  0.31306052870E+02  0.00000000000E+00 0.  1.
</event>
<event>
 7    1  0.2328615E-009  0.4778730E+02  0.7816164E-02  0.1312668E+00
        -11   -1    0    0    0    0  0.00000000000E+00  0.00000000000E+00  0.45593999997E+02  0.45594000000E+02  0.51100000000E-03 0.  1.
         11   -1    0    0    0    0 -0.00000000000E+00 -0.00000000000E+00 -0.45593999997E+02  0.45594000000E+02  0.51100000000E-03 0. -1.
    9900012    2    1    2    0    0 -0.10357605634E+02  0.74786715367E+01  0.41477832243E+02  0.47787296203E+02  0.20000114709E+02 0.  0.
         12    1    1    2    0    0  0.10357605634E+02 -0.74786715367E+01 -0.41477832243E+02  0.43400703797E+02  0.00000000000E+00 0. -1.
         11    1    3    3    0    0  0.12165615574E+01  0.71767567920E+01  0.14608134460E+02  0.16321257695E+02  0.51100000000E-03 0. -1.
        -11    1    3    3    0    0 -0.88089463663E+01  0.55471880988E+01  0.18093868813E+02  0.20874791514E+02  0.51100000000E-03 0.  1.
        -12    1    3    3    0    0 -0.27652208255E+01 -0.52452733542E+01  0.87758289702E+01  0.10591246994E+02  0.00000000000E+00 0.  1.
</event>
<event>
 7    1  0.2482706E-009  0.4778727E+02  0.7816164E-02  0.1312668E+00
        -11   -1    0    0    0    0  0.00000000000E+00  0.00000000000E+00  0.45593999997E+02  0.45594000000E+02  0.51100000000E-03 0. -1.
         11   -1    0    0    0    0 -0.00000000000E+00 -0.00000000000E+00 -0.45593999997E+02  0.45594000000E+02  0.51100000000E-03 0.  1.
    9900012    2    1    2    0    0  0.90552096476E+01  0.42388361288E+02 -0.22029760518E+01  0.47787273071E+02  0.20000009242E+02 0.  0.
         12    1    1    2    0    0 -0.90552096476E+01 -0.42388361288E+02  0.22029760518E+01  0.43400726929E+02  0.00000000000E+00 0. -1.
         11    1    3    3    0    0  0.37469627345E+01  0.16884737145E+01 -0.13650051217E+01  0.43305787675E+01  0.51100000000E-03 0. -1.
        -11    1    3    3    0    0  0.77544282141E+01  0.21926648934E+02 -0.56268939269E+01  0.23928456405E+02  0.51100000000E-03 0.  1.
        -12    1    3    3    0    0 -0.24461813010E+01  0.18773238640E+02  0.47889229968E+01  0.19528237899E+02  0.00000000000E+00 0.  1.
</event>
<event>
 7    1  0.2328615E-009  0.4778727E+02  0.7816164E-02  0.1312668E+00
        -11   -1    0    0    0    0  0.00000000000E+00  0.00000000000E+00  0.45593999997E+02  0.45594000000E+02  0.51100000000E-03 0.  1.
         11   -1    0    0    0    0 -0.00000000000E+00 -0.00000000000E+00 -0.45593999997E+02  0.45594000000E+02  0.51100000000E-03 0. -1.
    9900012    2    1    2    0    0  0.82396005927E+01  0.60916402525E+01  0.42173738344E+02  0.47787270689E+02  0.19999998378E+02 0.  0.
         12    1    1    2    0    0 -0.82396005927E+01 -0.60916402525E+01 -0.42173738344E+02  0.43400729311E+02  0.00000000000E+00 0. -1.
         11    1    3    3    0    0  0.27297735489E+01 -0.29148896492E+01  0.38073501465E+00  0.40116336707E+01  0.51100000000E-03 0. -1.
        -11    1    3    3    0    0  0.24781012913E+01  0.28390122448E+00  0.30138713166E+01  0.39121613578E+01  0.51100000000E-03 0.  1.
        -12    1    3    3    0    0  0.30317257524E+01  0.87226286773E+01  0.38779132012E+02  0.39863475660E+02  0.00000000000E+00 0.  1.
</event>
<event>
 7    1  0.2328615E-009  0.4778727E+02  0.7816164E-02  0.1312668E+00
        -11   -1    0    0    0    0  0.00000000000E+00  0.00000000000E+00  0.45593999997E+02  0.45594000000E+02  0.51100000000E-03 0.  1.
         11   -1    0    0    0    0 -0.00000000000E+00 -0.00000000000E+00 -0.45593999997E+02  0.45594000000E+02  0.51100000000E-03 0. -1.
    9900012    2    1    2    0    0  0.34009245539E+02  0.11138187181E+02  0.24554734175E+02  0.47787274589E+02  0.20000016160E+02 0.  0.
         12    1    1    2    0    0 -0.34009245539E+02 -0.11138187181E+02 -0.24554734175E+02  0.43400725411E+02  0.00000000000E+00 0. -1.
         11    1    3    3    0    0  0.50773634720E+01 -0.93989258973E+00  0.96904799749E+01  0.10980365218E+02  0.51100000000E-03 0. -1.
        -11    1    3    3    0    0  0.46195339608E+01  0.53626080350E+01  0.79693717520E+01  0.10658730944E+02  0.51100000000E-03 0.  1.
         12    1    3    3    0    0  0.24312348107E+02  0.67154717357E+01  0.68948824477E+01  0.26148178427E+02  0.00000000000E+00 0. -1.
</event>
<event>
 7    1  0.2328615E-009  0.4778728E+02  0.7816164E-02  0.1312668E+00
        -11   -1    0    0    0    0  0.00000000000E+00  0.00000000000E+00  0.45593999997E+02  0.45594000000E+02  0.51100000000E-03 0.  1.
         11   -1    0    0    0    0 -0.00000000000E+00 -0.00000000000E+00 -0.45593999997E+02  0.45594000000E+02  0.51100000000E-03 0. -1.
    9900012    2    1    2    0    0 -0.35220862075E+02  0.18788900890E+02  0.17032058033E+02  0.47787275089E+02  0.20000018439E+02 0.  0.
         12    1    1    2    0    0  0.35220862075E+02 -0.18788900890E+02 -0.17032058033E+02  0.43400724911E+02  0.00000000000E+00 0. -1.
         11    1    3    3    0    0 -0.18278599975E+02  0.13971263962E+02 -0.26338555674E+00  0.23008103049E+02  0.51100000000E-03 0. -1.
        -11    1    3    3    0    0 -0.63368921182E+01  0.19731251059E+01  0.51086758484E+01  0.83754399040E+01  0.51100000000E-03 0.  1.
         12    1    3    3    0    0 -0.10605369982E+02  0.28445118227E+01  0.12186767742E+02  0.16403732135E+02  0.00000000000E+00 0. -1.
</event>
<event>
 7    1  0.2328615E-009  0.4778729E+02  0.7816164E-02  0.1312668E+00
        -11   -1    0    0    0    0  0.00000000000E+00  0.00000000000E+00  0.45593999997E+02  0.45594000000E+02  0.51100000000E-03 0.  1.
         11   -1    0    0    0    0 -0.00000000000E+00 -0.00000000000E+00 -0.45593999997E+02  0.45594000000E+02  0.51100000000E-03 0. -1.
    9900012    2    1    2    0    0 -0.20543044406E+02 -0.20118252532E+02  0.32509394663E+02  0.47787291483E+02  0.20000093187E+02 0.  0.
         12    1    1    2    0    0  0.20543044406E+02  0.20118252532E+02 -0.32509394663E+02  0.43400708517E+02  0.00000000000E+00 0. -1.
         11    1    3    3    0    0 -0.36230357932E+00 -0.15106134118E+01 -0.18577060714E+01  0.24216293837E+01  0.51100000000E-03 0. -1.
        -11    1    3    3    0    0  0.11126678683E+01  0.83399325589E-01  0.53749867949E+00  0.12385032597E+01  0.51100000000E-03 0.  1.
        -12    1    3    3    0    0 -0.21293408695E+02 -0.18691038446E+02  0.33829602055E+02  0.44127158839E+02  0.00000000000E+00 0.  1.
</event>
<event>
 7    1  0.2328615E-009  0.4778727E+02  0.7816164E-02  0.1312668E+00
        -11   -1    0    0    0    0  0.00000000000E+00  0.00000000000E+00  0.45593999997E+02  0.45594000000E+02  0.51100000000E-03 0.  1.
         11   -1    0    0    0    0 -0.00000000000E+00 -0.00000000000E+00 -0.45593999997E+02  0.45594000000E+02  0.51100000000E-03 0. -1.
    9900012    2    1    2    0    0  0.16950263956E+02  0.14233306508E+02  0.37332629824E+02  0.47787265998E+02  0.19999976993E+02 0.  0.
         12    1    1    2    0    0 -0.16950263956E+02 -0.14233306508E+02 -0.37332629824E+02  0.43400734002E+02  0.00000000000E+00 0. -1.
         11    1    3    3    0    0  0.51108772522E+01  0.72553938937E+01  0.16900727469E+02  0.19089169602E+02  0.51100000000E-03 0. -1.
        -11    1    3    3    0    0 -0.21137681590E+01  0.54811539548E+01  0.40924135844E+01  0.71595330653E+01  0.51100000000E-03 0.  1.
         12    1    3    3    0    0  0.13953154862E+02  0.14967586598E+01  0.16339488770E+02  0.21538563331E+02  0.00000000000E+00 0. -1.
</event>
<event>
 7    1  0.2328615E-009  0.4778727E+02  0.7816164E-02  0.1312668E+00
        -11   -1    0    0    0    0  0.00000000000E+00  0.00000000000E+00  0.45593999997E+02  0.45594000000E+02  0.51100000000E-03 0. -1.
         11   -1    0    0    0    0 -0.00000000000E+00 -0.00000000000E+00 -0.45593999997E+02  0.45594000000E+02  0.51100000000E-03 0.  1.
    9900012    2    1    2    0    0  0.20275029565E+02 -0.24431150269E+02 -0.29591644159E+02  0.47787270382E+02  0.19999996979E+02 0.  0.
         12    1    1    2    0    0 -0.20275029565E+02  0.24431150269E+02  0.29591644159E+02  0.43400729618E+02  0.00000000000E+00 0. -1.
         11    1    3    3    0    0  0.50967871721E+01 -0.31390614996E+01 -0.64963718324E+00  0.60210443701E+01  0.51100000000E-03 0. -1.
        -11    1    3    3    0    0  0.54938862432E+01 -0.58060530260E+01 -0.19776300517E+02  0.21330614155E+02  0.51100000000E-03 0.  1.
         12    1    3    3    0    0  0.96843561498E+01 -0.15486035744E+02 -0.91657064587E+01  0.20435611857E+02  0.00000000000E+00 0. -1.
</event>
<event>
 7    1  0.2328615E-009  0.4778727E+02  0.7816164E-02  0.1312668E+00
        -11   -1    0    0    0    0  0.00000000000E+00  0.00000000000E+00  0.45593999997E+02  0.45594000000E+02  0.51100000000E-03 0.  1.
         11   -1    0    0    0    0 -0.00000000000E+00 -0.00000000000E+00 -0.45593999997E+02  0.45594000000E+02  0.51100000000E-03 0. -1.
    9900012    2    1    2    0    0  0.42582041167E+01 -0.42287373918E+02 -0.87902776586E+01  0.47787271014E+02  0.19999999861E+02 0.  0.
         12    1    1    2    0    0 -0.42582041167E+01  0.42287373918E+02  0.87902776586E+01  0.43400728986E+02  0.00000000000E+00 0. -1.
         11    1    3    3    0    0 -0.19516979415E+01 -0.18671632745E+02 -0.69794230691E+01  0.20028762839E+02  0.51100000000E-03 0. -1.
        -11    1    3    3    0    0  0.37738927022E+01 -0.24071992184E+02  0.49828168432E+00  0.24371117306E+02  0.51100000000E-03 0.  1.
        -12    1    3    3    0    0  0.24360093560E+01  0.45625101105E+00 -0.23091362738E+01  0.33873908689E+01  0.00000000000E+00 0.  1.
</event>
<event>
 7    1  0.2328615E-009  0.4778727E+02  0.7816164E-02  0.1312668E+00
        -11   -1    0    0    0    0  0.00000000000E+00  0.00000000000E+00  0.45593999997E+02  0.45594000000E+02  0.51100000000E-03 0.  1.
         11   -1    0    0    0    0 -0.00000000000E+00 -0.00000000000E+00 -0.45593999997E+02  0.45594000000E+02  0.51100000000E-03 0. -1.
    9900012    2    1    2    0    0  0.12747379924E+02  0.54254187127E+01  0.41130193623E+02  0.47787266244E+02  0.19999978111E+02 0.  0.
         12    1    1    2    0    0 -0.12747379924E+02 -0.54254187127E+01 -0.41130193623E+02  0.43400733756E+02  0.00000000000E+00 0. -1.
         11    1    3    3    0    0  0.92052751775E+00 -0.24384441556E+01  0.19702524040E+02  0.19874175068E+02  0.51100000000E-03 0. -1.
        -11    1    3    3    0    0  0.58584081390E+01  0.28887557711E+01  0.18483866636E+02  0.19604060342E+02  0.51100000000E-03 0.  1.
         12    1    3    3    0    0  0.59684442677E+01  0.49751070972E+01  0.29438029466E+01  0.83090308336E+01  0.00000000000E+00 0. -1.
</event>
<event>
 7    1  0.2328615E-009  0.4778727E+02  0.7816164E-02  0.1312668E+00
        -11   -1    0    0    0    0  0.00000000000E+00  0.00000000000E+00  0.45593999997E+02  0.45594000000E+02  0.51100000000E-03 0. -1.
         11   -1    0    0    0    0 -0.00000000000E+00 -0.00000000000E+00 -0.45593999997E+02  0.45594000000E+02  0.51100000000E-03 0.  1.
    9900012    2    1    2    0    0  0.13486367926E+02 -0.14602849481E+02 -0.38581057458E+02  0.47787270428E+02  0.19999997189E+02 0.  0.
         12    1    1    2    0    0 -0.13486367926E+02  0.14602849481E+02  0.38581057458E+02  0.43400729572E+02  0.00000000000E+00 0. -1.
         11    1    3    3    0    0  0.72303717968E+01 -0.66024068713E+01 -0.39805088626E+01  0.10569508214E+02  0.51100000000E-03 0. -1.
        -11    1    3    3    0    0 -0.15054726237E+01 -0.44936204397E+01 -0.81258688415E+01  0.94068494814E+01  0.51100000000E-03 0.  1.
        -12    1    3    3    0    0  0.77614687533E+01 -0.35068221699E+01 -0.26474679754E+02  0.27810912733E+02  0.00000000000E+00 0.  1.
</event>
<event>
 7    1  0.2328615E-009  0.4778727E+02  0.7816164E-02  0.1312668E+00
        -11   -1    0    0    0    0  0.00000000000E+00  0.00000000000E+00  0.45593999997E+02  0.45594000000E+02  0.51100000000E-03 0.  1.
         11   -1    0    0    0    0 -0.00000000000E+00 -0.00000000000E+00 -0.45593999997E+02  0.45594000000E+02  0.51100000000E-03 0. -1.
    9900012    2    1    2    0    0  0.41268150145E+02 -0.66787688485E+01  0.11660071453E+02  0.47787269177E+02  0.19999991485E+02 0.  0.
         12    1    1    2    0    0 -0.41268150145E+02  0.66787688485E+01 -0.11660071453E+02  0.43400730823E+02  0.00000000000E+00 0. -1.
         11    1    3    3    0    0  0.58158482931E+01  0.49454149794E+01  0.28234605368E+01  0.81396038202E+01  0.51100000000E-03 0. -1.
        -11    1    3    3    0    0  0.27919177656E+02 -0.52194400478E+01  0.41466356016E+01  0.28703965275E+02  0.51100000000E-03 0.  1.
        -12    1    3    3    0    0  0.75331241952E+01 -0.64047437800E+01  0.46899753146E+01  0.10943700082E+02  0.00000000000E+00 0.  1.
</event>
<event>
 7    1  0.2328615E-009  0.4778731E+02  0.7816164E-02  0.1312668E+00
        -11   -1    0    0    0    0  0.00000000000E+00  0.00000000000E+00  0.45593999997E+02  0.45594000000E+02  0.51100000000E-03 0.  1.
         11   -1    0    0    0    0 -0.00000000000E+00 -0.00000000000E+00 -0.45593999997E+02  0.45594000000E+02  0.51100000000E-03 0. -1.
    9900012    2    1    2    0    0  0.40552066056E+02  0.15282192185E+02 -0.23674544146E+01  0.47787305307E+02  0.20000156217E+02 0.  0.
         12    1    1    2    0    0 -0.40552066056E+02 -0.15282192185E+02  0.23674544146E+01  0.43400694693E+02  0.00000000000E+00 0. -1.
         11    1    3    3    0    0 -0.59856041408E+00 -0.13265568560E+01 -0.14662140159E+01  0.20658682105E+01  0.51100000000E-03 0. -1.
        -11    1    3    3    0    0  0.16093054878E+02  0.91522203072E+00  0.43480912752E+00  0.16124921889E+02  0.51100000000E-03 0.  1.
        -12    1    3    3    0    0  0.25057571592E+02  0.15693527011E+02 -0.13360495263E+01  0.29596515208E+02  0.00000000000E+00 0.  1.
</event>
<event>
 7    1  0.2328615E-009  0.4778727E+02  0.7816164E-02  0.1312668E+00
        -11   -1    0    0    0    0  0.00000000000E+00  0.00000000000E+00  0.45593999997E+02  0.45594000000E+02  0.51100000000E-03 0.  1.
         11   -1    0    0    0    0 -0.00000000000E+00 -0.00000000000E+00 -0.45593999997E+02  0.45594000000E+02  0.51100000000E-03 0. -1.
    9900012    2    1    2    0    0 -0.38616317722E+02 -0.12175737237E+02  0.15625442182E+02  0.47787274026E+02  0.20000013595E+02 0.  0.
         12    1    1    2    0    0  0.38616317722E+02  0.12175737237E+02 -0.15625442182E+02  0.43400725974E+02  0.00000000000E+00 0. -1.
         11    1    3    3    0    0 -0.55252332947E+01 -0.16496761574E+01  0.73129112699E+01  0.93128033313E+01  0.51100000000E-03 0. -1.
        -11    1    3    3    0    0 -0.25972422622E+02 -0.46949051283E+01  0.11425366543E+02  0.28760178580E+02  0.51100000000E-03 0.  1.
        -12    1    3    3    0    0 -0.71186618050E+01 -0.58311559514E+01 -0.31128356314E+01  0.97142921148E+01  0.00000000000E+00 0.  1.
</event>
<event>
 7    1  0.2328615E-009  0.4778726E+02  0.7816164E-02  0.1312668E+00
        -11   -1    0    0    0    0  0.00000000000E+00  0.00000000000E+00  0.45593999997E+02  0.45594000000E+02  0.51100000000E-03 0.  1.
         11   -1    0    0    0    0 -0.00000000000E+00 -0.00000000000E+00 -0.45593999997E+02  0.45594000000E+02  0.51100000000E-03 0. -1.
    9900012    2    1    2    0    0  0.28643256267E+00 -0.33091975114E+02  0.28079586495E+02  0.47787262238E+02  0.19999959848E+02 0.  0.
         12    1    1    2    0    0 -0.28643256267E+00  0.33091975114E+02 -0.28079586495E+02  0.43400737762E+02  0.00000000000E+00 0. -1.
         11    1    3    3    0    0  0.43305512242E+01 -0.31148024457E+01  0.84090273651E+01  0.99582834700E+01  0.51100000000E-03 0. -1.
        -11    1    3    3    0    0 -0.20510735204E+01 -0.10506650151E+02  0.13659407266E+02  0.17354423272E+02  0.51100000000E-03 0.  1.
        -12    1    3    3    0    0 -0.19930451412E+01 -0.19470522517E+02  0.60111518641E+01  0.20474555496E+02  0.00000000000E+00 0.  1.
</event>
<event>
 7    1  0.2328615E-009  0.4778727E+02  0.7816164E-02  0.1312668E+00
        -11   -1    0    0    0    0  0.00000000000E+00  0.00000000000E+00  0.45593999997E+02  0.45594000000E+02  0.51100000000E-03 0.  1.
         11   -1    0    0    0    0 -0.00000000000E+00 -0.00000000000E+00 -0.45593999997E+02  0.45594000000E+02  0.51100000000E-03 0. -1.
    9900012    2    1    2    0    0  0.35588623797E+02 -0.24170880367E+02  0.57307743686E+01  0.47787269864E+02  0.19999994619E+02 0.  0.
         12    1    1    2    0    0 -0.35588623797E+02  0.24170880367E+02 -0.57307743686E+01  0.43400730136E+02  0.00000000000E+00 0. -1.
         11    1    3    3    0    0  0.18148809682E+02 -0.82960417656E+01 -0.54564900954E+01  0.20687602236E+02  0.51100000000E-03 0. -1.
        -11    1    3    3    0    0  0.12857047761E+01  0.32359353429E+00 -0.49190933091E+00  0.14141161896E+01  0.51100000000E-03 0.  1.
        -12    1    3    3    0    0  0.16154109339E+02 -0.16198432135E+02  0.11679173795E+02  0.25685551438E+02  0.00000000000E+00 0.  1.
</event>
<event>
 7    1  0.2328615E-009  0.4778724E+02  0.7816164E-02  0.1312668E+00
        -11   -1    0    0    0    0  0.00000000000E+00  0.00000000000E+00  0.45593999997E+02  0.45594000000E+02  0.51100000000E-03 0.  1.
         11   -1    0    0    0    0 -0.00000000000E+00 -0.00000000000E+00 -0.45593999997E+02  0.45594000000E+02  0.51100000000E-03 0. -1.
    9900012    2    1    2    0    0 -0.14792739903E+02 -0.33943360221E-01  0.40801957277E+02  0.47787239366E+02  0.19999855563E+02 0.  0.
         12    1    1    2    0    0  0.14792739903E+02  0.33943360221E-01 -0.40801957277E+02  0.43400760634E+02  0.00000000000E+00 0. -1.
         11    1    3    3    0    0 -0.91568906395E+01 -0.52314379980E+01  0.11709101343E+02  0.15758161195E+02  0.51100000000E-03 0. -1.
        -11    1    3    3    0    0 -0.25936455465E+01 -0.24580131327E+01  0.17165168698E+02  0.17533164074E+02  0.51100000000E-03 0.  1.
         12    1    3    3    0    0 -0.30422037173E+01  0.76555077705E+01  0.11927687237E+02  0.14495914097E+02  0.00000000000E+00 0. -1.
</event>
<event>
 7    1  0.2328615E-009  0.4778728E+02  0.7816164E-02  0.1312668E+00
        -11   -1    0    0    0    0  0.00000000000E+00  0.00000000000E+00  0.45593999997E+02  0.45594000000E+02  0.51100000000E-03 0.  1.
         11   -1    0    0    0    0 -0.00000000000E+00 -0.00000000000E+00 -0.45593999997E+02  0.45594000000E+02  0.51100000000E-03 0. -1.
    9900012    2    1    2    0    0 -0.90246024731E+01 -0.41933243838E+02  0.66168189780E+01  0.47787277864E+02  0.20000031093E+02 0.  0.
         12    1    1    2    0    0  0.90246024731E+01  0.41933243838E+02 -0.66168189780E+01  0.43400722136E+02  0.00000000000E+00 0. -1.
         11    1    3    3    0    0 -0.86884264921E+01 -0.51402191311E+01  0.37485419805E+01  0.10768573483E+02  0.51100000000E-03 0. -1.
        -11    1    3    3    0    0 -0.12121468032E+01 -0.79571345831E+01  0.96920862764E+00  0.81070744582E+01  0.51100000000E-03 0.  1.
         12    1    3    3    0    0  0.87597082219E+00 -0.28835890123E+02  0.18990683698E+01  0.28911629922E+02  0.00000000000E+00 0. -1.
</event>
<event>
 7    1  0.2328615E-009  0.4778727E+02  0.7816164E-02  0.1312668E+00
        -11   -1    0    0    0    0  0.00000000000E+00  0.00000000000E+00  0.45593999997E+02  0.45594000000E+02  0.51100000000E-03 0.  1.
         11   -1    0    0    0    0 -0.00000000000E+00 -0.00000000000E+00 -0.45593999997E+02  0.45594000000E+02  0.51100000000E-03 0. -1.
    9900012    2    1    2    0    0 -0.23672775057E+02  0.33742885019E+02  0.13588258464E+02  0.47787270324E+02  0.19999996716E+02 0.  0.
         12    1    1    2    0    0  0.23672775057E+02 -0.33742885019E+02 -0.13588258464E+02  0.43400729676E+02  0.00000000000E+00 0. -1.
         11    1    3    3    0    0 -0.85208432335E+01  0.18771098356E+02  0.12486730494E+02  0.24101397088E+02  0.51100000000E-03 0. -1.
        -11    1    3    3    0    0 -0.13659697978E+02  0.14133208313E+02  0.42431580803E+01  0.20108190293E+02  0.51100000000E-03 0.  1.
         12    1    3    3    0    0 -0.14922338453E+01  0.83857834937E+00 -0.31416301101E+01  0.35776829437E+01  0.00000000000E+00 0. -1.
</event>
<event>
 7    1  0.2328615E-009  0.4778727E+02  0.7816164E-02  0.1312668E+00
        -11   -1    0    0    0    0  0.00000000000E+00  0.00000000000E+00  0.45593999997E+02  0.45594000000E+02  0.51100000000E-03 0.  1.
         11   -1    0    0    0    0 -0.00000000000E+00 -0.00000000000E+00 -0.45593999997E+02  0.45594000000E+02  0.51100000000E-03 0. -1.
    9900012    2    1    2    0    0  0.12686079825E+02 -0.19583832702E+02  0.36594533812E+02  0.47787273860E+02  0.20000012836E+02 0.  0.
         12    1    1    2    0    0 -0.12686079825E+02  0.19583832702E+02 -0.36594533812E+02  0.43400726140E+02  0.00000000000E+00 0. -1.
         11    1    3    3    0    0  0.26905825107E+01 -0.27345320198E+01  0.77415924227E+01  0.86399741385E+01  0.51100000000E-03 0. -1.
        -11    1    3    3    0    0 -0.50893608705E+01 -0.59201489498E+01  0.77880559446E+01  0.11027401023E+02  0.51100000000E-03 0.  1.
         12    1    3    3    0    0  0.15084858185E+02 -0.10929151732E+02  0.21064885444E+02  0.28119898699E+02  0.00000000000E+00 0. -1.
</event>
<event>
 7    1  0.2328615E-009  0.4778727E+02  0.7816164E-02  0.1312668E+00
        -11   -1    0    0    0    0  0.00000000000E+00  0.00000000000E+00  0.45593999997E+02  0.45594000000E+02  0.51100000000E-03 0.  1.
         11   -1    0    0    0    0 -0.00000000000E+00 -0.00000000000E+00 -0.45593999997E+02  0.45594000000E+02  0.51100000000E-03 0. -1.
    9900012    2    1    2    0    0 -0.37154000667E+02 -0.15971875435E+02 -0.15751278583E+02  0.47787270196E+02  0.19999996133E+02 0.  0.
         12    1    1    2    0    0  0.37154000667E+02  0.15971875435E+02  0.15751278583E+02  0.43400729804E+02  0.00000000000E+00 0. -1.
         11    1    3    3    0    0 -0.90578990299E+01 -0.37815846014E+01  0.36938683179E+00  0.98225436535E+01  0.51100000000E-03 0. -1.
        -11    1    3    3    0    0 -0.22220041952E+02 -0.27988307060E+01 -0.65739844676E+01  0.23340543904E+02  0.51100000000E-03 0.  1.
         12    1    3    3    0    0 -0.58760596852E+01 -0.93914601273E+01 -0.95466809472E+01  0.14624182639E+02  0.00000000000E+00 0. -1.
</event>
<event>
 7    1  0.2328615E-009  0.4778728E+02  0.7816164E-02  0.1312668E+00
        -11   -1    0    0    0    0  0.00000000000E+00  0.00000000000E+00  0.45593999997E+02  0.45594000000E+02  0.51100000000E-03 0.  1.
         11   -1    0    0    0    0 -0.00000000000E+00 -0.00000000000E+00 -0.45593999997E+02  0.45594000000E+02  0.51100000000E-03 0. -1.
    9900012    2    1    2    0    0 -0.18739795872E+02  0.21947910027E+02  0.32414999461E+02  0.47787275422E+02  0.20000019957E+02 0.  0.
         12    1    1    2    0    0  0.18739795872E+02 -0.21947910027E+02 -0.32414999461E+02  0.43400724578E+02  0.00000000000E+00 0. -1.
         11    1    3    3    0    0 -0.40597766140E+01 -0.42447279146E+00  0.14142719009E+02  0.14720002192E+02  0.51100000000E-03 0. -1.
        -11    1    3    3    0    0 -0.74620282497E+01  0.56950473797E+01  0.63556512965E+01  0.11336213385E+02  0.51100000000E-03 0.  1.
         12    1    3    3    0    0 -0.72179910080E+01  0.16677335438E+02  0.11916629156E+02  0.21731059845E+02  0.00000000000E+00 0. -1.
</event>
<event>
 7    1  0.2328615E-009  0.4778727E+02  0.7816164E-02  0.1312668E+00
        -11   -1    0    0    0    0  0.00000000000E+00  0.00000000000E+00  0.45593999997E+02  0.45594000000E+02  0.51100000000E-03 0.  1.
         11   -1    0    0    0    0 -0.00000000000E+00 -0.00000000000E+00 -0.45593999997E+02  0.45594000000E+02  0.51100000000E-03 0. -1.
    9900012    2    1    2    0    0 -0.48719741416E+01  0.41213030111E+02  0.12703296393E+02  0.47787265880E+02  0.19999976453E+02 0.  0.
         12    1    1    2    0    0  0.48719741416E+01 -0.41213030111E+02 -0.12703296393E+02  0.43400734120E+02  0.00000000000E+00 0. -1.
         11    1    3    3    0    0 -0.32799249181E+01  0.40104346387E+01  0.97168858119E+00  0.52712116652E+01  0.51100000000E-03 0. -1.
        -11    1    3    3    0    0 -0.75346479041E+01  0.28332206413E+02  0.45982893452E+01  0.29675395607E+02  0.51100000000E-03 0.  1.
         12    1    3    3    0    0  0.59425986806E+01  0.88703890584E+01  0.71333184664E+01  0.12840658607E+02  0.00000000000E+00 0. -1.
</event>
<event>
 7    1  0.2328615E-009  0.4778727E+02  0.7816164E-02  0.1312668E+00
        -11   -1    0    0    0    0  0.00000000000E+00  0.00000000000E+00  0.45593999997E+02  0.45594000000E+02  0.51100000000E-03 0.  1.
         11   -1    0    0    0    0 -0.00000000000E+00 -0.00000000000E+00 -0.45593999997E+02  0.45594000000E+02  0.51100000000E-03 0. -1.
    9900012    2    1    2    0    0 -0.39610589469E+02 -0.88378011549E+01  0.15379132431E+02  0.47787271415E+02  0.20000001692E+02 0.  0.
         12    1    1    2    0    0  0.39610589469E+02  0.88378011549E+01 -0.15379132431E+02  0.43400728585E+02  0.00000000000E+00 0. -1.
         11    1    3    3    0    0 -0.11256793907E+01  0.12390828261E+01 -0.34242974302E+00  0.17087242991E+01  0.51100000000E-03 0. -1.
        -11    1    3    3    0    0 -0.30151661879E+02 -0.51752211197E+01  0.39512481590E+01  0.30846685235E+02  0.51100000000E-03 0.  1.
         12    1    3    3    0    0 -0.83332481989E+01 -0.49016628612E+01  0.11770314015E+02  0.15231861881E+02  0.00000000000E+00 0. -1.
</event>
<event>
 7    1  0.2328615E-009  0.4778727E+02  0.7816164E-02  0.1312668E+00
        -11   -1    0    0    0    0  0.00000000000E+00  0.00000000000E+00  0.45593999997E+02  0.45594000000E+02  0.51100000000E-03 0.  1.
         11   -1    0    0    0    0 -0.00000000000E+00 -0.00000000000E+00 -0.45593999997E+02  0.45594000000E+02  0.51100000000E-03 0. -1.
    9900012    2    1    2    0    0 -0.13076360923E+02  0.37788980724E+02  0.16870827446E+02  0.47787273072E+02  0.20000009244E+02 0.  0.
         12    1    1    2    0    0  0.13076360923E+02 -0.37788980724E+02 -0.16870827446E+02  0.43400726928E+02  0.00000000000E+00 0. -1.
         11    1    3    3    0    0 -0.10416914688E+02  0.23759737870E+02  0.93349408456E+01  0.27571332505E+02  0.51100000000E-03 0. -1.
        -11    1    3    3    0    0 -0.61188649426E+01  0.59218372780E+01  0.75814680797E+01  0.11401198333E+02  0.51100000000E-03 0.  1.
         12    1    3    3    0    0  0.34594187072E+01  0.81074055762E+01 -0.45581478835E-01  0.88147422333E+01  0.00000000000E+00 0. -1.
</event>
<event>
 7    1  0.2328615E-009  0.4778727E+02  0.7816164E-02  0.1312668E+00
        -11   -1    0    0    0    0  0.00000000000E+00  0.00000000000E+00  0.45593999997E+02  0.45594000000E+02  0.51100000000E-03 0.  1.
         11   -1    0    0    0    0 -0.00000000000E+00 -0.00000000000E+00 -0.45593999997E+02  0.45594000000E+02  0.51100000000E-03 0. -1.
    9900012    2    1    2    0    0 -0.28068298192E+02  0.30025254488E+02  0.13938354631E+02  0.47787274197E+02  0.20000014373E+02 0.  0.
         12    1    1    2    0    0  0.28068298192E+02 -0.30025254488E+02 -0.13938354631E+02  0.43400725803E+02  0.00000000000E+00 0. -1.
         11    1    3    3    0    0 -0.19655875329E+02  0.30051459468E+02  0.87796196870E+01  0.36966543971E+02  0.51100000000E-03 0.  1.
        -11    1    3    3    0    0 -0.14137456600E+01 -0.13425171621E+01 -0.12444634933E+00  0.19535906113E+01  0.51100000000E-03 0. -1.
        -12    1    3    3    0    0 -0.69986772031E+01  0.13163121818E+01  0.52831812937E+01  0.88671396141E+01  0.00000000000E+00 0.  1.
</event>
<event>
 7    1  0.2328615E-009  0.4778727E+02  0.7816164E-02  0.1312668E+00
        -11   -1    0    0    0    0  0.00000000000E+00  0.00000000000E+00  0.45593999997E+02  0.45594000000E+02  0.51100000000E-03 0.  1.
         11   -1    0    0    0    0 -0.00000000000E+00 -0.00000000000E+00 -0.45593999997E+02  0.45594000000E+02  0.51100000000E-03 0. -1.
    9900012    2    1    2    0    0 -0.42822553992E+02 -0.26687440995E+01 -0.65368161588E+01  0.47787270848E+02  0.19999999103E+02 0.  0.
         12    1    1    2    0    0  0.42822553992E+02  0.26687440995E+01  0.65368161588E+01  0.43400729152E+02  0.00000000000E+00 0. -1.
         11    1    3    3    0    0 -0.59836188903E+00  0.29610468585E+01 -0.25200322004E+01  0.39340053382E+01  0.51100000000E-03 0. -1.
        -11    1    3    3    0    0 -0.49078825059E+01 -0.31033112809E+01 -0.27629097366E+01  0.64305149149E+01  0.51100000000E-03 0.  1.
         12    1    3    3    0    0 -0.37316309597E+02 -0.25264796772E+01 -0.12538742219E+01  0.37422750595E+02  0.00000000000E+00 0. -1.
</event>
<event>
 7    1  0.2328615E-009  0.4778727E+02  0.7816164E-02  0.1312668E+00
        -11   -1    0    0    0    0  0.00000000000E+00  0.00000000000E+00  0.45593999997E+02  0.45594000000E+02  0.51100000000E-03 0.  1.
         11   -1    0    0    0    0 -0.00000000000E+00 -0.00000000000E+00 -0.45593999997E+02  0.45594000000E+02  0.51100000000E-03 0. -1.
    9900012    2    1    2    0    0 -0.83696141490E+01  0.18710964442E+02  0.38255361760E+02  0.47787270343E+02  0.19999996801E+02 0.  0.
         12    1    1    2    0    0  0.83696141490E+01 -0.18710964442E+02 -0.38255361760E+02  0.43400729657E+02  0.00000000000E+00 0. -1.
         11    1    3    3    0    0 -0.36749906474E+01  0.20301430794E+01  0.10098854166E+02  0.10936813655E+02  0.51100000000E-03 0. -1.
        -11    1    3    3    0    0  0.51218497422E+01  0.33952656618E+01  0.32162230432E+01  0.69357958895E+01  0.51100000000E-03 0.  1.
        -12    1    3    3    0    0 -0.98164732438E+01  0.13285555701E+02  0.24940284551E+02  0.29914660799E+02  0.00000000000E+00 0.  1.
</event>
<event>
 7    1  0.2328615E-009  0.4778727E+02  0.7816164E-02  0.1312668E+00
        -11   -1    0    0    0    0  0.00000000000E+00  0.00000000000E+00  0.45593999997E+02  0.45594000000E+02  0.51100000000E-03 0.  1.
         11   -1    0    0    0    0 -0.00000000000E+00 -0.00000000000E+00 -0.45593999997E+02  0.45594000000E+02  0.51100000000E-03 0. -1.
    9900012    2    1    2    0    0  0.35658200115E+02 -0.12709002785E+02  0.21227279680E+02  0.47787269708E+02  0.19999993907E+02 0.  0.
         12    1    1    2    0    0 -0.35658200115E+02  0.12709002785E+02 -0.21227279680E+02  0.43400730292E+02  0.00000000000E+00 0. -1.
         11    1    3    3    0    0  0.16098434716E+02 -0.11362474082E+02  0.31182655420E+01  0.19949661597E+02  0.51100000000E-03 0. -1.
        -11    1    3    3    0    0  0.41188062939E+01 -0.27566236749E+01  0.16455800001E+01  0.52222096061E+01  0.51100000000E-03 0.  1.
        -12    1    3    3    0    0  0.15440959105E+02  0.14100949724E+01  0.16463434138E+02  0.22615398505E+02  0.00000000000E+00 0.  1.
</event>
<event>
 7    1  0.2328615E-009  0.4778727E+02  0.7816164E-02  0.1312668E+00
        -11   -1    0    0    0    0  0.00000000000E+00  0.00000000000E+00  0.45593999997E+02  0.45594000000E+02  0.51100000000E-03 0. -1.
         11   -1    0    0    0    0 -0.00000000000E+00 -0.00000000000E+00 -0.45593999997E+02  0.45594000000E+02  0.51100000000E-03 0.  1.
    9900012    2    1    2    0    0 -0.27850003727E+02 -0.29249209617E+02 -0.15889750772E+02  0.47787272467E+02  0.20000006487E+02 0.  0.
         12    1    1    2    0    0  0.27850003727E+02  0.29249209617E+02  0.15889750772E+02  0.43400727533E+02  0.00000000000E+00 0. -1.
         11    1    3    3    0    0 -0.35781321770E+01 -0.60070982653E+01  0.46366372915E+01  0.83896761009E+01  0.51100000000E-03 0. -1.
        -11    1    3    3    0    0 -0.10788507852E+02 -0.10712927534E+02 -0.86447329963E+01  0.17489714888E+02  0.51100000000E-03 0.  1.
         12    1    3    3    0    0 -0.13483363698E+02 -0.12529183817E+02 -0.11881655067E+02  0.21907881478E+02  0.00000000000E+00 0. -1.
</event>
<event>
 7    1  0.2328615E-009  0.4778728E+02  0.7816164E-02  0.1312668E+00
        -11   -1    0    0    0    0  0.00000000000E+00  0.00000000000E+00  0.45593999997E+02  0.45594000000E+02  0.51100000000E-03 0.  1.
         11   -1    0    0    0    0 -0.00000000000E+00 -0.00000000000E+00 -0.45593999997E+02  0.45594000000E+02  0.51100000000E-03 0. -1.
    9900012    2    1    2    0    0 -0.17083435400E+02  0.34506914293E+02  0.20026269382E+02  0.47787281522E+02  0.20000047769E+02 0.  0.
         12    1    1    2    0    0  0.17083435400E+02 -0.34506914293E+02 -0.20026269382E+02  0.43400718478E+02  0.00000000000E+00 0. -1.
         11    1    3    3    0    0 -0.90534456777E+01  0.11549885371E+02  0.27536958505E+01  0.14931428995E+02  0.51100000000E-03 0. -1.
        -11    1    3    3    0    0 -0.10622755364E+02  0.22186696104E+02  0.13062436891E+02  0.27851744529E+02  0.51100000000E-03 0.  1.
         12    1    3    3    0    0  0.25927656416E+01  0.77033281806E+00  0.42101366401E+01  0.50041079976E+01  0.00000000000E+00 0. -1.
</event>
<event>
 7    1  0.2328615E-009  0.4778727E+02  0.7816164E-02  0.1312668E+00
        -11   -1    0    0    0    0  0.00000000000E+00  0.00000000000E+00  0.45593999997E+02  0.45594000000E+02  0.51100000000E-03 0. -1.
         11   -1    0    0    0    0 -0.00000000000E+00 -0.00000000000E+00 -0.45593999997E+02  0.45594000000E+02  0.51100000000E-03 0.  1.
    9900012    2    1    2    0    0 -0.11308186914E+02  0.41091030304E+01 -0.41699682523E+02  0.47787270265E+02  0.19999996446E+02 0.  0.
         12    1    1    2    0    0  0.11308186914E+02 -0.41091030304E+01  0.41699682523E+02  0.43400729735E+02  0.00000000000E+00 0. -1.
         11    1    3    3    0    0 -0.93870442280E+01  0.35443398656E+01 -0.25653977339E+02  0.27546424414E+02  0.51100000000E-03 0. -1.
        -11    1    3    3    0    0  0.82967937739E+00  0.42324889033E+00 -0.17220966703E+02  0.17246135856E+02  0.51100000000E-03 0.  1.
         12    1    3    3    0    0 -0.27508220637E+01  0.14151427445E+00  0.11752615193E+01  0.29947099951E+01  0.00000000000E+00 0. -1.
</event>
<event>
 7    1  0.2328615E-009  0.4778727E+02  0.7816164E-02  0.1312668E+00
        -11   -1    0    0    0    0  0.00000000000E+00  0.00000000000E+00  0.45593999997E+02  0.45594000000E+02  0.51100000000E-03 0.  1.
         11   -1    0    0    0    0 -0.00000000000E+00 -0.00000000000E+00 -0.45593999997E+02  0.45594000000E+02  0.51100000000E-03 0. -1.
    9900012    2    1    2    0    0  0.63868660616E+01  0.39038481328E+02  0.17855762485E+02  0.47787270324E+02  0.19999996715E+02 0.  0.
         12    1    1    2    0    0 -0.63868660616E+01 -0.39038481328E+02 -0.17855762485E+02  0.43400729676E+02  0.00000000000E+00 0. -1.
         11    1    3    3    0    0 -0.28074077517E+01  0.52479623619E+01 -0.58880998858E+00  0.59807478379E+01  0.51100000000E-03 0. -1.
        -11    1    3    3    0    0 -0.28040797882E+01  0.13611919730E+02  0.86442083416E+01  0.16366721123E+02  0.51100000000E-03 0.  1.
        -12    1    3    3    0    0  0.11998353602E+02  0.20178599236E+02  0.98003641324E+01  0.25439801363E+02  0.00000000000E+00 0.  1.
</event>
<event>
 7    1  0.2328615E-009  0.4778727E+02  0.7816164E-02  0.1312668E+00
        -11   -1    0    0    0    0  0.00000000000E+00  0.00000000000E+00  0.45593999997E+02  0.45594000000E+02  0.51100000000E-03 0.  1.
         11   -1    0    0    0    0 -0.00000000000E+00 -0.00000000000E+00 -0.45593999997E+02  0.45594000000E+02  0.51100000000E-03 0. -1.
    9900012    2    1    2    0    0 -0.92819321288E+01 -0.36806083773E+02  0.21042361157E+02  0.47787273856E+02  0.20000012820E+02 0.  0.
         12    1    1    2    0    0  0.92819321288E+01  0.36806083773E+02 -0.21042361157E+02  0.43400726144E+02  0.00000000000E+00 0. -1.
         11    1    3    3    0    0  0.26480187606E+01  0.18408246480E+00  0.12914635447E+01  0.29519092227E+01  0.51100000000E-03 0.  1.
        -11    1    3    3    0    0 -0.20420451665E+01 -0.79066943381E+00  0.30658241967E+01  0.37675436138E+01  0.51100000000E-03 0. -1.
        -12    1    3    3    0    0 -0.98879057229E+01 -0.36199496804E+02  0.16685073416E+02  0.41067821020E+02  0.00000000000E+00 0.  1.
</event>
<event>
 7    1  0.2328615E-009  0.4778727E+02  0.7816164E-02  0.1312668E+00
        -11   -1    0    0    0    0  0.00000000000E+00  0.00000000000E+00  0.45593999997E+02  0.45594000000E+02  0.51100000000E-03 0. -1.
         11   -1    0    0    0    0 -0.00000000000E+00 -0.00000000000E+00 -0.45593999997E+02  0.45594000000E+02  0.51100000000E-03 0.  1.
    9900012    2    1    2    0    0  0.42803680611E+02 -0.15029479954E+01 -0.70149403005E+01  0.47787270583E+02  0.19999997895E+02 0.  0.
         12    1    1    2    0    0 -0.42803680611E+02  0.15029479954E+01  0.70149403005E+01  0.43400729417E+02  0.00000000000E+00 0. -1.
         11    1    3    3    0    0  0.19444806803E+01  0.26527842759E+01 -0.69747711519E-01  0.32898532695E+01  0.51100000000E-03 0. -1.
        -11    1    3    3    0    0  0.19789594605E+02  0.52530681918E+01 -0.62667142838E+01  0.21412484402E+02  0.51100000000E-03 0.  1.
         12    1    3    3    0    0  0.21069605325E+02 -0.94088004631E+01 -0.67847830514E+00  0.23084932912E+02  0.00000000000E+00 0. -1.
</event>
<event>
 7    1  0.2328615E-009  0.4778727E+02  0.7816164E-02  0.1312668E+00
        -11   -1    0    0    0    0  0.00000000000E+00  0.00000000000E+00  0.45593999997E+02  0.45594000000E+02  0.51100000000E-03 0.  1.
         11   -1    0    0    0    0 -0.00000000000E+00 -0.00000000000E+00 -0.45593999997E+02  0.45594000000E+02  0.51100000000E-03 0. -1.
    9900012    2    1    2    0    0 -0.40465204315E+02 -0.12864049827E+01  0.15637635953E+02  0.47787271248E+02  0.20000000926E+02 0.  0.
         12    1    1    2    0    0  0.40465204315E+02  0.12864049827E+01 -0.15637635953E+02  0.43400728752E+02  0.00000000000E+00 0. -1.
         11    1    3    3    0    0 -0.10419672658E+02 -0.29075646040E+01  0.56589245849E+01  0.12208478117E+02  0.51100000000E-03 0.  1.
        -11    1    3    3    0    0 -0.28165585977E+02 -0.14119838925E+01  0.12857659953E+02  0.30993763109E+02  0.51100000000E-03 0. -1.
         12    1    3    3    0    0 -0.18799456810E+01  0.30331435137E+01 -0.28789485856E+01  0.45850300214E+01  0.00000000000E+00 0. -1.
</event>
<event>
 7    1  0.2328615E-009  0.4778727E+02  0.7816164E-02  0.1312668E+00
        -11   -1    0    0    0    0  0.00000000000E+00  0.00000000000E+00  0.45593999997E+02  0.45594000000E+02  0.51100000000E-03 0.  1.
         11   -1    0    0    0    0 -0.00000000000E+00 -0.00000000000E+00 -0.45593999997E+02  0.45594000000E+02  0.51100000000E-03 0. -1.
    9900012    2    1    2    0    0  0.18982099261E+02  0.39022546116E+02 -0.73745278206E+00  0.47787273804E+02  0.20000012581E+02 0.  0.
         12    1    1    2    0    0 -0.18982099261E+02 -0.39022546116E+02  0.73745278206E+00  0.43400726196E+02  0.00000000000E+00 0. -1.
         11    1    3    3    0    0  0.17520307212E+00  0.43233029983E+00  0.15413536602E+01  0.16103965262E+01  0.51100000000E-03 0. -1.
        -11    1    3    3    0    0  0.13486035399E+02  0.31669300009E+02  0.50358877450E+01  0.34787611005E+02  0.51100000000E-03 0.  1.
        -12    1    3    3    0    0  0.53208607899E+01  0.69209158077E+01 -0.73146941873E+01  0.11389266272E+02  0.00000000000E+00 0.  1.
</event>
<event>
 7    1  0.2328615E-009  0.4778727E+02  0.7816164E-02  0.1312668E+00
        -11   -1    0    0    0    0  0.00000000000E+00  0.00000000000E+00  0.45593999997E+02  0.45594000000E+02  0.51100000000E-03 0.  1.
         11   -1    0    0    0    0 -0.00000000000E+00 -0.00000000000E+00 -0.45593999997E+02  0.45594000000E+02  0.51100000000E-03 0. -1.
    9900012    2    1    2    0    0 -0.33518068572E+01 -0.32427222317E+02  0.28650728969E+02  0.47787266978E+02  0.19999981460E+02 0.  0.
         12    1    1    2    0    0  0.33518068572E+01  0.32427222317E+02 -0.28650728969E+02  0.43400733022E+02  0.00000000000E+00 0. -1.
         11    1    3    3    0    0 -0.10834863771E+01 -0.15093578754E+02  0.24070728813E+02  0.28432200903E+02  0.51100000000E-03 0. -1.
        -11    1    3    3    0    0 -0.13624522142E+01 -0.10122522658E+02  0.61461472665E+01  0.11920439064E+02  0.51100000000E-03 0.  1.
         12    1    3    3    0    0 -0.90586826584E+00 -0.72111209043E+01 -0.15661471109E+01  0.74346270104E+01  0.00000000000E+00 0. -1.
</event>
<event>
 7    1  0.2328615E-009  0.4778731E+02  0.7816164E-02  0.1312668E+00
        -11   -1    0    0    0    0  0.00000000000E+00  0.00000000000E+00  0.45593999997E+02  0.45594000000E+02  0.51100000000E-03 0.  1.
         11   -1    0    0    0    0 -0.00000000000E+00 -0.00000000000E+00 -0.45593999997E+02  0.45594000000E+02  0.51100000000E-03 0. -1.
    9900012    2    1    2    0    0 -0.64591091503E+01  0.26559763199E+02  0.33711698580E+02  0.47787311833E+02  0.20000185972E+02 0.  0.
         12    1    1    2    0    0  0.64591091503E+01 -0.26559763199E+02 -0.33711698580E+02  0.43400688167E+02  0.00000000000E+00 0. -1.
         11    1    3    3    0    0 -0.38789743706E+01 -0.69846836146E+00  0.51838690369E+01  0.65120502664E+01  0.51100000000E-03 0. -1.
        -11    1    3    3    0    0 -0.50228710400E+01  0.52616079935E+01  0.10265561629E+02  0.12581554275E+02  0.51100000000E-03 0.  1.
        -12    1    3    3    0    0  0.24427362603E+01  0.21996623567E+02  0.18262267914E+02  0.28693707292E+02  0.00000000000E+00 0.  1.
</event>
<event>
 7    1  0.2328615E-009  0.4778727E+02  0.7816164E-02  0.1312668E+00
        -11   -1    0    0    0    0  0.00000000000E+00  0.00000000000E+00  0.45593999997E+02  0.45594000000E+02  0.51100000000E-03 0. -1.
         11   -1    0    0    0    0 -0.00000000000E+00 -0.00000000000E+00 -0.45593999997E+02  0.45594000000E+02  0.51100000000E-03 0.  1.
    9900012    2    1    2    0    0  0.66387290927E+01  0.35892781444E+02 -0.23478901628E+02  0.47787270681E+02  0.19999998345E+02 0.  0.
         12    1    1    2    0    0 -0.66387290927E+01 -0.35892781444E+02  0.23478901628E+02  0.43400729319E+02  0.00000000000E+00 0. -1.
         11    1    3    3    0    0 -0.26264297737E+01  0.63153802323E+01 -0.64610519528E+01  0.94088975673E+01  0.51100000000E-03 0. -1.
        -11    1    3    3    0    0 -0.21803410702E+01  0.14511520810E+02 -0.11576807898E+02  0.18691190566E+02  0.51100000000E-03 0.  1.
         12    1    3    3    0    0  0.11445499937E+02  0.15065880401E+02 -0.54410417771E+01  0.19687182548E+02  0.00000000000E+00 0. -1.
</event>
<event>
 7    1  0.2328615E-009  0.4778727E+02  0.7816164E-02  0.1312668E+00
        -11   -1    0    0    0    0  0.00000000000E+00  0.00000000000E+00  0.45593999997E+02  0.45594000000E+02  0.51100000000E-03 0.  1.
         11   -1    0    0    0    0 -0.00000000000E+00 -0.00000000000E+00 -0.45593999997E+02  0.45594000000E+02  0.51100000000E-03 0. -1.
    9900012    2    1    2    0    0 -0.31048631522E+02 -0.25901320513E+02  0.15771095665E+02  0.47787269796E+02  0.19999994308E+02 0.  0.
         12    1    1    2    0    0  0.31048631522E+02  0.25901320513E+02 -0.15771095665E+02  0.43400730204E+02  0.00000000000E+00 0. -1.
         11    1    3    3    0    0 -0.77690252947E+01 -0.14893207397E+02  0.25125613328E+01  0.16984650286E+02  0.51100000000E-03 0. -1.
        -11    1    3    3    0    0 -0.14403089770E+02 -0.74816786303E+01  0.25096663757E+01  0.16423243760E+02  0.51100000000E-03 0.  1.
        -12    1    3    3    0    0 -0.88765164582E+01 -0.35264344857E+01  0.10748867956E+02  0.14379375750E+02  0.00000000000E+00 0.  1.
</event>
<event>
 7    1  0.2560342E-009  0.4778727E+02  0.7816164E-02  0.1312668E+00
        -11   -1    0    0    0    0  0.00000000000E+00  0.00000000000E+00  0.45593999997E+02  0.45594000000E+02  0.51100000000E-03 0. -1.
         11   -1    0    0    0    0 -0.00000000000E+00 -0.00000000000E+00 -0.45593999997E+02  0.45594000000E+02  0.51100000000E-03 0.  1.
    9900012    2    1    2    0    0  0.18764883892E+02 -0.88142226813E+01 -0.38128889397E+02  0.47787267338E+02  0.19999983101E+02 0.  0.
         12    1    1    2    0    0 -0.18764883892E+02  0.88142226813E+01  0.38128889397E+02  0.43400732662E+02  0.00000000000E+00 0. -1.
         11    1    3    3    0    0  0.45513943227E+01 -0.44464241915E+01 -0.34171948281E+01  0.72224025868E+01  0.51100000000E-03 0. -1.
        -11    1    3    3    0    0  0.17139142633E+02 -0.28609569938E+01 -0.26192983753E+02  0.31432589509E+02  0.51100000000E-03 0.  1.
        -12    1    3    3    0    0 -0.29256530628E+01 -0.15068414960E+01 -0.85187108158E+01  0.91322752423E+01  0.00000000000E+00 0.  1.
</event>
<event>
 7    1  0.2328615E-009  0.4778727E+02  0.7816164E-02  0.1312668E+00
        -11   -1    0    0    0    0  0.00000000000E+00  0.00000000000E+00  0.45593999997E+02  0.45594000000E+02  0.51100000000E-03 0.  1.
         11   -1    0    0    0    0 -0.00000000000E+00 -0.00000000000E+00 -0.45593999997E+02  0.45594000000E+02  0.51100000000E-03 0. -1.
    9900012    2    1    2    0    0  0.82525247331E+01  0.24538373362E+02  0.34833715135E+02  0.47787266806E+02  0.19999980674E+02 0.  0.
         12    1    1    2    0    0 -0.82525247331E+01 -0.24538373362E+02 -0.34833715135E+02  0.43400733194E+02  0.00000000000E+00 0. -1.
         11    1    3    3    0    0 -0.22093534707E+01  0.15390017781E+02  0.25140198954E+02  0.29559490756E+02  0.51100000000E-03 0. -1.
        -11    1    3    3    0    0  0.39095812151E+01  0.18518328279E+00  0.45192638101E+01  0.59785335804E+01  0.51100000000E-03 0.  1.
         12    1    3    3    0    0  0.65522969886E+01  0.89631722982E+01  0.51742523704E+01  0.12249242469E+02  0.00000000000E+00 0. -1.
</event>
<event>
 7    1  0.2328615E-009  0.4778728E+02  0.7816164E-02  0.1312668E+00
        -11   -1    0    0    0    0  0.00000000000E+00  0.00000000000E+00  0.45593999997E+02  0.45594000000E+02  0.51100000000E-03 0. -1.
         11   -1    0    0    0    0 -0.00000000000E+00 -0.00000000000E+00 -0.45593999997E+02  0.45594000000E+02  0.51100000000E-03 0.  1.
    9900012    2    1    2    0    0 -0.28143160166E+02 -0.14719801616E+02 -0.29578926280E+02  0.47787275310E+02  0.20000019448E+02 0.  0.
         12    1    1    2    0    0  0.28143160166E+02  0.14719801616E+02  0.29578926280E+02  0.43400724690E+02  0.00000000000E+00 0. -1.
         11    1    3    3    0    0 -0.22469215048E+01 -0.76222275995E+01 -0.10403682752E+02  0.13091356878E+02  0.51100000000E-03 0. -1.
        -11    1    3    3    0    0 -0.97014935489E+01 -0.58501540243E+01 -0.13185669523E+02  0.17384049017E+02  0.51100000000E-03 0.  1.
         12    1    3    3    0    0 -0.16194745113E+02 -0.12474199926E+01 -0.59895740044E+01  0.17311869416E+02  0.00000000000E+00 0. -1.
</event>
<event>
 7    1  0.2328615E-009  0.4778727E+02  0.7816164E-02  0.1312668E+00
        -11   -1    0    0    0    0  0.00000000000E+00  0.00000000000E+00  0.45593999997E+02  0.45594000000E+02  0.51100000000E-03 0. -1.
         11   -1    0    0    0    0 -0.00000000000E+00 -0.00000000000E+00 -0.45593999997E+02  0.45594000000E+02  0.51100000000E-03 0.  1.
    9900012    2    1    2    0    0 -0.10988010295E+02  0.40590325461E+02  0.10738349434E+02  0.47787273741E+02  0.20000012295E+02 0.  0.
         12    1    1    2    0    0  0.10988010295E+02 -0.40590325461E+02 -0.10738349434E+02  0.43400726259E+02  0.00000000000E+00 0. -1.
         11    1    3    3    0    0  0.35432295548E+01  0.10048906019E+02  0.26239214781E+01  0.10973602510E+02  0.51100000000E-03 0. -1.
        -11    1    3    3    0    0  0.13196014265E+01  0.32476022794E+00  0.15585171701E+01  0.20677991104E+01  0.51100000000E-03 0.  1.
        -12    1    3    3    0    0 -0.15850841277E+02  0.30216659213E+02  0.65559107858E+01  0.34745872121E+02  0.00000000000E+00 0.  1.
</event>
<event>
 7    1  0.2328615E-009  0.4778727E+02  0.7816164E-02  0.1312668E+00
        -11   -1    0    0    0    0  0.00000000000E+00  0.00000000000E+00  0.45593999997E+02  0.45594000000E+02  0.51100000000E-03 0.  1.
         11   -1    0    0    0    0 -0.00000000000E+00 -0.00000000000E+00 -0.45593999997E+02  0.45594000000E+02  0.51100000000E-03 0. -1.
    9900012    2    1    2    0    0 -0.34506502698E+02  0.11906929309E+01  0.26296519742E+02  0.47787269262E+02  0.19999991871E+02 0.  0.
         12    1    1    2    0    0  0.34506502698E+02 -0.11906929309E+01 -0.26296519742E+02  0.43400730738E+02  0.00000000000E+00 0. -1.
         11    1    3    3    0    0 -0.16831275099E+01 -0.40318278853E+01  0.28920501617E+01  0.52395141674E+01  0.51100000000E-03 0. -1.
        -11    1    3    3    0    0 -0.93572224042E+01  0.37958546685E+01  0.11283015443E+01  0.10160668700E+02  0.51100000000E-03 0.  1.
        -12    1    3    3    0    0 -0.23466152784E+02  0.14266661478E+01  0.22276168036E+02  0.32387086395E+02  0.00000000000E+00 0.  1.
</event>
<event>
 7    1  0.2328615E-009  0.4778727E+02  0.7816164E-02  0.1312668E+00
        -11   -1    0    0    0    0  0.00000000000E+00  0.00000000000E+00  0.45593999997E+02  0.45594000000E+02  0.51100000000E-03 0.  1.
         11   -1    0    0    0    0 -0.00000000000E+00 -0.00000000000E+00 -0.45593999997E+02  0.45594000000E+02  0.51100000000E-03 0. -1.
    9900012    2    1    2    0    0 -0.26219303453E+02  0.34560307413E+02 -0.13253993599E+01  0.47787269528E+02  0.19999993088E+02 0.  0.
         12    1    1    2    0    0  0.26219303453E+02 -0.34560307413E+02  0.13253993599E+01  0.43400730472E+02  0.00000000000E+00 0. -1.
         11    1    3    3    0    0 -0.66513155377E+01  0.18781022176E+02  0.60031929191E+01  0.20808775020E+02  0.51100000000E-03 0. -1.
        -11    1    3    3    0    0 -0.78598962200E+01  0.54004680060E+01  0.36454122507E+00  0.95433701510E+01  0.51100000000E-03 0.  1.
         12    1    3    3    0    0 -0.11708091695E+02  0.10378817231E+02 -0.76931335040E+01  0.17435124358E+02  0.00000000000E+00 0. -1.
</event>
<event>
 7    1  0.2328615E-009  0.4778728E+02  0.7816164E-02  0.1312668E+00
        -11   -1    0    0    0    0  0.00000000000E+00  0.00000000000E+00  0.45593999997E+02  0.45594000000E+02  0.51100000000E-03 0.  1.
         11   -1    0    0    0    0 -0.00000000000E+00 -0.00000000000E+00 -0.45593999997E+02  0.45594000000E+02  0.51100000000E-03 0. -1.
    9900012    2    1    2    0    0 -0.69531357762E+01  0.42557886020E+02  0.49094479073E+01  0.47787280670E+02  0.20000043887E+02 0.  0.
         12    1    1    2    0    0  0.69531357762E+01 -0.42557886020E+02 -0.49094479073E+01  0.43400719330E+02  0.00000000000E+00 0. -1.
         11    1    3    3    0    0 -0.31533189192E+01  0.25173778587E+02  0.63303806779E+01  0.26148351159E+02  0.51100000000E-03 0.  1.
        -11    1    3    3    0    0 -0.15135435212E+01  0.89052591618E+01  0.53959567498E+01  0.10521920178E+02  0.51100000000E-03 0. -1.
        -12    1    3    3    0    0 -0.22862733357E+01  0.84788482714E+01 -0.68168895204E+01  0.11117009333E+02  0.00000000000E+00 0.  1.
</event>
<event>
 7    1  0.2328615E-009  0.4778727E+02  0.7816164E-02  0.1312668E+00
        -11   -1    0    0    0    0  0.00000000000E+00  0.00000000000E+00  0.45593999997E+02  0.45594000000E+02  0.51100000000E-03 0.  1.
         11   -1    0    0    0    0 -0.00000000000E+00 -0.00000000000E+00 -0.45593999997E+02  0.45594000000E+02  0.51100000000E-03 0. -1.
    9900012    2    1    2    0    0  0.26631531964E+02  0.22913740195E+02  0.25482254462E+02  0.47787271009E+02  0.19999999840E+02 0.  0.
         12    1    1    2    0    0 -0.26631531964E+02 -0.22913740195E+02 -0.25482254462E+02  0.43400728991E+02  0.00000000000E+00 0. -1.
         11    1    3    3    0    0 -0.25894387642E+01 -0.53326863597E-01  0.76494055977E-01  0.25911172242E+01  0.51100000000E-03 0. -1.
        -11    1    3    3    0    0  0.57771173649E+01  0.65017237191E+01  0.67424372766E+01  0.11004906045E+02  0.51100000000E-03 0.  1.
         12    1    3    3    0    0  0.23443853363E+02  0.16465343339E+02  0.18663323130E+02  0.34191247740E+02  0.00000000000E+00 0. -1.
</event>
<event>
 7    1  0.2328615E-009  0.4778725E+02  0.7816164E-02  0.1312668E+00
        -11   -1    0    0    0    0  0.00000000000E+00  0.00000000000E+00  0.45593999997E+02  0.45594000000E+02  0.51100000000E-03 0.  1.
         11   -1    0    0    0    0 -0.00000000000E+00 -0.00000000000E+00 -0.45593999997E+02  0.45594000000E+02  0.51100000000E-03 0. -1.
    9900012    2    1    2    0    0  0.30064480047E+02  0.12242074372E+02  0.28807708888E+02  0.47787246126E+02  0.19999886388E+02 0.  0.
         12    1    1    2    0    0 -0.30064480047E+02 -0.12242074372E+02 -0.28807708888E+02  0.43400753874E+02  0.00000000000E+00 0. -1.
         11    1    3    3    0    0  0.10407621771E+02 -0.34838946641E+01  0.85070482326E+01  0.13886179563E+02  0.51100000000E-03 0. -1.
        -11    1    3    3    0    0  0.79785327003E+00  0.22528764309E+01  0.65016807786E+01  0.69270394298E+01  0.51100000000E-03 0.  1.
        -12    1    3    3    0    0  0.18859005006E+02  0.13473092605E+02  0.13798979876E+02  0.26974027134E+02  0.00000000000E+00 0.  1.
</event>
<event>
 7    1  0.2328615E-009  0.4778726E+02  0.7816164E-02  0.1312668E+00
        -11   -1    0    0    0    0  0.00000000000E+00  0.00000000000E+00  0.45593999997E+02  0.45594000000E+02  0.51100000000E-03 0. -1.
         11   -1    0    0    0    0 -0.00000000000E+00 -0.00000000000E+00 -0.45593999997E+02  0.45594000000E+02  0.51100000000E-03 0.  1.
    9900012    2    1    2    0    0  0.35965567246E+02  0.19722625606E+02 -0.14181683360E+02  0.47787261170E+02  0.19999954977E+02 0.  0.
         12    1    1    2    0    0 -0.35965567246E+02 -0.19722625606E+02  0.14181683360E+02  0.43400738830E+02  0.00000000000E+00 0. -1.
         11    1    3    3    0    0  0.30731804276E+01  0.38305832362E+01  0.19495081813E+01  0.52837854120E+01  0.51100000000E-03 0. -1.
        -11    1    3    3    0    0  0.11574406133E+02  0.13554768572E+02 -0.62195194229E+01  0.18878057381E+02  0.51100000000E-03 0.  1.
         12    1    3    3    0    0  0.21317980685E+02  0.23372737979E+01 -0.99116721185E+01  0.23625418377E+02  0.00000000000E+00 0. -1.
</event>
<event>
 7    1  0.2328615E-009  0.4778727E+02  0.7816164E-02  0.1312668E+00
        -11   -1    0    0    0    0  0.00000000000E+00  0.00000000000E+00  0.45593999997E+02  0.45594000000E+02  0.51100000000E-03 0.  1.
         11   -1    0    0    0    0 -0.00000000000E+00 -0.00000000000E+00 -0.45593999997E+02  0.45594000000E+02  0.51100000000E-03 0. -1.
    9900012    2    1    2    0    0  0.25761132455E+02 -0.12919680169E+02  0.32451025623E+02  0.47787272529E+02  0.20000006768E+02 0.  0.
         12    1    1    2    0    0 -0.25761132455E+02  0.12919680169E+02 -0.32451025623E+02  0.43400727471E+02  0.00000000000E+00 0. -1.
         11    1    3    3    0    0  0.46317231075E+01  0.49238492803E+01  0.10133768170E+02  0.12181560173E+02  0.51100000000E-03 0. -1.
        -11    1    3    3    0    0  0.24387488530E+01 -0.28058711657E+01  0.23886038635E+01  0.44188050019E+01  0.51100000000E-03 0.  1.
         12    1    3    3    0    0  0.18690660494E+02 -0.15037658283E+02  0.19928653590E+02  0.31186907354E+02  0.00000000000E+00 0. -1.
</event>
<event>
 7    1  0.2328615E-009  0.4778726E+02  0.7816164E-02  0.1312668E+00
        -11   -1    0    0    0    0  0.00000000000E+00  0.00000000000E+00  0.45593999997E+02  0.45594000000E+02  0.51100000000E-03 0. -1.
         11   -1    0    0    0    0 -0.00000000000E+00 -0.00000000000E+00 -0.45593999997E+02  0.45594000000E+02  0.51100000000E-03 0.  1.
    9900012    2    1    2    0    0  0.26762992170E+02 -0.31215794827E+02  0.13890300729E+02  0.47787262093E+02  0.19999959185E+02 0.  0.
         12    1    1    2    0    0 -0.26762992170E+02  0.31215794827E+02 -0.13890300729E+02  0.43400737907E+02  0.00000000000E+00 0. -1.
         11    1    3    3    0    0  0.20542854088E+02 -0.10643747720E+02  0.83419631254E+01  0.24594441824E+02  0.51100000000E-03 0. -1.
        -11    1    3    3    0    0  0.70300575706E+01 -0.12533626286E+02  0.26714985206E+01  0.14616784938E+02  0.51100000000E-03 0.  1.
         12    1    3    3    0    0 -0.80991948881E+00 -0.80384208208E+01  0.28768390826E+01  0.85760353298E+01  0.00000000000E+00 0. -1.
</event>
<event>
 7    1  0.2328615E-009  0.4778727E+02  0.7816164E-02  0.1312668E+00
        -11   -1    0    0    0    0  0.00000000000E+00  0.00000000000E+00  0.45593999997E+02  0.45594000000E+02  0.51100000000E-03 0.  1.
         11   -1    0    0    0    0 -0.00000000000E+00 -0.00000000000E+00 -0.45593999997E+02  0.45594000000E+02  0.51100000000E-03 0. -1.
    9900012    2    1    2    0    0  0.22673233017E+02 -0.10792733535E+02  0.35398652892E+02  0.47787271675E+02  0.20000002876E+02 0.  0.
         12    1    1    2    0    0 -0.22673233017E+02  0.10792733535E+02 -0.35398652892E+02  0.43400728325E+02  0.00000000000E+00 0. -1.
         11    1    3    3    0    0  0.74618404286E+01 -0.54508104871E+01  0.13982604497E+02  0.16760179782E+02  0.51100000000E-03 0. -1.
        -11    1    3    3    0    0  0.17227405430E+02 -0.52779287871E+01  0.22429179658E+02  0.28769917110E+02  0.51100000000E-03 0.  1.
         12    1    3    3    0    0 -0.20160128419E+01 -0.63994261297E-01 -0.10131312635E+01  0.22571747830E+01  0.00000000000E+00 0. -1.
</event>
<event>
 7    1  0.2328615E-009  0.4778727E+02  0.7816164E-02  0.1312668E+00
        -11   -1    0    0    0    0  0.00000000000E+00  0.00000000000E+00  0.45593999997E+02  0.45594000000E+02  0.51100000000E-03 0.  1.
         11   -1    0    0    0    0 -0.00000000000E+00 -0.00000000000E+00 -0.45593999997E+02  0.45594000000E+02  0.51100000000E-03 0. -1.
    9900012    2    1    2    0    0  0.13186237577E+01  0.28911420717E+02  0.32342143706E+02  0.47787271020E+02  0.19999999891E+02 0.  0.
         12    1    1    2    0    0 -0.13186237577E+01 -0.28911420717E+02 -0.32342143706E+02  0.43400728980E+02  0.00000000000E+00 0. -1.
         11    1    3    3    0    0 -0.26092994121E+01  0.59061024638E+01  0.18638568570E+02  0.19725281451E+02  0.51100000000E-03 0. -1.
        -11    1    3    3    0    0 -0.47392985763E+00  0.11074480575E+02  0.97005191895E+01  0.14729860906E+02  0.51100000000E-03 0.  1.
         12    1    3    3    0    0  0.44018530274E+01  0.11930837678E+02  0.40030559465E+01  0.13332128663E+02  0.00000000000E+00 0. -1.
</event>
<event>
 7    1  0.2328615E-009  0.4778727E+02  0.7816164E-02  0.1312668E+00
        -11   -1    0    0    0    0  0.00000000000E+00  0.00000000000E+00  0.45593999997E+02  0.45594000000E+02  0.51100000000E-03 0.  1.
         11   -1    0    0    0    0 -0.00000000000E+00 -0.00000000000E+00 -0.45593999997E+02  0.45594000000E+02  0.51100000000E-03 0. -1.
    9900012    2    1    2    0    0  0.88365531001E+01  0.12291275297E+02  0.40675090755E+02  0.47787272736E+02  0.20000007711E+02 0.  0.
         12    1    1    2    0    0 -0.88365531001E+01 -0.12291275297E+02 -0.40675090755E+02  0.43400727264E+02  0.00000000000E+00 0. -1.
         11    1    3    3    0    0  0.50269350493E+01  0.23601371019E+01  0.66592635082E+01  0.86709926688E+01  0.51100000000E-03 0. -1.
        -11    1    3    3    0    0 -0.27926103712E+01  0.11568497302E+02  0.16650921428E+02  0.20466606636E+02  0.51100000000E-03 0.  1.
        -12    1    3    3    0    0  0.66022284220E+01 -0.16373591067E+01  0.17364905819E+02  0.18649673431E+02  0.00000000000E+00 0.  1.
</event>
<event>
 7    1  0.2328615E-009  0.4778725E+02  0.7816164E-02  0.1312668E+00
        -11   -1    0    0    0    0  0.00000000000E+00  0.00000000000E+00  0.45593999997E+02  0.45594000000E+02  0.51100000000E-03 0.  1.
         11   -1    0    0    0    0 -0.00000000000E+00 -0.00000000000E+00 -0.45593999997E+02  0.45594000000E+02  0.51100000000E-03 0. -1.
    9900012    2    1    2    0    0  0.70515692302E+01  0.29189204937E+02  0.31335142891E+02  0.47787245473E+02  0.19999883411E+02 0.  0.
         12    1    1    2    0    0 -0.70515692302E+01 -0.29189204937E+02 -0.31335142891E+02  0.43400754527E+02  0.00000000000E+00 0. -1.
         11    1    3    3    0    0  0.34092529333E+01  0.13955067965E+02  0.84489297995E+01  0.16665873589E+02  0.51100000000E-03 0.  1.
        -11    1    3    3    0    0  0.38626062360E+01  0.14124011626E+02  0.89964219412E+01  0.17185547397E+02  0.51100000000E-03 0. -1.
         12    1    3    3    0    0 -0.22028993917E+00  0.11101253468E+01  0.13889791150E+02  0.13935824487E+02  0.00000000000E+00 0. -1.
</event>
<event>
 7    1  0.2328615E-009  0.4778727E+02  0.7816164E-02  0.1312668E+00
        -11   -1    0    0    0    0  0.00000000000E+00  0.00000000000E+00  0.45593999997E+02  0.45594000000E+02  0.51100000000E-03 0.  1.
         11   -1    0    0    0    0 -0.00000000000E+00 -0.00000000000E+00 -0.45593999997E+02  0.45594000000E+02  0.51100000000E-03 0. -1.
    9900012    2    1    2    0    0  0.41073437490E+02  0.11562908590E+02  0.79306460568E+01  0.47787271098E+02  0.20000000245E+02 0.  0.
         12    1    1    2    0    0 -0.41073437490E+02 -0.11562908590E+02 -0.79306460568E+01  0.43400728902E+02  0.00000000000E+00 0. -1.
         11    1    3    3    0    0  0.39448334960E+01  0.35023769600E+01  0.42106560588E+01  0.67496652056E+01  0.51100000000E-03 0. -1.
        -11    1    3    3    0    0  0.22828349576E+02  0.92362312554E+01  0.82818888013E+01  0.25981362446E+02  0.51100000000E-03 0.  1.
         12    1    3    3    0    0  0.14300254418E+02 -0.11756996251E+01 -0.45618988033E+01  0.15056243446E+02  0.00000000000E+00 0. -1.
</event>
<event>
 7    1  0.2328615E-009  0.4778728E+02  0.7816164E-02  0.1312668E+00
        -11   -1    0    0    0    0  0.00000000000E+00  0.00000000000E+00  0.45593999997E+02  0.45594000000E+02  0.51100000000E-03 0.  1.
         11   -1    0    0    0    0 -0.00000000000E+00 -0.00000000000E+00 -0.45593999997E+02  0.45594000000E+02  0.51100000000E-03 0. -1.
    9900012    2    1    2    0    0 -0.35905397844E+02 -0.22311590524E+02  0.98294508382E+01  0.47787276852E+02  0.20000026478E+02 0.  0.
         12    1    1    2    0    0  0.35905397844E+02  0.22311590524E+02 -0.98294508382E+01  0.43400723148E+02  0.00000000000E+00 0. -1.
         11    1    3    3    0    0 -0.47683774516E+01  0.67437657123E-01  0.46118089307E+01  0.66340600866E+01  0.51100000000E-03 0. -1.
        -11    1    3    3    0    0 -0.77191036820E+01 -0.86861540620E+01  0.76571546672E+01  0.13916387890E+02  0.51100000000E-03 0.  1.
         12    1    3    3    0    0 -0.23417916710E+02 -0.13692874119E+02 -0.24395127596E+01  0.27236828875E+02  0.00000000000E+00 0. -1.
</event>
<event>
 7    1  0.2328615E-009  0.4778727E+02  0.7816164E-02  0.1312668E+00
        -11   -1    0    0    0    0  0.00000000000E+00  0.00000000000E+00  0.45593999997E+02  0.45594000000E+02  0.51100000000E-03 0.  1.
         11   -1    0    0    0    0 -0.00000000000E+00 -0.00000000000E+00 -0.45593999997E+02  0.45594000000E+02  0.51100000000E-03 0. -1.
    9900012    2    1    2    0    0 -0.70986300051E+01  0.39180317361E+02  0.17266593519E+02  0.47787273413E+02  0.20000010801E+02 0.  0.
         12    1    1    2    0    0  0.70986300051E+01 -0.39180317361E+02 -0.17266593519E+02  0.43400726587E+02  0.00000000000E+00 0. -1.
         11    1    3    3    0    0  0.14276154957E+01  0.21026700768E+02  0.65372792502E+01  0.22065725718E+02  0.51100000000E-03 0. -1.
        -11    1    3    3    0    0 -0.21733277326E+01  0.15039347287E+02  0.10805836549E+02  0.18645949266E+02  0.51100000000E-03 0.  1.
         12    1    3    3    0    0 -0.63529177681E+01  0.31142693062E+01 -0.76522279366E-01  0.70755984298E+01  0.00000000000E+00 0. -1.
</event>
<event>
 7    1  0.2328615E-009  0.4778727E+02  0.7816164E-02  0.1312668E+00
        -11   -1    0    0    0    0  0.00000000000E+00  0.00000000000E+00  0.45593999997E+02  0.45594000000E+02  0.51100000000E-03 0.  1.
         11   -1    0    0    0    0 -0.00000000000E+00 -0.00000000000E+00 -0.45593999997E+02  0.45594000000E+02  0.51100000000E-03 0. -1.
    9900012    2    1    2    0    0  0.39702004217E+02 -0.14206838059E+02  0.10273271619E+02  0.47787268482E+02  0.19999988318E+02 0.  0.
         12    1    1    2    0    0 -0.39702004217E+02  0.14206838059E+02 -0.10273271619E+02  0.43400731518E+02  0.00000000000E+00 0. -1.
         11    1    3    3    0    0  0.12814071113E+01 -0.16336349233E+01  0.34149319802E+01  0.39965645169E+01  0.51100000000E-03 0. -1.
        -11    1    3    3    0    0  0.14503989032E+02 -0.89703832777E+01 -0.36170399547E+01  0.17433199714E+02  0.51100000000E-03 0.  1.
        -12    1    3    3    0    0  0.23916608075E+02 -0.36028198577E+01  0.10475379594E+02  0.26357504251E+02  0.00000000000E+00 0.  1.
</event>
<event>
 7    1  0.2328615E-009  0.4778727E+02  0.7816164E-02  0.1312668E+00
        -11   -1    0    0    0    0  0.00000000000E+00  0.00000000000E+00  0.45593999997E+02  0.45594000000E+02  0.51100000000E-03 0. -1.
         11   -1    0    0    0    0 -0.00000000000E+00 -0.00000000000E+00 -0.45593999997E+02  0.45594000000E+02  0.51100000000E-03 0.  1.
    9900012    2    1    2    0    0 -0.26811061564E+02  0.27542109496E+02 -0.20154953704E+02  0.47787274470E+02  0.20000015620E+02 0.  0.
         12    1    1    2    0    0  0.26811061564E+02 -0.27542109496E+02  0.20154953704E+02  0.43400725530E+02  0.00000000000E+00 0. -1.
         11    1    3    3    0    0  0.40277062999E+00  0.49914819642E+01 -0.19942872132E+01  0.53902039042E+01  0.51100000000E-03 0. -1.
        -11    1    3    3    0    0 -0.18392695983E+02  0.57001408925E+01 -0.10043562892E+02  0.21717643231E+02  0.51100000000E-03 0.  1.
        -12    1    3    3    0    0 -0.88211362115E+01  0.16850486640E+02 -0.81171035987E+01  0.20679427335E+02  0.00000000000E+00 0.  1.
</event>
<event>
 7    1  0.2328615E-009  0.4778727E+02  0.7816164E-02  0.1312668E+00
        -11   -1    0    0    0    0  0.00000000000E+00  0.00000000000E+00  0.45593999997E+02  0.45594000000E+02  0.51100000000E-03 0.  1.
         11   -1    0    0    0    0 -0.00000000000E+00 -0.00000000000E+00 -0.45593999997E+02  0.45594000000E+02  0.51100000000E-03 0. -1.
    9900012    2    1    2    0    0  0.42373232315E+02  0.82022744416E+01  0.45667567768E+01  0.47787269703E+02  0.19999993883E+02 0.  0.
         12    1    1    2    0    0 -0.42373232315E+02 -0.82022744416E+01 -0.45667567768E+01  0.43400730297E+02  0.00000000000E+00 0. -1.
         11    1    3    3    0    0  0.13879181338E+02  0.87027835815E+01 -0.93529525536E+00  0.16408683499E+02  0.51100000000E-03 0. -1.
        -11    1    3    3    0    0  0.16335919458E+02  0.43962918029E+01  0.67457896169E+01  0.18212504605E+02  0.51100000000E-03 0.  1.
         12    1    3    3    0    0  0.12158131519E+02 -0.48968009428E+01 -0.12437375847E+01  0.13166081599E+02  0.00000000000E+00 0. -1.
</event>
<event>
 7    1  0.2328615E-009  0.4778727E+02  0.7816164E-02  0.1312668E+00
        -11   -1    0    0    0    0  0.00000000000E+00  0.00000000000E+00  0.45593999997E+02  0.45594000000E+02  0.51100000000E-03 0.  1.
         11   -1    0    0    0    0 -0.00000000000E+00 -0.00000000000E+00 -0.45593999997E+02  0.45594000000E+02  0.51100000000E-03 0. -1.
    9900012    2    1    2    0    0 -0.40067658939E+02 -0.13039418739E+02  0.10400946889E+02  0.47787269244E+02  0.19999991793E+02 0.  0.
         12    1    1    2    0    0  0.40067658939E+02  0.13039418739E+02 -0.10400946889E+02  0.43400730756E+02  0.00000000000E+00 0. -1.
         11    1    3    3    0    0 -0.21892636047E+02 -0.11654628242E+01 -0.16916478893E+01  0.21988803731E+02  0.51100000000E-03 0.  1.
        -11    1    3    3    0    0 -0.13867516605E+01  0.59897655999E+00 -0.22339080239E+00  0.15270091025E+01  0.51100000000E-03 0. -1.
        -12    1    3    3    0    0 -0.16788271232E+02 -0.12472932475E+02  0.12315985581E+02  0.24271456411E+02  0.00000000000E+00 0.  1.
</event>
<event>
 7    1  0.2328615E-009  0.4778727E+02  0.7816164E-02  0.1312668E+00
        -11   -1    0    0    0    0  0.00000000000E+00  0.00000000000E+00  0.45593999997E+02  0.45594000000E+02  0.51100000000E-03 0.  1.
         11   -1    0    0    0    0 -0.00000000000E+00 -0.00000000000E+00 -0.45593999997E+02  0.45594000000E+02  0.51100000000E-03 0. -1.
    9900012    2    1    2    0    0  0.32793043068E+02  0.14690687389E+02  0.24339752108E+02  0.47787268413E+02  0.19999988002E+02 0.  0.
         12    1    1    2    0    0 -0.32793043068E+02 -0.14690687389E+02 -0.24339752108E+02  0.43400731587E+02  0.00000000000E+00 0. -1.
         11    1    3    3    0    0  0.26040603836E+01  0.69676359703E+00 -0.18684557836E+01  0.32798989722E+01  0.51100000000E-03 0. -1.
        -11    1    3    3    0    0  0.29611991430E+01  0.46126741706E+01  0.10146815621E+02  0.11532707006E+02  0.51100000000E-03 0.  1.
         12    1    3    3    0    0  0.27227783541E+02  0.93812496214E+01  0.16061392270E+02  0.32974662435E+02  0.00000000000E+00 0. -1.
</event>
<event>
 7    1  0.2328615E-009  0.4778728E+02  0.7816164E-02  0.1312668E+00
        -11   -1    0    0    0    0  0.00000000000E+00  0.00000000000E+00  0.45593999997E+02  0.45594000000E+02  0.51100000000E-03 0.  1.
         11   -1    0    0    0    0 -0.00000000000E+00 -0.00000000000E+00 -0.45593999997E+02  0.45594000000E+02  0.51100000000E-03 0. -1.
    9900012    2    1    2    0    0  0.30749514033E+02 -0.11416520438E+02  0.28420994977E+02  0.47787279872E+02  0.20000040248E+02 0.  0.
         12    1    1    2    0    0 -0.30749514033E+02  0.11416520438E+02 -0.28420994977E+02  0.43400720128E+02  0.00000000000E+00 0. -1.
         11    1    3    3    0    0  0.20440355488E+02 -0.11402368484E+02  0.28690421655E+02  0.37026509889E+02  0.51100000000E-03 0.  1.
        -11    1    3    3    0    0  0.44176047562E+01 -0.64987187660E+00  0.12625017188E+01  0.46402021603E+01  0.51100000000E-03 0. -1.
        -12    1    3    3    0    0  0.58915537881E+01  0.63571992248E+00 -0.15319283971E+01  0.61205678226E+01  0.00000000000E+00 0.  1.
</event>
<event>
 7    1  0.2328615E-009  0.4778728E+02  0.7816164E-02  0.1312668E+00
        -11   -1    0    0    0    0  0.00000000000E+00  0.00000000000E+00  0.45593999997E+02  0.45594000000E+02  0.51100000000E-03 0.  1.
         11   -1    0    0    0    0 -0.00000000000E+00 -0.00000000000E+00 -0.45593999997E+02  0.45594000000E+02  0.51100000000E-03 0. -1.
    9900012    2    1    2    0    0 -0.33890457927E+01 -0.30566324211E+02  0.30624115085E+02  0.47787283049E+02  0.20000054732E+02 0.  0.
         12    1    1    2    0    0  0.33890457927E+01  0.30566324211E+02 -0.30624115085E+02  0.43400716951E+02  0.00000000000E+00 0. -1.
         11    1    3    3    0    0 -0.12852888448E+01  0.54253874987E+00  0.48930505719E+01  0.50880506945E+01  0.51100000000E-03 0. -1.
        -11    1    3    3    0    0  0.58913276707E+01 -0.12875705823E+02  0.10270945854E+02  0.17492394666E+02  0.51100000000E-03 0.  1.
         12    1    3    3    0    0 -0.79950846187E+01 -0.18233157138E+02  0.15460118660E+02  0.25206837688E+02  0.00000000000E+00 0. -1.
</event>
<event>
 7    1  0.2328615E-009  0.4778729E+02  0.7816164E-02  0.1312668E+00
        -11   -1    0    0    0    0  0.00000000000E+00  0.00000000000E+00  0.45593999997E+02  0.45594000000E+02  0.51100000000E-03 0.  1.
         11   -1    0    0    0    0 -0.00000000000E+00 -0.00000000000E+00 -0.45593999997E+02  0.45594000000E+02  0.51100000000E-03 0. -1.
    9900012    2    1    2    0    0  0.17811595509E+02 -0.20599435209E+02  0.33793962107E+02  0.47787291015E+02  0.20000091055E+02 0.  0.
         12    1    1    2    0    0 -0.17811595509E+02  0.20599435209E+02 -0.33793962107E+02  0.43400708985E+02  0.00000000000E+00 0. -1.
         11    1    3    3    0    0 -0.21940260102E+01 -0.50837206752E+01  0.10669735214E+02  0.12020865852E+02  0.51100000000E-03 0. -1.
        -11    1    3    3    0    0  0.71346349448E+01 -0.10721444037E+02  0.15151777517E+02  0.19885390120E+02  0.51100000000E-03 0.  1.
         12    1    3    3    0    0  0.12870986574E+02 -0.47942704969E+01  0.79724493753E+01  0.15881035043E+02  0.00000000000E+00 0. -1.
</event>
<event>
 7    1  0.2328615E-009  0.4778727E+02  0.7816164E-02  0.1312668E+00
        -11   -1    0    0    0    0  0.00000000000E+00  0.00000000000E+00  0.45593999997E+02  0.45594000000E+02  0.51100000000E-03 0.  1.
         11   -1    0    0    0    0 -0.00000000000E+00 -0.00000000000E+00 -0.45593999997E+02  0.45594000000E+02  0.51100000000E-03 0. -1.
    9900012    2    1    2    0    0 -0.29636863341E+02 -0.21054705617E+02  0.23706093301E+02  0.47787272392E+02  0.20000006144E+02 0.  0.
         12    1    1    2    0    0  0.29636863341E+02  0.21054705617E+02 -0.23706093301E+02  0.43400727608E+02  0.00000000000E+00 0. -1.
         11    1    3    3    0    0 -0.98215877951E+00  0.31632228458E+01  0.30082267056E+01  0.44743762486E+01  0.51100000000E-03 0. -1.
        -11    1    3    3    0    0 -0.37165368376E+01 -0.84464825026E+00  0.28139823723E+01  0.47375704517E+01  0.51100000000E-03 0.  1.
        -12    1    3    3    0    0 -0.24938167724E+02 -0.23373280212E+02  0.17883884223E+02  0.38575325692E+02  0.00000000000E+00 0.  1.
</event>
<event>
 7    1  0.2328615E-009  0.4778727E+02  0.7816164E-02  0.1312668E+00
        -11   -1    0    0    0    0  0.00000000000E+00  0.00000000000E+00  0.45593999997E+02  0.45594000000E+02  0.51100000000E-03 0.  1.
         11   -1    0    0    0    0 -0.00000000000E+00 -0.00000000000E+00 -0.45593999997E+02  0.45594000000E+02  0.51100000000E-03 0. -1.
    9900012    2    1    2    0    0 -0.33080949527E+02 -0.27981425357E+02  0.25127131183E+01  0.47787272889E+02  0.20000008408E+02 0.  0.
         12    1    1    2    0    0  0.33080949527E+02  0.27981425357E+02 -0.25127131183E+01  0.43400727111E+02  0.00000000000E+00 0. -1.
         11    1    3    3    0    0 -0.82421986677E+01 -0.98162172944E+01 -0.33424378992E+01  0.13246276919E+02  0.51100000000E-03 0. -1.
        -11    1    3    3    0    0 -0.17746448549E+02 -0.74508565789E+01 -0.22051798774E+01  0.19373035859E+02  0.51100000000E-03 0.  1.
         12    1    3    3    0    0 -0.70923023104E+01 -0.10714351483E+02  0.80603308949E+01  0.15167960110E+02  0.00000000000E+00 0. -1.
</event>
<event>
 7    1  0.2328615E-009  0.4778727E+02  0.7816164E-02  0.1312668E+00
        -11   -1    0    0    0    0  0.00000000000E+00  0.00000000000E+00  0.45593999997E+02  0.45594000000E+02  0.51100000000E-03 0.  1.
         11   -1    0    0    0    0 -0.00000000000E+00 -0.00000000000E+00 -0.45593999997E+02  0.45594000000E+02  0.51100000000E-03 0. -1.
    9900012    2    1    2    0    0 -0.82145362779E+01  0.13105274059E+02  0.40551158126E+02  0.47787271437E+02  0.20000001790E+02 0.  0.
         12    1    1    2    0    0  0.82145362779E+01 -0.13105274059E+02 -0.40551158126E+02  0.43400728563E+02  0.00000000000E+00 0. -1.
         11    1    3    3    0    0 -0.73456985789E+00 -0.46107156678E+00  0.12361664139E+02  0.12392050695E+02  0.51100000000E-03 0. -1.
        -11    1    3    3    0    0 -0.85200218838E+01  0.13604605715E+01  0.15614703995E+02  0.17839860061E+02  0.51100000000E-03 0.  1.
         12    1    3    3    0    0  0.10400554639E+01  0.12205885054E+02  0.12574789992E+02  0.17555360682E+02  0.00000000000E+00 0. -1.
</event>
<event>
 7    1  0.2328615E-009  0.4778728E+02  0.7816164E-02  0.1312668E+00
        -11   -1    0    0    0    0  0.00000000000E+00  0.00000000000E+00  0.45593999997E+02  0.45594000000E+02  0.51100000000E-03 0.  1.
         11   -1    0    0    0    0 -0.00000000000E+00 -0.00000000000E+00 -0.45593999997E+02  0.45594000000E+02  0.51100000000E-03 0. -1.
    9900012    2    1    2    0    0  0.10170864653E+02  0.16022519819E+02  0.39031464347E+02  0.47787276064E+02  0.20000022885E+02 0.  0.
         12    1    1    2    0    0 -0.10170864653E+02 -0.16022519819E+02 -0.39031464347E+02  0.43400723936E+02  0.00000000000E+00 0. -1.
         11    1    3    3    0    0 -0.18999391626E+01 -0.44668798389E+00  0.38033297184E+01  0.42748820083E+01  0.51100000000E-03 0. -1.
        -11    1    3    3    0    0 -0.31980952957E+01  0.65815167438E+01  0.11111201524E+02  0.13304246530E+02  0.51100000000E-03 0.  1.
         12    1    3    3    0    0  0.15268899111E+02  0.98876910594E+01  0.24116933104E+02  0.30208147525E+02  0.00000000000E+00 0. -1.
</event>
<event>
 7    1  0.2328615E-009  0.4778727E+02  0.7816164E-02  0.1312668E+00
        -11   -1    0    0    0    0  0.00000000000E+00  0.00000000000E+00  0.45593999997E+02  0.45594000000E+02  0.51100000000E-03 0.  1.
         11   -1    0    0    0    0 -0.00000000000E+00 -0.00000000000E+00 -0.45593999997E+02  0.45594000000E+02  0.51100000000E-03 0. -1.
    9900012    2    1    2    0    0 -0.30889437609E+02 -0.28243687927E+02  0.11478679587E+02  0.47787270184E+02  0.19999996076E+02 0.  0.
         12    1    1    2    0    0  0.30889437609E+02  0.28243687927E+02 -0.11478679587E+02  0.43400729816E+02  0.00000000000E+00 0. -1.
         11    1    3    3    0    0 -0.16182717246E+02 -0.10925873944E+02  0.89738680810E+01  0.21489191876E+02  0.51100000000E-03 0. -1.
        -11    1    3    3    0    0 -0.15651743755E+02 -0.11496751376E+02 -0.98538078681E+00  0.19445394064E+02  0.51100000000E-03 0.  1.
         12    1    3    3    0    0  0.94502339189E+00 -0.58210626076E+01  0.34901922932E+01  0.68526842432E+01  0.00000000000E+00 0. -1.
</event>
<event>
 7    1  0.2328615E-009  0.4778725E+02  0.7816164E-02  0.1312668E+00
        -11   -1    0    0    0    0  0.00000000000E+00  0.00000000000E+00  0.45593999997E+02  0.45594000000E+02  0.51100000000E-03 0. -1.
         11   -1    0    0    0    0 -0.00000000000E+00 -0.00000000000E+00 -0.45593999997E+02  0.45594000000E+02  0.51100000000E-03 0.  1.
    9900012    2    1    2    0    0  0.57522544926E+01  0.25922879490E+02 -0.34329879469E+02  0.47787254187E+02  0.19999923139E+02 0.  0.
         12    1    1    2    0    0 -0.57522544926E+01 -0.25922879490E+02  0.34329879469E+02  0.43400745813E+02  0.00000000000E+00 0. -1.
         11    1    3    3    0    0  0.37210794750E+01  0.85607497250E+01 -0.14301985373E+02  0.17078631508E+02  0.51100000000E-03 0. -1.
        -11    1    3    3    0    0  0.38605734472E+01  0.19466502858E+02 -0.14706064258E+02  0.24700548315E+02  0.51100000000E-03 0.  1.
         12    1    3    3    0    0 -0.18293984296E+01 -0.21043730931E+01 -0.53218298386E+01  0.60080743637E+01  0.00000000000E+00 0. -1.
</event>
<event>
 7    1  0.2328615E-009  0.4778727E+02  0.7816164E-02  0.1312668E+00
        -11   -1    0    0    0    0  0.00000000000E+00  0.00000000000E+00  0.45593999997E+02  0.45594000000E+02  0.51100000000E-03 0. -1.
         11   -1    0    0    0    0 -0.00000000000E+00 -0.00000000000E+00 -0.45593999997E+02  0.45594000000E+02  0.51100000000E-03 0.  1.
    9900012    2    1    2    0    0 -0.31654019933E+02 -0.15532223403E+02 -0.25306053842E+02  0.47787270711E+02  0.19999998482E+02 0.  0.
         12    1    1    2    0    0  0.31654019933E+02  0.15532223403E+02  0.25306053842E+02  0.43400729289E+02  0.00000000000E+00 0. -1.
         11    1    3    3    0    0 -0.85521139085E+01  0.23215224659E+01 -0.77842702346E+01  0.11795040577E+02  0.51100000000E-03 0. -1.
        -11    1    3    3    0    0 -0.28702217022E+00 -0.74187290591E+00 -0.46245943578E+01  0.46925078978E+01  0.51100000000E-03 0.  1.
         12    1    3    3    0    0 -0.22814883854E+02 -0.17111872963E+02 -0.12897189249E+02  0.31299722237E+02  0.00000000000E+00 0. -1.
</event>
<event>
 7    1  0.2328615E-009  0.4778727E+02  0.7816164E-02  0.1312668E+00
        -11   -1    0    0    0    0  0.00000000000E+00  0.00000000000E+00  0.45593999997E+02  0.45594000000E+02  0.51100000000E-03 0.  1.
         11   -1    0    0    0    0 -0.00000000000E+00 -0.00000000000E+00 -0.45593999997E+02  0.45594000000E+02  0.51100000000E-03 0. -1.
    9900012    2    1    2    0    0  0.25775896406E+02  0.18555407043E+02  0.29579102259E+02  0.47787271244E+02  0.20000000910E+02 0.  0.
         12    1    1    2    0    0 -0.25775896406E+02 -0.18555407043E+02 -0.29579102259E+02  0.43400728756E+02  0.00000000000E+00 0. -1.
         11    1    3    3    0    0 -0.35359396331E+00  0.70691364925E+01  0.40318468767E+01  0.81457663199E+01  0.51100000000E-03 0.  1.
        -11    1    3    3    0    0 -0.85523298195E+00  0.34783301667E-01  0.17831826681E+00  0.87431744629E+00  0.51100000000E-03 0. -1.
        -12    1    3    3    0    0  0.26984723352E+02  0.11451487249E+02  0.25368937115E+02  0.38767187478E+02  0.00000000000E+00 0.  1.
</event>
<event>
 7    1  0.2328615E-009  0.4778727E+02  0.7816164E-02  0.1312668E+00
        -11   -1    0    0    0    0  0.00000000000E+00  0.00000000000E+00  0.45593999997E+02  0.45594000000E+02  0.51100000000E-03 0.  1.
         11   -1    0    0    0    0 -0.00000000000E+00 -0.00000000000E+00 -0.45593999997E+02  0.45594000000E+02  0.51100000000E-03 0. -1.
    9900012    2    1    2    0    0  0.95263789489E-01  0.21056183922E+02  0.37950641827E+02  0.47787272223E+02  0.20000005372E+02 0.  0.
         12    1    1    2    0    0 -0.95263789489E-01 -0.21056183922E+02 -0.37950641827E+02  0.43400727777E+02  0.00000000000E+00 0. -1.
         11    1    3    3    0    0  0.25483901618E+01 -0.63268879988E+00  0.28698312443E+01  0.38897968027E+01  0.51100000000E-03 0. -1.
        -11    1    3    3    0    0  0.39267755609E+01  0.14810166138E+02  0.28754461124E+02  0.32581891015E+02  0.51100000000E-03 0.  1.
        -12    1    3    3    0    0 -0.63799019333E+01  0.68787065844E+01  0.63263494586E+01  0.11315584405E+02  0.00000000000E+00 0.  1.
</event>
<event>
 7    1  0.2328615E-009  0.4778727E+02  0.7816164E-02  0.1312668E+00
        -11   -1    0    0    0    0  0.00000000000E+00  0.00000000000E+00  0.45593999997E+02  0.45594000000E+02  0.51100000000E-03 0.  1.
         11   -1    0    0    0    0 -0.00000000000E+00 -0.00000000000E+00 -0.45593999997E+02  0.45594000000E+02  0.51100000000E-03 0. -1.
    9900012    2    1    2    0    0  0.11246183573E+02 -0.44292615596E+01  0.41683668788E+02  0.47787271360E+02  0.20000001437E+02 0.  0.
         12    1    1    2    0    0 -0.11246183573E+02  0.44292615596E+01 -0.41683668788E+02  0.43400728640E+02  0.00000000000E+00 0. -1.
         11    1    3    3    0    0  0.75499842070E+01 -0.42673791244E+00  0.13411108589E+02  0.15396174870E+02  0.51100000000E-03 0. -1.
        -11    1    3    3    0    0  0.55064107171E+01 -0.36733120844E+01  0.29464496818E+02  0.30198846893E+02  0.51100000000E-03 0.  1.
         12    1    3    3    0    0 -0.18102113508E+01 -0.32921156268E+00 -0.11919366200E+01  0.21922495966E+01  0.00000000000E+00 0. -1.
</event>
<event>
 7    1  0.2328615E-009  0.4778727E+02  0.7816164E-02  0.1312668E+00
        -11   -1    0    0    0    0  0.00000000000E+00  0.00000000000E+00  0.45593999997E+02  0.45594000000E+02  0.51100000000E-03 0.  1.
         11   -1    0    0    0    0 -0.00000000000E+00 -0.00000000000E+00 -0.45593999997E+02  0.45594000000E+02  0.51100000000E-03 0. -1.
    9900012    2    1    2    0    0 -0.21973812918E+02 -0.37403164693E+02 -0.13334711095E+01  0.47787270416E+02  0.19999997135E+02 0.  0.
         12    1    1    2    0    0  0.21973812918E+02  0.37403164693E+02  0.13334711095E+01  0.43400729584E+02  0.00000000000E+00 0. -1.
         11    1    3    3    0    0 -0.82739685565E+01 -0.36978096582E+01 -0.62861350669E+01  0.11029408247E+02  0.51100000000E-03 0. -1.
        -11    1    3    3    0    0 -0.44600421537E+01 -0.89726518359E+01  0.12862669750E+01  0.10102224506E+02  0.51100000000E-03 0.  1.
         12    1    3    3    0    0 -0.92398022077E+01 -0.24732703199E+02  0.36663969824E+01  0.26655637663E+02  0.00000000000E+00 0. -1.
</event>
<event>
 7    1  0.2328615E-009  0.4778727E+02  0.7816164E-02  0.1312668E+00
        -11   -1    0    0    0    0  0.00000000000E+00  0.00000000000E+00  0.45593999997E+02  0.45594000000E+02  0.51100000000E-03 0.  1.
         11   -1    0    0    0    0 -0.00000000000E+00 -0.00000000000E+00 -0.45593999997E+02  0.45594000000E+02  0.51100000000E-03 0. -1.
    9900012    2    1    2    0    0 -0.92435196091E+01 -0.70924968690E+01  0.41807621366E+02  0.47787269927E+02  0.19999994904E+02 0.  0.
         12    1    1    2    0    0  0.92435196091E+01  0.70924968690E+01 -0.41807621366E+02  0.43400730073E+02  0.00000000000E+00 0. -1.
         11    1    3    3    0    0 -0.12227662737E+02 -0.81297846337E+01  0.17570253884E+02  0.22898099398E+02  0.51100000000E-03 0. -1.
        -11    1    3    3    0    0  0.15157711939E-01  0.14407020707E+01  0.20807940111E+01  0.25309200285E+01  0.51100000000E-03 0.  1.
         12    1    3    3    0    0  0.29689854158E+01 -0.40341430602E+00  0.22156573471E+02  0.22358250501E+02  0.00000000000E+00 0. -1.
</event>
<event>
 7    1  0.2328615E-009  0.4778727E+02  0.7816164E-02  0.1312668E+00
        -11   -1    0    0    0    0  0.00000000000E+00  0.00000000000E+00  0.45593999997E+02  0.45594000000E+02  0.51100000000E-03 0.  1.
         11   -1    0    0    0    0 -0.00000000000E+00 -0.00000000000E+00 -0.45593999997E+02  0.45594000000E+02  0.51100000000E-03 0. -1.
    9900012    2    1    2    0    0  0.11662021716E+02 -0.13196142925E+02  0.39667147178E+02  0.47787268395E+02  0.19999987919E+02 0.  0.
         12    1    1    2    0    0 -0.11662021716E+02  0.13196142925E+02 -0.39667147178E+02  0.43400731605E+02  0.00000000000E+00 0. -1.
         11    1    3    3    0    0 -0.16901107861E+01 -0.86812048967E+00 -0.27106006782E+00  0.19192658689E+01  0.51100000000E-03 0. -1.
        -11    1    3    3    0    0  0.98078228122E+00  0.22491451785E+01  0.13440809688E+01  0.27977029558E+01  0.51100000000E-03 0.  1.
        -12    1    3    3    0    0  0.12371350221E+02 -0.14577167614E+02  0.38594126277E+02  0.43070299570E+02  0.00000000000E+00 0.  1.
</event>
<event>
 7    1  0.2328615E-009  0.4778727E+02  0.7816164E-02  0.1312668E+00
        -11   -1    0    0    0    0  0.00000000000E+00  0.00000000000E+00  0.45593999997E+02  0.45594000000E+02  0.51100000000E-03 0.  1.
         11   -1    0    0    0    0 -0.00000000000E+00 -0.00000000000E+00 -0.45593999997E+02  0.45594000000E+02  0.51100000000E-03 0. -1.
    9900012    2    1    2    0    0 -0.12559878670E+01 -0.19006326904E+02  0.38997502911E+02  0.47787271882E+02  0.20000003818E+02 0.  0.
         12    1    1    2    0    0  0.12559878670E+01  0.19006326904E+02 -0.38997502911E+02  0.43400728118E+02  0.00000000000E+00 0. -1.
         11    1    3    3    0    0  0.43215948790E+01 -0.13764119388E+02  0.16386501940E+02  0.21832192077E+02  0.51100000000E-03 0. -1.
        -11    1    3    3    0    0 -0.48661868290E+00 -0.55538175741E+01  0.45756236872E+01  0.72123518894E+01  0.51100000000E-03 0.  1.
         12    1    3    3    0    0 -0.50909640631E+01  0.31161005760E+00  0.18035377284E+02  0.18742727915E+02  0.00000000000E+00 0. -1.
</event>
<event>
 7    1  0.2328615E-009  0.4778727E+02  0.7816164E-02  0.1312668E+00
        -11   -1    0    0    0    0  0.00000000000E+00  0.00000000000E+00  0.45593999997E+02  0.45594000000E+02  0.51100000000E-03 0.  1.
         11   -1    0    0    0    0 -0.00000000000E+00 -0.00000000000E+00 -0.45593999997E+02  0.45594000000E+02  0.51100000000E-03 0. -1.
    9900012    2    1    2    0    0  0.22028614714E+00 -0.39225480073E+02  0.18572463021E+02  0.47787271946E+02  0.20000004110E+02 0.  0.
         12    1    1    2    0    0 -0.22028614714E+00  0.39225480073E+02 -0.18572463021E+02  0.43400728054E+02  0.00000000000E+00 0. -1.
         11    1    3    3    0    0 -0.27008091626E+01 -0.47124333167E+01  0.41069785607E+00  0.54470240395E+01  0.51100000000E-03 0. -1.
        -11    1    3    3    0    0 -0.40312761060E+01 -0.26631012372E+02  0.16794968493E+02  0.31741659911E+02  0.51100000000E-03 0.  1.
         12    1    3    3    0    0  0.69523714157E+01 -0.78820343850E+01  0.13667966714E+01  0.10598587995E+02  0.00000000000E+00 0. -1.
</event>
<event>
 7    1  0.2328615E-009  0.4778727E+02  0.7816164E-02  0.1312668E+00
        -11   -1    0    0    0    0  0.00000000000E+00  0.00000000000E+00  0.45593999997E+02  0.45594000000E+02  0.51100000000E-03 0. -1.
         11   -1    0    0    0    0 -0.00000000000E+00 -0.00000000000E+00 -0.45593999997E+02  0.45594000000E+02  0.51100000000E-03 0.  1.
    9900012    2    1    2    0    0  0.23815163453E+02 -0.22761552875E+02 -0.28255492178E+02  0.47787272612E+02  0.20000007147E+02 0.  0.
         12    1    1    2    0    0 -0.23815163453E+02  0.22761552875E+02  0.28255492178E+02  0.43400727388E+02  0.00000000000E+00 0. -1.
         11    1    3    3    0    0  0.16852812915E+02 -0.97674419118E+01 -0.10373433615E+02  0.22068718809E+02  0.51100000000E-03 0. -1.
        -11    1    3    3    0    0  0.81571868361E+01 -0.56451009389E+01 -0.14431996294E+02  0.17512549186E+02  0.51100000000E-03 0.  1.
         12    1    3    3    0    0 -0.11948362978E+01 -0.73490100247E+01 -0.34500622688E+01  0.82060046174E+01  0.00000000000E+00 0. -1.
</event>
<event>
 7    1  0.2328615E-009  0.4778730E+02  0.7816164E-02  0.1312668E+00
        -11   -1    0    0    0    0  0.00000000000E+00  0.00000000000E+00  0.45593999997E+02  0.45594000000E+02  0.51100000000E-03 0. -1.
         11   -1    0    0    0    0 -0.00000000000E+00 -0.00000000000E+00 -0.45593999997E+02  0.45594000000E+02  0.51100000000E-03 0.  1.
    9900012    2    1    2    0    0 -0.33231076764E+01  0.29963308984E+02 -0.31221425543E+02  0.47787304811E+02  0.20000153955E+02 0.  0.
         12    1    1    2    0    0  0.33231076764E+01 -0.29963308984E+02  0.31221425543E+02  0.43400695189E+02  0.00000000000E+00 0. -1.
         11    1    3    3    0    0 -0.80564558475E+01  0.18552507657E+02 -0.16140337133E+02  0.25876871995E+02  0.51100000000E-03 0. -1.
        -11    1    3    3    0    0  0.51202822708E+00  0.73362584518E+01 -0.20733465768E+01  0.76407870841E+01  0.51100000000E-03 0.  1.
        -12    1    3    3    0    0  0.42213199440E+01  0.40745428751E+01 -0.13007741834E+02  0.14269645732E+02  0.00000000000E+00 0.  1.
</event>
<event>
 7    1  0.2328615E-009  0.4778728E+02  0.7816164E-02  0.1312668E+00
        -11   -1    0    0    0    0  0.00000000000E+00  0.00000000000E+00  0.45593999997E+02  0.45594000000E+02  0.51100000000E-03 0. -1.
         11   -1    0    0    0    0 -0.00000000000E+00 -0.00000000000E+00 -0.45593999997E+02  0.45594000000E+02  0.51100000000E-03 0.  1.
    9900012    2    1    2    0    0 -0.42182035129E+02  0.92894489324E+01 -0.42431837101E+01  0.47787279303E+02  0.20000037652E+02 0.  0.
         12    1    1    2    0    0  0.42182035129E+02 -0.92894489324E+01  0.42431837101E+01  0.43400720697E+02  0.00000000000E+00 0. -1.
         11    1    3    3    0    0 -0.17398117908E+02 -0.29726842844E+01 -0.41686515289E+01  0.18135848875E+02  0.51100000000E-03 0. -1.
        -11    1    3    3    0    0 -0.25798791789E+02  0.11424574185E+02  0.49027998505E+00  0.28219477809E+02  0.51100000000E-03 0.  1.
         12    1    3    3    0    0  0.10148745678E+01  0.83755903206E+00 -0.56481216627E+00  0.14319526192E+01  0.00000000000E+00 0. -1.
</event>
<event>
 7    1  0.2328615E-009  0.4778727E+02  0.7816164E-02  0.1312668E+00
        -11   -1    0    0    0    0  0.00000000000E+00  0.00000000000E+00  0.45593999997E+02  0.45594000000E+02  0.51100000000E-03 0.  1.
         11   -1    0    0    0    0 -0.00000000000E+00 -0.00000000000E+00 -0.45593999997E+02  0.45594000000E+02  0.51100000000E-03 0. -1.
    9900012    2    1    2    0    0  0.27493558085E+02 -0.12233834937E+02  0.31273965119E+02  0.47787270194E+02  0.19999996121E+02 0.  0.
         12    1    1    2    0    0 -0.27493558085E+02  0.12233834937E+02 -0.31273965119E+02  0.43400729806E+02  0.00000000000E+00 0. -1.
         11    1    3    3    0    0  0.18530465805E+02 -0.10517167418E+02  0.13119462534E+02  0.25022175582E+02  0.51100000000E-03 0.  1.
        -11    1    3    3    0    0  0.52319667648E+01 -0.60285530680E+01  0.11546082621E+02  0.14036700199E+02  0.51100000000E-03 0. -1.
        -12    1    3    3    0    0  0.37311255154E+01  0.43118855485E+01  0.66084199648E+01  0.87283944128E+01  0.00000000000E+00 0.  1.
</event>
<event>
 7    1  0.2328615E-009  0.4778727E+02  0.7816164E-02  0.1312668E+00
        -11   -1    0    0    0    0  0.00000000000E+00  0.00000000000E+00  0.45593999997E+02  0.45594000000E+02  0.51100000000E-03 0.  1.
         11   -1    0    0    0    0 -0.00000000000E+00 -0.00000000000E+00 -0.45593999997E+02  0.45594000000E+02  0.51100000000E-03 0. -1.
    9900012    2    1    2    0    0 -0.29254508308E+02 -0.13327861185E+02  0.29157593352E+02  0.47787269704E+02  0.19999993889E+02 0.  0.
         12    1    1    2    0    0  0.29254508308E+02  0.13327861185E+02 -0.29157593352E+02  0.43400730296E+02  0.00000000000E+00 0. -1.
         11    1    3    3    0    0 -0.10163113349E+02  0.93606253674E+00  0.56235616105E+01  0.11652876532E+02  0.51100000000E-03 0. -1.
        -11    1    3    3    0    0 -0.19470772047E+02 -0.10081291907E+02  0.23199705068E+02  0.31921305207E+02  0.51100000000E-03 0.  1.
         12    1    3    3    0    0  0.37937708790E+00 -0.41826318155E+01  0.33432667359E+00  0.42130879653E+01  0.00000000000E+00 0. -1.
</event>
<event>
 7    1  0.2328615E-009  0.4778727E+02  0.7816164E-02  0.1312668E+00
        -11   -1    0    0    0    0  0.00000000000E+00  0.00000000000E+00  0.45593999997E+02  0.45594000000E+02  0.51100000000E-03 0. -1.
         11   -1    0    0    0    0 -0.00000000000E+00 -0.00000000000E+00 -0.45593999997E+02  0.45594000000E+02  0.51100000000E-03 0.  1.
    9900012    2    1    2    0    0 -0.19162733560E+01 -0.30699333202E+02 -0.30618660589E+02  0.47787267991E+02  0.19999986079E+02 0.  0.
         12    1    1    2    0    0  0.19162733560E+01  0.30699333202E+02  0.30618660589E+02  0.43400732009E+02  0.00000000000E+00 0. -1.
         11    1    3    3    0    0 -0.30967418292E+01 -0.13917708996E+02 -0.11425564154E+02  0.18271178127E+02  0.51100000000E-03 0. -1.
        -11    1    3    3    0    0 -0.65387927637E+01 -0.94920550000E+01 -0.12304927902E+02  0.16860194834E+02  0.51100000000E-03 0.  1.
         12    1    3    3    0    0  0.77192612370E+01 -0.72895692063E+01 -0.68881685330E+01  0.12655895029E+02  0.00000000000E+00 0. -1.
</event>
<event>
 7    1  0.2328615E-009  0.4778727E+02  0.7816164E-02  0.1312668E+00
        -11   -1    0    0    0    0  0.00000000000E+00  0.00000000000E+00  0.45593999997E+02  0.45594000000E+02  0.51100000000E-03 0.  1.
         11   -1    0    0    0    0 -0.00000000000E+00 -0.00000000000E+00 -0.45593999997E+02  0.45594000000E+02  0.51100000000E-03 0. -1.
    9900012    2    1    2    0    0 -0.20308571061E+02  0.35975605866E+02  0.13301915039E+02  0.47787271669E+02  0.20000002847E+02 0.  0.
         12    1    1    2    0    0  0.20308571061E+02 -0.35975605866E+02 -0.13301915039E+02  0.43400728331E+02  0.00000000000E+00 0. -1.
         11    1    3    3    0    0  0.20005310502E+01  0.83458299442E+01  0.58946148807E+01  0.10411603469E+02  0.51100000000E-03 0. -1.
        -11    1    3    3    0    0 -0.69100587668E+01  0.41829466569E+01  0.43052728538E+01  0.91532141624E+01  0.51100000000E-03 0.  1.
        -12    1    3    3    0    0 -0.15399043344E+02  0.23446829265E+02  0.31020273044E+01  0.28222454038E+02  0.00000000000E+00 0.  1.
</event>
<event>
 7    1  0.2328615E-009  0.4778727E+02  0.7816164E-02  0.1312668E+00
        -11   -1    0    0    0    0  0.00000000000E+00  0.00000000000E+00  0.45593999997E+02  0.45594000000E+02  0.51100000000E-03 0.  1.
         11   -1    0    0    0    0 -0.00000000000E+00 -0.00000000000E+00 -0.45593999997E+02  0.45594000000E+02  0.51100000000E-03 0. -1.
    9900012    2    1    2    0    0  0.34282573598E+02  0.14745495471E+01  0.26573561186E+02  0.47787270709E+02  0.19999998472E+02 0.  0.
         12    1    1    2    0    0 -0.34282573598E+02 -0.14745495471E+01 -0.26573561186E+02  0.43400729291E+02  0.00000000000E+00 0. -1.
         11    1    3    3    0    0  0.55451498983E+01  0.50669389363E+01  0.10003976232E+02  0.12510079867E+02  0.51100000000E-03 0. -1.
        -11    1    3    3    0    0  0.18911073595E+02 -0.18534591509E+00  0.16148547324E+02  0.24868426539E+02  0.51100000000E-03 0.  1.
         12    1    3    3    0    0  0.98263501051E+01 -0.34070434741E+01  0.42103762987E+00  0.10408764303E+02  0.00000000000E+00 0. -1.
</event>
<event>
 7    1  0.2328615E-009  0.4778727E+02  0.7816164E-02  0.1312668E+00
        -11   -1    0    0    0    0  0.00000000000E+00  0.00000000000E+00  0.45593999997E+02  0.45594000000E+02  0.51100000000E-03 0.  1.
         11   -1    0    0    0    0 -0.00000000000E+00 -0.00000000000E+00 -0.45593999997E+02  0.45594000000E+02  0.51100000000E-03 0. -1.
    9900012    2    1    2    0    0 -0.29755813163E+01  0.42300560845E+02  0.92429256691E+01  0.47787271816E+02  0.20000003520E+02 0.  0.
         12    1    1    2    0    0  0.29755813163E+01 -0.42300560845E+02 -0.92429256691E+01  0.43400728184E+02  0.00000000000E+00 0. -1.
         11    1    3    3    0    0 -0.76218155510E+00  0.37890962026E+01  0.27289524674E+01  0.47313161579E+01  0.51100000000E-03 0. -1.
        -11    1    3    3    0    0 -0.98007490951E+01  0.15883648571E+02  0.20524207300E+01  0.18776512079E+02  0.51100000000E-03 0.  1.
         12    1    3    3    0    0  0.75873493340E+01  0.22627816071E+02  0.44615524717E+01  0.24279443579E+02  0.00000000000E+00 0. -1.
</event>
<event>
 7    1  0.2328615E-009  0.4778728E+02  0.7816164E-02  0.1312668E+00
        -11   -1    0    0    0    0  0.00000000000E+00  0.00000000000E+00  0.45593999997E+02  0.45594000000E+02  0.51100000000E-03 0.  1.
         11   -1    0    0    0    0 -0.00000000000E+00 -0.00000000000E+00 -0.45593999997E+02  0.45594000000E+02  0.51100000000E-03 0. -1.
    9900012    2    1    2    0    0  0.23137263939E+02 -0.42270074508E+01  0.36474947684E+02  0.47787281306E+02  0.20000046787E+02 0.  0.
         12    1    1    2    0    0 -0.23137263939E+02  0.42270074508E+01 -0.36474947684E+02  0.43400718694E+02  0.00000000000E+00 0. -1.
         11    1    3    3    0    0  0.81668826583E-01 -0.28598331208E+01 -0.90508580306E-01  0.28624303206E+01  0.51100000000E-03 0. -1.
        -11    1    3    3    0    0  0.65390314124E+01  0.11716620121E+01  0.27191450900E+01  0.71781246829E+01  0.51100000000E-03 0.  1.
        -12    1    3    3    0    0  0.16516563700E+02 -0.25388363420E+01  0.33846311175E+02  0.37746726303E+02  0.00000000000E+00 0.  1.
</event>
<event>
 7    1  0.2328615E-009  0.4778728E+02  0.7816164E-02  0.1312668E+00
        -11   -1    0    0    0    0  0.00000000000E+00  0.00000000000E+00  0.45593999997E+02  0.45594000000E+02  0.51100000000E-03 0. -1.
         11   -1    0    0    0    0 -0.00000000000E+00 -0.00000000000E+00 -0.45593999997E+02  0.45594000000E+02  0.51100000000E-03 0.  1.
    9900012    2    1    2    0    0 -0.35645550368E+02  0.14657146743E+01 -0.24715762017E+02  0.47787280276E+02  0.20000042089E+02 0.  0.
         12    1    1    2    0    0  0.35645550368E+02 -0.14657146743E+01  0.24715762017E+02  0.43400719724E+02  0.00000000000E+00 0. -1.
         11    1    3    3    0    0 -0.69998074021E+00  0.18609389030E+01 -0.50361499298E+01  0.54144134506E+01  0.51100000000E-03 0. -1.
        -11    1    3    3    0    0 -0.89637197852E+01 -0.59977908254E+01 -0.39360496020E+01  0.11481038886E+02  0.51100000000E-03 0.  1.
        -12    1    3    3    0    0 -0.25981849842E+02  0.56025665968E+01 -0.15743562485E+02  0.30891827939E+02  0.00000000000E+00 0.  1.
</event>
<event>
 7    1  0.2328615E-009  0.4778727E+02  0.7816164E-02  0.1312668E+00
        -11   -1    0    0    0    0  0.00000000000E+00  0.00000000000E+00  0.45593999997E+02  0.45594000000E+02  0.51100000000E-03 0. -1.
         11   -1    0    0    0    0 -0.00000000000E+00 -0.00000000000E+00 -0.45593999997E+02  0.45594000000E+02  0.51100000000E-03 0.  1.
    9900012    2    1    2    0    0  0.10473657427E+02 -0.28677977409E+02 -0.30846390536E+02  0.47787266167E+02  0.19999977761E+02 0.  0.
         12    1    1    2    0    0 -0.10473657427E+02  0.28677977409E+02  0.30846390536E+02  0.43400733833E+02  0.00000000000E+00 0. -1.
         11    1    3    3    0    0  0.12221459208E+02 -0.10556685327E+02 -0.10020200500E+02  0.19005580459E+02  0.51100000000E-03 0. -1.
        -11    1    3    3    0    0  0.28998580478E+01 -0.89058359093E+01 -0.11840959751E+02  0.15097397723E+02  0.51100000000E-03 0.  1.
        -12    1    3    3    0    0 -0.46476598293E+01 -0.92154561719E+01 -0.89852302858E+01  0.13684287984E+02  0.00000000000E+00 0.  1.
</event>
<event>
 7    1  0.2328615E-009  0.4778727E+02  0.7816164E-02  0.1312668E+00
        -11   -1    0    0    0    0  0.00000000000E+00  0.00000000000E+00  0.45593999997E+02  0.45594000000E+02  0.51100000000E-03 0. -1.
         11   -1    0    0    0    0 -0.00000000000E+00 -0.00000000000E+00 -0.45593999997E+02  0.45594000000E+02  0.51100000000E-03 0.  1.
    9900012    2    1    2    0    0 -0.39445245569E+02  0.37811903128E+01 -0.17703075272E+02  0.47787266454E+02  0.19999979072E+02 0.  0.
         12    1    1    2    0    0  0.39445245569E+02 -0.37811903128E+01  0.17703075272E+02  0.43400733546E+02  0.00000000000E+00 0. -1.
         11    1    3    3    0    0  0.26807397897E+00  0.12971937719E+01  0.27433894256E+00  0.13527148467E+01  0.51100000000E-03 0. -1.
        -11    1    3    3    0    0 -0.21254792034E+01  0.34869758348E+01  0.11574503762E+01  0.42445675812E+01  0.51100000000E-03 0.  1.
        -12    1    3    3    0    0 -0.37587840345E+02 -0.10029792939E+01 -0.19134864591E+02  0.42189984027E+02  0.00000000000E+00 0.  1.
</event>
<event>
 7    1  0.2328615E-009  0.4778727E+02  0.7816164E-02  0.1312668E+00
        -11   -1    0    0    0    0  0.00000000000E+00  0.00000000000E+00  0.45593999997E+02  0.45594000000E+02  0.51100000000E-03 0.  1.
         11   -1    0    0    0    0 -0.00000000000E+00 -0.00000000000E+00 -0.45593999997E+02  0.45594000000E+02  0.51100000000E-03 0. -1.
    9900012    2    1    2    0    0  0.31313188578E+02  0.26082373268E+02  0.14927067286E+02  0.47787270605E+02  0.19999997999E+02 0.  0.
         12    1    1    2    0    0 -0.31313188578E+02 -0.26082373268E+02 -0.14927067286E+02  0.43400729395E+02  0.00000000000E+00 0. -1.
         11    1    3    3    0    0  0.10667725923E+02  0.16286558699E+02  0.36404405161E-01  0.19469301379E+02  0.51100000000E-03 0. -1.
        -11    1    3    3    0    0  0.90945577918E+01  0.49899645319E+01  0.24172766895E+01  0.10651476626E+02  0.51100000000E-03 0.  1.
         12    1    3    3    0    0  0.11550904863E+02  0.48058500368E+01  0.12473386191E+02  0.17666492601E+02  0.00000000000E+00 0. -1.
</event>
<event>
 7    1  0.2328615E-009  0.4778727E+02  0.7816164E-02  0.1312668E+00
        -11   -1    0    0    0    0  0.00000000000E+00  0.00000000000E+00  0.45593999997E+02  0.45594000000E+02  0.51100000000E-03 0. -1.
         11   -1    0    0    0    0 -0.00000000000E+00 -0.00000000000E+00 -0.45593999997E+02  0.45594000000E+02  0.51100000000E-03 0.  1.
    9900012    2    1    2    0    0  0.15764434651E+01  0.42079156087E+02 -0.10511065963E+02  0.47787273524E+02  0.20000011304E+02 0.  0.
         12    1    1    2    0    0 -0.15764434651E+01 -0.42079156087E+02  0.10511065963E+02  0.43400726476E+02  0.00000000000E+00 0. -1.
         11    1    3    3    0    0  0.21959089757E+01 -0.10184213902E+00 -0.97199761428E+00  0.24035739377E+01  0.51100000000E-03 0. -1.
        -11    1    3    3    0    0 -0.35736107443E+01  0.11649365941E+02 -0.81862163143E+01  0.14679664791E+02  0.51100000000E-03 0.  1.
         12    1    3    3    0    0  0.29541452337E+01  0.30531632285E+02 -0.13528520349E+01  0.30704034795E+02  0.00000000000E+00 0. -1.
</event>
<event>
 7    1  0.2328615E-009  0.4778727E+02  0.7816164E-02  0.1312668E+00
        -11   -1    0    0    0    0  0.00000000000E+00  0.00000000000E+00  0.45593999997E+02  0.45594000000E+02  0.51100000000E-03 0. -1.
         11   -1    0    0    0    0 -0.00000000000E+00 -0.00000000000E+00 -0.45593999997E+02  0.45594000000E+02  0.51100000000E-03 0.  1.
    9900012    2    1    2    0    0 -0.10002112362E+02 -0.53054516804E+01 -0.41897892537E+02  0.47787268804E+02  0.19999989787E+02 0.  0.
         12    1    1    2    0    0  0.10002112362E+02  0.53054516804E+01  0.41897892537E+02  0.43400731196E+02  0.00000000000E+00 0. -1.
         11    1    3    3    0    0 -0.14291609951E+01 -0.11048179765E+02 -0.15837004450E+02  0.19362734504E+02  0.51100000000E-03 0. -1.
        -11    1    3    3    0    0 -0.36246221268E+01 -0.11438845505E+00 -0.71147607040E+01  0.79856615516E+01  0.51100000000E-03 0.  1.
        -12    1    3    3    0    0 -0.49483292397E+01  0.58571165392E+01 -0.18946127383E+02  0.20438872749E+02  0.00000000000E+00 0.  1.
</event>
<event>
 7    1  0.2328615E-009  0.4778728E+02  0.7816164E-02  0.1312668E+00
        -11   -1    0    0    0    0  0.00000000000E+00  0.00000000000E+00  0.45593999997E+02  0.45594000000E+02  0.51100000000E-03 0. -1.
         11   -1    0    0    0    0 -0.00000000000E+00 -0.00000000000E+00 -0.45593999997E+02  0.45594000000E+02  0.51100000000E-03 0.  1.
    9900012    2    1    2    0    0  0.36742548487E+02 -0.22944783923E+02 -0.26729794857E+01  0.47787276528E+02  0.20000025002E+02 0.  0.
         12    1    1    2    0    0 -0.36742548487E+02  0.22944783923E+02  0.26729794857E+01  0.43400723472E+02  0.00000000000E+00 0. -1.
         11    1    3    3    0    0  0.12316371321E+02 -0.48827079243E+01  0.80631055083E+01  0.15509594124E+02  0.51100000000E-03 0. -1.
        -11    1    3    3    0    0  0.31890462521E+01 -0.15983855657E+01 -0.11613764839E+01  0.37514861072E+01  0.51100000000E-03 0.  1.
        -12    1    3    3    0    0  0.21237130913E+02 -0.16463690433E+02 -0.95747085101E+01  0.28526196297E+02  0.00000000000E+00 0.  1.
</event>
<event>
 7    1  0.2652302E-009  0.4778727E+02  0.7816164E-02  0.1312668E+00
        -11   -1    0    0    0    0  0.00000000000E+00  0.00000000000E+00  0.45593999997E+02  0.45594000000E+02  0.51100000000E-03 0. -1.
         11   -1    0    0    0    0 -0.00000000000E+00 -0.00000000000E+00 -0.45593999997E+02  0.45594000000E+02  0.51100000000E-03 0.  1.
    9900012    2    1    2    0    0  0.15882118452E+02 -0.81506437176E+01 -0.39559431232E+02  0.47787270986E+02  0.19999999735E+02 0.  0.
         12    1    1    2    0    0 -0.15882118452E+02  0.81506437176E+01  0.39559431232E+02  0.43400729014E+02  0.00000000000E+00 0. -1.
         11    1    3    3    0    0  0.37239627318E+00 -0.68125361065E+01 -0.93586753487E+01  0.11581629062E+02  0.51100000000E-03 0. -1.
        -11    1    3    3    0    0  0.53613607136E+00  0.34411391763E+01 -0.10135425212E+02  0.10717076336E+02  0.51100000000E-03 0.  1.
        -12    1    3    3    0    0  0.14973586108E+02 -0.47792467874E+01 -0.20065330671E+02  0.25488565588E+02  0.00000000000E+00 0.  1.
</event>
<event>
 7    1  0.2328615E-009  0.4778727E+02  0.7816164E-02  0.1312668E+00
        -11   -1    0    0    0    0  0.00000000000E+00  0.00000000000E+00  0.45593999997E+02  0.45594000000E+02  0.51100000000E-03 0.  1.
         11   -1    0    0    0    0 -0.00000000000E+00 -0.00000000000E+00 -0.45593999997E+02  0.45594000000E+02  0.51100000000E-03 0. -1.
    9900012    2    1    2    0    0 -0.57615642379E+01  0.42900190760E+02 -0.31624882001E+01  0.47787270498E+02  0.19999997507E+02 0.  0.
         12    1    1    2    0    0  0.57615642379E+01 -0.42900190760E+02  0.31624882001E+01  0.43400729502E+02  0.00000000000E+00 0. -1.
         11    1    3    3    0    0  0.59248044556E+01  0.13779751618E+02 -0.38395423418E+01  0.15483118166E+02  0.51100000000E-03 0. -1.
        -11    1    3    3    0    0 -0.37288960936E+01  0.15942487226E+02 -0.25645684048E+01  0.16572404062E+02  0.51100000000E-03 0.  1.
        -12    1    3    3    0    0 -0.79574726000E+01  0.13177951916E+02  0.32416225466E+01  0.15731748269E+02  0.00000000000E+00 0.  1.
</event>
<event>
 7    1  0.2328615E-009  0.4778727E+02  0.7816164E-02  0.1312668E+00
        -11   -1    0    0    0    0  0.00000000000E+00  0.00000000000E+00  0.45593999997E+02  0.45594000000E+02  0.51100000000E-03 0. -1.
         11   -1    0    0    0    0 -0.00000000000E+00 -0.00000000000E+00 -0.45593999997E+02  0.45594000000E+02  0.51100000000E-03 0.  1.
    9900012    2    1    2    0    0  0.12063012212E+02  0.40901261633E+02 -0.80742778636E+01  0.47787269248E+02  0.19999991809E+02 0.  0.
         12    1    1    2    0    0 -0.12063012212E+02 -0.40901261633E+02  0.80742778636E+01  0.43400730752E+02  0.00000000000E+00 0. -1.
         11    1    3    3    0    0  0.18489532060E+01  0.17767112435E+02 -0.11521606230E+01  0.17900178396E+02  0.51100000000E-03 0. -1.
        -11    1    3    3    0    0 -0.35535441034E+01  0.29972765422E+01 -0.16291562629E+01  0.49260017007E+01  0.51100000000E-03 0.  1.
        -12    1    3    3    0    0  0.13767603109E+02  0.20136872656E+02 -0.52929609776E+01  0.24961089152E+02  0.00000000000E+00 0.  1.
</event>
<event>
 7    1  0.2328615E-009  0.4778727E+02  0.7816164E-02  0.1312668E+00
        -11   -1    0    0    0    0  0.00000000000E+00  0.00000000000E+00  0.45593999997E+02  0.45594000000E+02  0.51100000000E-03 0.  1.
         11   -1    0    0    0    0 -0.00000000000E+00 -0.00000000000E+00 -0.45593999997E+02  0.45594000000E+02  0.51100000000E-03 0. -1.
    9900012    2    1    2    0    0 -0.12432298874E+01  0.10614956135E+02  0.42064241789E+02  0.47787270149E+02  0.19999995919E+02 0.  0.
         12    1    1    2    0    0  0.12432298874E+01 -0.10614956135E+02 -0.42064241789E+02  0.43400729851E+02  0.00000000000E+00 0. -1.
         11    1    3    3    0    0  0.20595647291E+01 -0.12253310277E+01 -0.12797884478E+00  0.23999212167E+01  0.51100000000E-03 0. -1.
        -11    1    3    3    0    0  0.41696567517E+01  0.50260670094E+01  0.14373952099E+02  0.15787903161E+02  0.51100000000E-03 0.  1.
        -12    1    3    3    0    0 -0.74724513681E+01  0.68142201538E+01  0.27818268535E+02  0.29599445772E+02  0.00000000000E+00 0.  1.
</event>
<event>
 7    1  0.2328615E-009  0.4778726E+02  0.7816164E-02  0.1312668E+00
        -11   -1    0    0    0    0  0.00000000000E+00  0.00000000000E+00  0.45593999997E+02  0.45594000000E+02  0.51100000000E-03 0.  1.
         11   -1    0    0    0    0 -0.00000000000E+00 -0.00000000000E+00 -0.45593999997E+02  0.45594000000E+02  0.51100000000E-03 0. -1.
    9900012    2    1    2    0    0  0.16286530158E+02  0.20000541240E+02  0.34904893812E+02  0.47787258917E+02  0.19999944707E+02 0.  0.
         12    1    1    2    0    0 -0.16286530158E+02 -0.20000541240E+02 -0.34904893812E+02  0.43400741083E+02  0.00000000000E+00 0. -1.
         11    1    3    3    0    0  0.86462976650E+01  0.16084680628E+01  0.96524732398E+01  0.13058172641E+02  0.51100000000E-03 0. -1.
        -11    1    3    3    0    0  0.56321645272E+01  0.32986462921E+00  0.53025719074E+01  0.77425678576E+01  0.51100000000E-03 0.  1.
         12    1    3    3    0    0  0.20080679656E+01  0.18062208548E+02  0.19949848665E+02  0.26986518419E+02  0.00000000000E+00 0. -1.
</event>
<event>
 7    1  0.2328615E-009  0.4778727E+02  0.7816164E-02  0.1312668E+00
        -11   -1    0    0    0    0  0.00000000000E+00  0.00000000000E+00  0.45593999997E+02  0.45594000000E+02  0.51100000000E-03 0. -1.
         11   -1    0    0    0    0 -0.00000000000E+00 -0.00000000000E+00 -0.45593999997E+02  0.45594000000E+02  0.51100000000E-03 0.  1.
    9900012    2    1    2    0    0 -0.34560316365E+02  0.10555023399E+02 -0.24037450949E+02  0.47787273804E+02  0.20000012581E+02 0.  0.
         12    1    1    2    0    0  0.34560316365E+02 -0.10555023399E+02  0.24037450949E+02  0.43400726196E+02  0.00000000000E+00 0. -1.
         11    1    3    3    0    0 -0.62550498603E+01  0.37797028131E+01 -0.10153665614E+02  0.12510344830E+02  0.51100000000E-03 0. -1.
        -11    1    3    3    0    0 -0.22542350479E+02  0.80114948267E+01 -0.16255383612E+02  0.28923677344E+02  0.51100000000E-03 0.  1.
         12    1    3    3    0    0 -0.57629160262E+01 -0.12361742412E+01  0.23715982765E+01  0.63532516293E+01  0.00000000000E+00 0. -1.
</event>
<event>
 7    1  0.2328615E-009  0.4778727E+02  0.7816164E-02  0.1312668E+00
        -11   -1    0    0    0    0  0.00000000000E+00  0.00000000000E+00  0.45593999997E+02  0.45594000000E+02  0.51100000000E-03 0.  1.
         11   -1    0    0    0    0 -0.00000000000E+00 -0.00000000000E+00 -0.45593999997E+02  0.45594000000E+02  0.51100000000E-03 0. -1.
    9900012    2    1    2    0    0  0.11901088834E+02 -0.68664410591E+01  0.41168426262E+02  0.47787271329E+02  0.20000001298E+02 0.  0.
         12    1    1    2    0    0 -0.11901088834E+02  0.68664410591E+01 -0.41168426262E+02  0.43400728671E+02  0.00000000000E+00 0. -1.
         11    1    3    3    0    0  0.51710394316E+01 -0.65974651311E+00  0.28481028684E+01  0.59402528965E+01  0.51100000000E-03 0. -1.
        -11    1    3    3    0    0  0.11326102485E+01 -0.13709916367E+01 -0.85943855204E+00  0.19751098523E+01  0.51100000000E-03 0.  1.
        -12    1    3    3    0    0  0.55974391540E+01 -0.48357029093E+01  0.39179761946E+02  0.39871908580E+02  0.00000000000E+00 0.  1.
</event>
<event>
 7    1  0.2328615E-009  0.4778727E+02  0.7816164E-02  0.1312668E+00
        -11   -1    0    0    0    0  0.00000000000E+00  0.00000000000E+00  0.45593999997E+02  0.45594000000E+02  0.51100000000E-03 0.  1.
         11   -1    0    0    0    0 -0.00000000000E+00 -0.00000000000E+00 -0.45593999997E+02  0.45594000000E+02  0.51100000000E-03 0. -1.
    9900012    2    1    2    0    0 -0.36056606899E+02  0.45035952142E+01 -0.23733147153E+02  0.47787267924E+02  0.19999985774E+02 0.  0.
         12    1    1    2    0    0  0.36056606899E+02 -0.45035952142E+01  0.23733147153E+02  0.43400732076E+02  0.00000000000E+00 0. -1.
         11    1    3    3    0    0 -0.34965295024E+01 -0.28555437339E+01  0.42923904679E+00  0.45347651535E+01  0.51100000000E-03 0. -1.
        -11    1    3    3    0    0 -0.17703524648E+02  0.38334939770E+01 -0.50791897615E+01  0.18812459434E+02  0.51100000000E-03 0.  1.
        -12    1    3    3    0    0 -0.14856552748E+02  0.35256449711E+01 -0.19083196438E+02  0.24440043337E+02  0.00000000000E+00 0.  1.
</event>
<event>
 7    1  0.2328615E-009  0.4778727E+02  0.7816164E-02  0.1312668E+00
        -11   -1    0    0    0    0  0.00000000000E+00  0.00000000000E+00  0.45593999997E+02  0.45594000000E+02  0.51100000000E-03 0.  1.
         11   -1    0    0    0    0 -0.00000000000E+00 -0.00000000000E+00 -0.45593999997E+02  0.45594000000E+02  0.51100000000E-03 0. -1.
    9900012    2    1    2    0    0 -0.28267687266E+01  0.22597034067E+02  0.36945998852E+02  0.47787269577E+02  0.19999993311E+02 0.  0.
         12    1    1    2    0    0  0.28267687266E+01 -0.22597034067E+02 -0.36945998852E+02  0.43400730423E+02  0.00000000000E+00 0. -1.
         11    1    3    3    0    0 -0.24794724174E+01  0.92033919071E+00  0.18743445519E+01  0.32416007550E+01  0.51100000000E-03 0. -1.
        -11    1    3    3    0    0  0.81015773234E+01  0.11880719688E+02  0.16145458643E+02  0.21620890141E+02  0.51100000000E-03 0.  1.
        -12    1    3    3    0    0 -0.84488736327E+01  0.97959751886E+01  0.18926195657E+02  0.22924778682E+02  0.00000000000E+00 0.  1.
</event>
<event>
 7    1  0.2328615E-009  0.4778727E+02  0.7816164E-02  0.1312668E+00
        -11   -1    0    0    0    0  0.00000000000E+00  0.00000000000E+00  0.45593999997E+02  0.45594000000E+02  0.51100000000E-03 0.  1.
         11   -1    0    0    0    0 -0.00000000000E+00 -0.00000000000E+00 -0.45593999997E+02  0.45594000000E+02  0.51100000000E-03 0. -1.
    9900012    2    1    2    0    0 -0.17284723331E+02 -0.35520031701E+02 -0.17977457042E+02  0.47787271039E+02  0.19999999975E+02 0.  0.
         12    1    1    2    0    0  0.17284723331E+02  0.35520031701E+02  0.17977457042E+02  0.43400728961E+02  0.00000000000E+00 0. -1.
         11    1    3    3    0    0  0.99215938818E+00 -0.17702674888E+02 -0.33064790711E+01  0.18036127150E+02  0.51100000000E-03 0. -1.
        -11    1    3    3    0    0 -0.47846096976E+01 -0.65472218358E+01 -0.29834120846E+01  0.86405643133E+01  0.51100000000E-03 0.  1.
         12    1    3    3    0    0 -0.13492273022E+02 -0.11270134977E+02 -0.11687565886E+02  0.21110579576E+02  0.00000000000E+00 0. -1.
</event>
<event>
 7    1  0.2328615E-009  0.4778727E+02  0.7816164E-02  0.1312668E+00
        -11   -1    0    0    0    0  0.00000000000E+00  0.00000000000E+00  0.45593999997E+02  0.45594000000E+02  0.51100000000E-03 0. -1.
         11   -1    0    0    0    0 -0.00000000000E+00 -0.00000000000E+00 -0.45593999997E+02  0.45594000000E+02  0.51100000000E-03 0.  1.
    9900012    2    1    2    0    0  0.40482628717E+02  0.87425346924E+01  0.12974913141E+02  0.47787268305E+02  0.19999987508E+02 0.  0.
         12    1    1    2    0    0 -0.40482628717E+02 -0.87425346924E+01 -0.12974913141E+02  0.43400731695E+02  0.00000000000E+00 0. -1.
         11    1    3    3    0    0  0.25725531601E+00  0.14170168934E+01 -0.18414611792E+01  0.23377546298E+01  0.51100000000E-03 0. -1.
        -11    1    3    3    0    0  0.18565073424E+02 -0.26515860552E+01  0.36003645247E+01  0.19095954672E+02  0.51100000000E-03 0.  1.
         12    1    3    3    0    0  0.21660299977E+02  0.99771038543E+01  0.11216009795E+02  0.26353559003E+02  0.00000000000E+00 0. -1.
</event>
<event>
 7    1  0.2328615E-009  0.4778727E+02  0.7816164E-02  0.1312668E+00
        -11   -1    0    0    0    0  0.00000000000E+00  0.00000000000E+00  0.45593999997E+02  0.45594000000E+02  0.51100000000E-03 0. -1.
         11   -1    0    0    0    0 -0.00000000000E+00 -0.00000000000E+00 -0.45593999997E+02  0.45594000000E+02  0.51100000000E-03 0.  1.
    9900012    2    1    2    0    0  0.13934792996E+02  0.38405094606E+02 -0.14645586867E+02  0.47787274635E+02  0.20000016369E+02 0.  0.
         12    1    1    2    0    0 -0.13934792996E+02 -0.38405094606E+02  0.14645586867E+02  0.43400725365E+02  0.00000000000E+00 0. -1.
         11    1    3    3    0    0 -0.25209275953E+01  0.48314106566E+01 -0.22548017949E+01  0.58976042821E+01  0.51100000000E-03 0. -1.
        -11    1    3    3    0    0 -0.14393319235E+01 -0.48865583662E+00 -0.71818191083E+00  0.16811443813E+01  0.51100000000E-03 0.  1.
        -12    1    3    3    0    0  0.17895052515E+02  0.34062339786E+02 -0.11672603162E+02  0.40208525971E+02  0.00000000000E+00 0.  1.
</event>
<event>
 7    1  0.2328615E-009  0.4778727E+02  0.7816164E-02  0.1312668E+00
        -11   -1    0    0    0    0  0.00000000000E+00  0.00000000000E+00  0.45593999997E+02  0.45594000000E+02  0.51100000000E-03 0.  1.
         11   -1    0    0    0    0 -0.00000000000E+00 -0.00000000000E+00 -0.45593999997E+02  0.45594000000E+02  0.51100000000E-03 0. -1.
    9900012    2    1    2    0    0  0.13432038665E+02 -0.25604002966E+02  0.32367248223E+02  0.47787269729E+02  0.19999994001E+02 0.  0.
         12    1    1    2    0    0 -0.13432038665E+02  0.25604002966E+02 -0.32367248223E+02  0.43400730271E+02  0.00000000000E+00 0. -1.
         11    1    3    3    0    0  0.46173337127E+01 -0.63921433393E+00  0.57709162173E+01  0.74183448172E+01  0.51100000000E-03 0. -1.
        -11    1    3    3    0    0  0.55694353161E+01 -0.67593209596E+01  0.17912555667E+02  0.19939074210E+02  0.51100000000E-03 0.  1.
         12    1    3    3    0    0  0.32452696360E+01 -0.18205467672E+02  0.86837763384E+01  0.20429850701E+02  0.00000000000E+00 0. -1.
</event>
<event>
 7    1  0.2328615E-009  0.4778728E+02  0.7816164E-02  0.1312668E+00
        -11   -1    0    0    0    0  0.00000000000E+00  0.00000000000E+00  0.45593999997E+02  0.45594000000E+02  0.51100000000E-03 0.  1.
         11   -1    0    0    0    0 -0.00000000000E+00 -0.00000000000E+00 -0.45593999997E+02  0.45594000000E+02  0.51100000000E-03 0. -1.
    9900012    2    1    2    0    0  0.33025243977E+02 -0.66850845911E+00  0.28151535325E+02  0.47787278987E+02  0.20000036214E+02 0.  0.
         12    1    1    2    0    0 -0.33025243977E+02  0.66850845911E+00 -0.28151535325E+02  0.43400721013E+02  0.00000000000E+00 0. -1.
         11    1    3    3    0    0  0.25092296200E+02 -0.25934985868E+01  0.19042518384E+02  0.31606440328E+02  0.51100000000E-03 0. -1.
        -11    1    3    3    0    0  0.44028492213E+01 -0.31969955797E+01  0.82763243774E+01  0.99047164251E+01  0.51100000000E-03 0.  1.
         12    1    3    3    0    0  0.35300985551E+01  0.51219857073E+01  0.83269256370E+00  0.62761222344E+01  0.00000000000E+00 0. -1.
</event>
<event>
 7    1  0.2328615E-009  0.4778728E+02  0.7816164E-02  0.1312668E+00
        -11   -1    0    0    0    0  0.00000000000E+00  0.00000000000E+00  0.45593999997E+02  0.45594000000E+02  0.51100000000E-03 0.  1.
         11   -1    0    0    0    0 -0.00000000000E+00 -0.00000000000E+00 -0.45593999997E+02  0.45594000000E+02  0.51100000000E-03 0. -1.
    9900012    2    1    2    0    0 -0.30378112129E+02  0.50737291612E+01  0.30578593300E+02  0.47787276592E+02  0.20000025294E+02 0.  0.
         12    1    1    2    0    0  0.30378112129E+02 -0.50737291612E+01 -0.30578593300E+02  0.43400723408E+02  0.00000000000E+00 0. -1.
         11    1    3    3    0    0 -0.22701608397E+02 -0.21951356830E+01  0.15842578974E+02  0.27769928940E+02  0.51100000000E-03 0. -1.
        -11    1    3    3    0    0 -0.69392915878E+01  0.13047426485E+01  0.10545354555E+02  0.12690966238E+02  0.51100000000E-03 0.  1.
        -12    1    3    3    0    0 -0.73721214409E+00  0.59641221957E+01  0.41906597704E+01  0.73263814139E+01  0.00000000000E+00 0.  1.
</event>
<event>
 7    1  0.2328615E-009  0.4778727E+02  0.7816164E-02  0.1312668E+00
        -11   -1    0    0    0    0  0.00000000000E+00  0.00000000000E+00  0.45593999997E+02  0.45594000000E+02  0.51100000000E-03 0.  1.
         11   -1    0    0    0    0 -0.00000000000E+00 -0.00000000000E+00 -0.45593999997E+02  0.45594000000E+02  0.51100000000E-03 0. -1.
    9900012    2    1    2    0    0 -0.96667096399E+01 -0.38731941046E+02  0.17029834336E+02  0.47787265099E+02  0.19999972892E+02 0.  0.
         12    1    1    2    0    0  0.96667096399E+01  0.38731941046E+02 -0.17029834336E+02  0.43400734901E+02  0.00000000000E+00 0. -1.
         11    1    3    3    0    0 -0.29250723283E+01 -0.43006541226E+01  0.45920205296E+01  0.69381789263E+01  0.51100000000E-03 0. -1.
        -11    1    3    3    0    0 -0.73643303769E+01 -0.56841245677E+01  0.68613105473E+01  0.11559421123E+02  0.51100000000E-03 0.  1.
        -12    1    3    3    0    0  0.62269306529E+00 -0.28747162356E+02  0.55765032592E+01  0.29289665050E+02  0.00000000000E+00 0.  1.
</event>
<event>
 7    1  0.2328615E-009  0.4778727E+02  0.7816164E-02  0.1312668E+00
        -11   -1    0    0    0    0  0.00000000000E+00  0.00000000000E+00  0.45593999997E+02  0.45594000000E+02  0.51100000000E-03 0.  1.
         11   -1    0    0    0    0 -0.00000000000E+00 -0.00000000000E+00 -0.45593999997E+02  0.45594000000E+02  0.51100000000E-03 0. -1.
    9900012    2    1    2    0    0  0.32388916900E+02  0.26326665513E+02  0.11894862315E+02  0.47787274148E+02  0.20000014152E+02 0.  0.
         12    1    1    2    0    0 -0.32388916900E+02 -0.26326665513E+02 -0.11894862315E+02  0.43400725852E+02  0.00000000000E+00 0. -1.
         11    1    3    3    0    0  0.38177064693E+01  0.10172488297E+02 -0.59269693836E-01  0.10865445872E+02  0.51100000000E-03 0. -1.
        -11    1    3    3    0    0  0.13310847125E+02  0.13873399660E+02  0.89276956086E+01  0.21197962602E+02  0.51100000000E-03 0.  1.
        -12    1    3    3    0    0  0.15260363305E+02  0.22807775555E+01  0.30264363999E+01  0.15723865674E+02  0.00000000000E+00 0.  1.
</event>
<event>
 7    1  0.2328615E-009  0.4778727E+02  0.7816164E-02  0.1312668E+00
        -11   -1    0    0    0    0  0.00000000000E+00  0.00000000000E+00  0.45593999997E+02  0.45594000000E+02  0.51100000000E-03 0. -1.
         11   -1    0    0    0    0 -0.00000000000E+00 -0.00000000000E+00 -0.45593999997E+02  0.45594000000E+02  0.51100000000E-03 0.  1.
    9900012    2    1    2    0    0  0.71349913498E+01 -0.10619543224E+02 -0.41472161164E+02  0.47787274759E+02  0.20000016936E+02 0.  0.
         12    1    1    2    0    0 -0.71349913498E+01  0.10619543224E+02  0.41472161164E+02  0.43400725241E+02  0.00000000000E+00 0. -1.
         11    1    3    3    0    0  0.89798402837E+00 -0.83454521054E+01 -0.94070869754E+01  0.12607387984E+02  0.51100000000E-03 0. -1.
        -11    1    3    3    0    0  0.21984852900E+00 -0.13714473734E+01  0.90192712047E+00  0.16561020698E+01  0.51100000000E-03 0.  1.
        -12    1    3    3    0    0  0.60171587924E+01 -0.90264374553E+00 -0.32967001309E+02  0.33523784705E+02  0.00000000000E+00 0.  1.
</event>
<event>
 7    1  0.2328615E-009  0.4778727E+02  0.7816164E-02  0.1312668E+00
        -11   -1    0    0    0    0  0.00000000000E+00  0.00000000000E+00  0.45593999997E+02  0.45594000000E+02  0.51100000000E-03 0.  1.
         11   -1    0    0    0    0 -0.00000000000E+00 -0.00000000000E+00 -0.45593999997E+02  0.45594000000E+02  0.51100000000E-03 0. -1.
    9900012    2    1    2    0    0  0.23035869067E+02  0.99533547370E+01  0.35410490304E+02  0.47787270078E+02  0.19999995593E+02 0.  0.
         12    1    1    2    0    0 -0.23035869067E+02 -0.99533547370E+01 -0.35410490304E+02  0.43400729922E+02  0.00000000000E+00 0. -1.
         11    1    3    3    0    0  0.55638653568E+01 -0.22087803475E+01  0.86090467196E+01  0.10485751953E+02  0.51100000000E-03 0. -1.
        -11    1    3    3    0    0  0.11549598521E+02 -0.74520013249E+00  0.99374304292E+01  0.15254542701E+02  0.51100000000E-03 0.  1.
        -12    1    3    3    0    0  0.59224051890E+01  0.12907335217E+02  0.16864013156E+02  0.22046975424E+02  0.00000000000E+00 0.  1.
</event>
<event>
 7    1  0.2328615E-009  0.4778726E+02  0.7816164E-02  0.1312668E+00
        -11   -1    0    0    0    0  0.00000000000E+00  0.00000000000E+00  0.45593999997E+02  0.45594000000E+02  0.51100000000E-03 0.  1.
         11   -1    0    0    0    0 -0.00000000000E+00 -0.00000000000E+00 -0.45593999997E+02  0.45594000000E+02  0.51100000000E-03 0. -1.
    9900012    2    1    2    0    0  0.21944081732E+02  0.15303433436E+02  0.34174355240E+02  0.47787258600E+02  0.19999943263E+02 0.  0.
         12    1    1    2    0    0 -0.21944081732E+02 -0.15303433436E+02 -0.34174355240E+02  0.43400741400E+02  0.00000000000E+00 0. -1.
         11    1    3    3    0    0  0.10617488584E+02  0.56896839581E+01  0.80115801153E+01  0.14466823548E+02  0.51100000000E-03 0. -1.
        -11    1    3    3    0    0  0.11627421282E+02  0.12508518899E+02  0.18776310359E+02  0.25381288416E+02  0.51100000000E-03 0.  1.
         12    1    3    3    0    0 -0.30082813415E+00 -0.28947694215E+01  0.73864647659E+01  0.79391466360E+01  0.00000000000E+00 0. -1.
</event>
<event>
 7    1  0.2328615E-009  0.4778727E+02  0.7816164E-02  0.1312668E+00
        -11   -1    0    0    0    0  0.00000000000E+00  0.00000000000E+00  0.45593999997E+02  0.45594000000E+02  0.51100000000E-03 0. -1.
         11   -1    0    0    0    0 -0.00000000000E+00 -0.00000000000E+00 -0.45593999997E+02  0.45594000000E+02  0.51100000000E-03 0.  1.
    9900012    2    1    2    0    0  0.32028277761E+02  0.29257723267E+02  0.13408957128E+01  0.47787274794E+02  0.20000017095E+02 0.  0.
         12    1    1    2    0    0 -0.32028277761E+02 -0.29257723267E+02 -0.13408957128E+01  0.43400725206E+02  0.00000000000E+00 0. -1.
         11    1    3    3    0    0  0.17297264632E+02  0.12139976433E+02 -0.45609460983E+01  0.21618895002E+02  0.51100000000E-03 0. -1.
        -11    1    3    3    0    0  0.14612417631E+02  0.85622882715E+01  0.37796700028E+01  0.17352850920E+02  0.51100000000E-03 0.  1.
         12    1    3    3    0    0  0.11859549858E+00  0.85554585619E+01  0.21221718083E+01  0.88155288713E+01  0.00000000000E+00 0. -1.
</event>
<event>
 7    1  0.2328615E-009  0.4778727E+02  0.7816164E-02  0.1312668E+00
        -11   -1    0    0    0    0  0.00000000000E+00  0.00000000000E+00  0.45593999997E+02  0.45594000000E+02  0.51100000000E-03 0.  1.
         11   -1    0    0    0    0 -0.00000000000E+00 -0.00000000000E+00 -0.45593999997E+02  0.45594000000E+02  0.51100000000E-03 0. -1.
    9900012    2    1    2    0    0 -0.19144038806E+02  0.14679052710E+02  0.36078447707E+02  0.47787271904E+02  0.20000003920E+02 0.  0.
         12    1    1    2    0    0  0.19144038806E+02 -0.14679052710E+02 -0.36078447707E+02  0.43400728096E+02  0.00000000000E+00 0. -1.
         11    1    3    3    0    0 -0.14403367878E+02  0.83910539933E+01  0.14039803632E+02  0.21794101946E+02  0.51100000000E-03 0. -1.
        -11    1    3    3    0    0 -0.73802663911E+01  0.21694525813E+01  0.18252598262E+02  0.19807377416E+02  0.51100000000E-03 0.  1.
         12    1    3    3    0    0  0.26395954629E+01  0.41185461359E+01  0.37860458131E+01  0.61857925426E+01  0.00000000000E+00 0. -1.
</event>
<event>
 7    1  0.2328615E-009  0.4778727E+02  0.7816164E-02  0.1312668E+00
        -11   -1    0    0    0    0  0.00000000000E+00  0.00000000000E+00  0.45593999997E+02  0.45594000000E+02  0.51100000000E-03 0.  1.
         11   -1    0    0    0    0 -0.00000000000E+00 -0.00000000000E+00 -0.45593999997E+02  0.45594000000E+02  0.51100000000E-03 0. -1.
    9900012    2    1    2    0    0  0.21438465804E+02 -0.11407786046E+02  0.35970513150E+02  0.47787271725E+02  0.20000003103E+02 0.  0.
         12    1    1    2    0    0 -0.21438465804E+02  0.11407786046E+02 -0.35970513150E+02  0.43400728275E+02  0.00000000000E+00 0. -1.
         11    1    3    3    0    0  0.24604923444E+01 -0.75351880338E+01  0.11787417415E+02  0.14204798163E+02  0.51100000000E-03 0. -1.
        -11    1    3    3    0    0  0.85101667608E-01 -0.16675149225E+01  0.92509313549E+01  0.94004031565E+01  0.51100000000E-03 0.  1.
        -12    1    3    3    0    0  0.18892871793E+02 -0.22050830893E+01  0.14932164380E+02  0.24182070405E+02  0.00000000000E+00 0.  1.
</event>
<event>
 7    1  0.2328615E-009  0.4778728E+02  0.7816164E-02  0.1312668E+00
        -11   -1    0    0    0    0  0.00000000000E+00  0.00000000000E+00  0.45593999997E+02  0.45594000000E+02  0.51100000000E-03 0.  1.
         11   -1    0    0    0    0 -0.00000000000E+00 -0.00000000000E+00 -0.45593999997E+02  0.45594000000E+02  0.51100000000E-03 0. -1.
    9900012    2    1    2    0    0  0.23264923413E+02  0.15472165671E+02  0.33211109495E+02  0.47787281505E+02  0.20000047693E+02 0.  0.
         12    1    1    2    0    0 -0.23264923413E+02 -0.15472165671E+02 -0.33211109495E+02  0.43400718495E+02  0.00000000000E+00 0. -1.
         11    1    3    3    0    0  0.99817971252E+01  0.59023476847E+01  0.11554338421E+02  0.16369994461E+02  0.51100000000E-03 0. -1.
        -11    1    3    3    0    0  0.13492635236E+02  0.91433973612E+01  0.24008366558E+02  0.29018176820E+02  0.51100000000E-03 0.  1.
         12    1    3    3    0    0 -0.20950894775E+00  0.42642062475E+00 -0.23515954836E+01  0.23991102240E+01  0.00000000000E+00 0. -1.
</event>
<event>
 7    1  0.2328615E-009  0.4778727E+02  0.7816164E-02  0.1312668E+00
        -11   -1    0    0    0    0  0.00000000000E+00  0.00000000000E+00  0.45593999997E+02  0.45594000000E+02  0.51100000000E-03 0.  1.
         11   -1    0    0    0    0 -0.00000000000E+00 -0.00000000000E+00 -0.45593999997E+02  0.45594000000E+02  0.51100000000E-03 0. -1.
    9900012    2    1    2    0    0 -0.66387521253E+00 -0.28900719431E+02  0.32371763413E+02  0.47787269817E+02  0.19999994406E+02 0.  0.
         12    1    1    2    0    0  0.66387521253E+00  0.28900719431E+02 -0.32371763413E+02  0.43400730183E+02  0.00000000000E+00 0. -1.
         11    1    3    3    0    0  0.50335281880E+01 -0.10534792961E+02  0.16822001762E+02  0.20476767623E+02  0.51100000000E-03 0. -1.
        -11    1    3    3    0    0  0.28207166003E+01 -0.10324733919E+02  0.66715620377E+01  0.12612149417E+02  0.51100000000E-03 0.  1.
         12    1    3    3    0    0 -0.85181200009E+01 -0.80411925507E+01  0.88781996135E+01  0.14698352777E+02  0.00000000000E+00 0. -1.
</event>
<event>
 7    1  0.2328615E-009  0.4778726E+02  0.7816164E-02  0.1312668E+00
        -11   -1    0    0    0    0  0.00000000000E+00  0.00000000000E+00  0.45593999997E+02  0.45594000000E+02  0.51100000000E-03 0.  1.
         11   -1    0    0    0    0 -0.00000000000E+00 -0.00000000000E+00 -0.45593999997E+02  0.45594000000E+02  0.51100000000E-03 0. -1.
    9900012    2    1    2    0    0  0.36009883322E+02 -0.46451340533E+01  0.23776783832E+02  0.47787257879E+02  0.19999939974E+02 0.  0.
         12    1    1    2    0    0 -0.36009883322E+02  0.46451340533E+01 -0.23776783832E+02  0.43400742121E+02  0.00000000000E+00 0. -1.
         11    1    3    3    0    0  0.24009344330E+01  0.15492076603E+01  0.78202620118E+01  0.83259250970E+01  0.51100000000E-03 0. -1.
        -11    1    3    3    0    0  0.21550309075E+02  0.17942035374E+01  0.93686161437E+01  0.23567052345E+02  0.51100000000E-03 0.  1.
        -12    1    3    3    0    0  0.12058639814E+02 -0.79885452509E+01  0.65879056769E+01  0.15894280437E+02  0.00000000000E+00 0.  1.
</event>
<event>
 7    1  0.2328615E-009  0.4778727E+02  0.7816164E-02  0.1312668E+00
        -11   -1    0    0    0    0  0.00000000000E+00  0.00000000000E+00  0.45593999997E+02  0.45594000000E+02  0.51100000000E-03 0.  1.
         11   -1    0    0    0    0 -0.00000000000E+00 -0.00000000000E+00 -0.45593999997E+02  0.45594000000E+02  0.51100000000E-03 0. -1.
    9900012    2    1    2    0    0 -0.38518240224E+01 -0.39399129437E+02  0.17790324104E+02  0.47787267513E+02  0.19999983897E+02 0.  0.
         12    1    1    2    0    0  0.38518240224E+01  0.39399129437E+02 -0.17790324104E+02  0.43400732487E+02  0.00000000000E+00 0. -1.
         11    1    3    3    0    0 -0.20011589939E+01 -0.41917916240E+01  0.42620415563E+01  0.63040267152E+01  0.51100000000E-03 0. -1.
        -11    1    3    3    0    0 -0.27975781786E+01 -0.10612068607E+02  0.12797670731E+02  0.16858909223E+02  0.51100000000E-03 0.  1.
         12    1    3    3    0    0  0.94691315004E+00 -0.24595269207E+02  0.73061181644E+00  0.24624331575E+02  0.00000000000E+00 0. -1.
</event>
<event>
 7    1  0.2328615E-009  0.4778727E+02  0.7816164E-02  0.1312668E+00
        -11   -1    0    0    0    0  0.00000000000E+00  0.00000000000E+00  0.45593999997E+02  0.45594000000E+02  0.51100000000E-03 0.  1.
         11   -1    0    0    0    0 -0.00000000000E+00 -0.00000000000E+00 -0.45593999997E+02  0.45594000000E+02  0.51100000000E-03 0. -1.
    9900012    2    1    2    0    0  0.32912625217E+02 -0.22437379120E+02  0.17232124362E+02  0.47787274310E+02  0.20000014887E+02 0.  0.
         12    1    1    2    0    0 -0.32912625217E+02  0.22437379120E+02 -0.17232124362E+02  0.43400725690E+02  0.00000000000E+00 0. -1.
         11    1    3    3    0    0  0.94119216758E+01 -0.17088379680E+02  0.42947942343E+01  0.19976041837E+02  0.51100000000E-03 0. -1.
        -11    1    3    3    0    0  0.72000170939E+01 -0.36473736771E+01  0.57797701476E+01  0.99272012226E+01  0.51100000000E-03 0.  1.
         12    1    3    3    0    0  0.16300686447E+02 -0.17016257639E+01  0.71575599798E+01  0.17884031250E+02  0.00000000000E+00 0. -1.
</event>
<event>
 7    1  0.2328615E-009  0.4778726E+02  0.7816164E-02  0.1312668E+00
        -11   -1    0    0    0    0  0.00000000000E+00  0.00000000000E+00  0.45593999997E+02  0.45594000000E+02  0.51100000000E-03 0.  1.
         11   -1    0    0    0    0 -0.00000000000E+00 -0.00000000000E+00 -0.45593999997E+02  0.45594000000E+02  0.51100000000E-03 0. -1.
    9900012    2    1    2    0    0 -0.26732246442E+01  0.37991210770E+02  0.20812150719E+02  0.47787264484E+02  0.19999970088E+02 0.  0.
         12    1    1    2    0    0  0.26732246442E+01 -0.37991210770E+02 -0.20812150719E+02  0.43400735516E+02  0.00000000000E+00 0. -1.
         11    1    3    3    0    0 -0.36857082130E+01  0.72117277494E+01  0.25806411297E+01  0.85001865312E+01  0.51100000000E-03 0.  1.
        -11    1    3    3    0    0 -0.59113359742E+01  0.72968276898E+01  0.12083367252E+01  0.94682450981E+01  0.51100000000E-03 0. -1.
         12    1    3    3    0    0  0.69238195430E+01  0.23482655331E+02  0.17023172864E+02  0.29818832855E+02  0.00000000000E+00 0. -1.
</event>
<event>
 7    1  0.2328615E-009  0.4778727E+02  0.7816164E-02  0.1312668E+00
        -11   -1    0    0    0    0  0.00000000000E+00  0.00000000000E+00  0.45593999997E+02  0.45594000000E+02  0.51100000000E-03 0.  1.
         11   -1    0    0    0    0 -0.00000000000E+00 -0.00000000000E+00 -0.45593999997E+02  0.45594000000E+02  0.51100000000E-03 0. -1.
    9900012    2    1    2    0    0  0.33879385364E+02  0.17406574159E+02  0.20804364657E+02  0.47787272294E+02  0.20000005697E+02 0.  0.
         12    1    1    2    0    0 -0.33879385364E+02 -0.17406574159E+02 -0.20804364657E+02  0.43400727706E+02  0.00000000000E+00 0. -1.
         11    1    3    3    0    0 -0.11199600757E+01 -0.13428142439E+01  0.98215876758E+00  0.20055165844E+01  0.51100000000E-03 0. -1.
        -11    1    3    3    0    0  0.25389277908E+01  0.22676274469E+00  0.49312033446E+01  0.55510667764E+01  0.51100000000E-03 0.  1.
        -12    1    3    3    0    0  0.32460417649E+02  0.18522625658E+02  0.14891002545E+02  0.40230688933E+02  0.00000000000E+00 0.  1.
</event>
<event>
 7    1  0.2328615E-009  0.4778727E+02  0.7816164E-02  0.1312668E+00
        -11   -1    0    0    0    0  0.00000000000E+00  0.00000000000E+00  0.45593999997E+02  0.45594000000E+02  0.51100000000E-03 0.  1.
         11   -1    0    0    0    0 -0.00000000000E+00 -0.00000000000E+00 -0.45593999997E+02  0.45594000000E+02  0.51100000000E-03 0. -1.
    9900012    2    1    2    0    0  0.26340416587E+02  0.15503468752E+02  0.30813118643E+02  0.47787269939E+02  0.19999994959E+02 0.  0.
         12    1    1    2    0    0 -0.26340416587E+02 -0.15503468752E+02 -0.30813118643E+02  0.43400730061E+02  0.00000000000E+00 0. -1.
         11    1    3    3    0    0  0.10814080908E+01 -0.11452919889E+01  0.41760807636E+01  0.44632709983E+01  0.51100000000E-03 0. -1.
        -11    1    3    3    0    0  0.71128404043E+01  0.12096796438E+02  0.17707501796E+02  0.22593817800E+02  0.51100000000E-03 0.  1.
         12    1    3    3    0    0  0.18146168092E+02  0.45519643025E+01  0.89295360839E+01  0.20730181140E+02  0.00000000000E+00 0. -1.
</event>
<event>
 7    1  0.2328615E-009  0.4778726E+02  0.7816164E-02  0.1312668E+00
        -11   -1    0    0    0    0  0.00000000000E+00  0.00000000000E+00  0.45593999997E+02  0.45594000000E+02  0.51100000000E-03 0. -1.
         11   -1    0    0    0    0 -0.00000000000E+00 -0.00000000000E+00 -0.45593999997E+02  0.45594000000E+02  0.51100000000E-03 0.  1.
    9900012    2    1    2    0    0  0.16269903374E+02 -0.97578956427E+01 -0.39034569264E+02  0.47787264052E+02  0.19999968119E+02 0.  0.
         12    1    1    2    0    0 -0.16269903374E+02  0.97578956427E+01  0.39034569264E+02  0.43400735948E+02  0.00000000000E+00 0. -1.
         11    1    3    3    0    0  0.96584659252E+00 -0.60135558128E+01 -0.81445098582E+01  0.10169992834E+02  0.51100000000E-03 0. -1.
        -11    1    3    3    0    0  0.11773897724E+02 -0.90735338469E+01 -0.19064263369E+02  0.24174362911E+02  0.51100000000E-03 0.  1.
        -12    1    3    3    0    0  0.35301590577E+01  0.53291940169E+01 -0.11825796037E+02  0.13442908307E+02  0.00000000000E+00 0.  1.
</event>
<event>
 7    1  0.2328615E-009  0.4778727E+02  0.7816164E-02  0.1312668E+00
        -11   -1    0    0    0    0  0.00000000000E+00  0.00000000000E+00  0.45593999997E+02  0.45594000000E+02  0.51100000000E-03 0.  1.
         11   -1    0    0    0    0 -0.00000000000E+00 -0.00000000000E+00 -0.45593999997E+02  0.45594000000E+02  0.51100000000E-03 0. -1.
    9900012    2    1    2    0    0  0.79678435509E+01  0.25341912260E+02  0.34320899948E+02  0.47787271653E+02  0.20000002774E+02 0.  0.
         12    1    1    2    0    0 -0.79678435509E+01 -0.25341912260E+02 -0.34320899948E+02  0.43400728347E+02  0.00000000000E+00 0. -1.
         11    1    3    3    0    0  0.62105818454E+01  0.13779126185E+02  0.53621315983E+01  0.16037085172E+02  0.51100000000E-03 0. -1.
        -11    1    3    3    0    0  0.11972878535E+01  0.72252801549E+01  0.10642542481E+02  0.12919051135E+02  0.51100000000E-03 0.  1.
         12    1    3    3    0    0  0.55997385204E+00  0.43375059197E+01  0.18316225869E+02  0.18831135345E+02  0.00000000000E+00 0. -1.
</event>
<event>
 7    1  0.2328615E-009  0.4778727E+02  0.7816164E-02  0.1312668E+00
        -11   -1    0    0    0    0  0.00000000000E+00  0.00000000000E+00  0.45593999997E+02  0.45594000000E+02  0.51100000000E-03 0. -1.
         11   -1    0    0    0    0 -0.00000000000E+00 -0.00000000000E+00 -0.45593999997E+02  0.45594000000E+02  0.51100000000E-03 0.  1.
    9900012    2    1    2    0    0  0.29480072220E+02  0.31847320153E+02 -0.54454735994E+00  0.47787274305E+02  0.20000014867E+02 0.  0.
         12    1    1    2    0    0 -0.29480072220E+02 -0.31847320153E+02  0.54454735994E+00  0.43400725695E+02  0.00000000000E+00 0. -1.
         11    1    3    3    0    0  0.27198006688E+01  0.79861631216E+00  0.14376177447E+01  0.31783405628E+01  0.51100000000E-03 0. -1.
        -11    1    3    3    0    0  0.34392744401E+01  0.16413770469E+02  0.15901210906E+01  0.16845443153E+02  0.51100000000E-03 0.  1.
        -12    1    3    3    0    0  0.23320997111E+02  0.14634933371E+02 -0.35722861952E+01  0.27763490589E+02  0.00000000000E+00 0.  1.
</event>
<event>
 7    1  0.2328615E-009  0.4778727E+02  0.7816164E-02  0.1312668E+00
        -11   -1    0    0    0    0  0.00000000000E+00  0.00000000000E+00  0.45593999997E+02  0.45594000000E+02  0.51100000000E-03 0. -1.
         11   -1    0    0    0    0 -0.00000000000E+00 -0.00000000000E+00 -0.45593999997E+02  0.45594000000E+02  0.51100000000E-03 0.  1.
    9900012    2    1    2    0    0  0.74406409946E+01  0.42609153348E+02  0.35665447999E+01  0.47787270407E+02  0.19999997092E+02 0.  0.
         12    1    1    2    0    0 -0.74406409946E+01 -0.42609153348E+02 -0.35665447999E+01  0.43400729593E+02  0.00000000000E+00 0. -1.
         11    1    3    3    0    0 -0.74627122448E+00 -0.13301118658E+01 -0.12043569037E+01  0.19433461165E+01  0.51100000000E-03 0. -1.
        -11    1    3    3    0    0 -0.19880153276E+00  0.27138401717E+00 -0.95359211952E+00  0.10111921310E+01  0.51100000000E-03 0.  1.
        -12    1    3    3    0    0  0.83857137518E+01  0.43667881196E+02  0.57244938231E+01  0.44832732159E+02  0.00000000000E+00 0.  1.
</event>
<event>
 7    1  0.2328615E-009  0.4778727E+02  0.7816164E-02  0.1312668E+00
        -11   -1    0    0    0    0  0.00000000000E+00  0.00000000000E+00  0.45593999997E+02  0.45594000000E+02  0.51100000000E-03 0.  1.
         11   -1    0    0    0    0 -0.00000000000E+00 -0.00000000000E+00 -0.45593999997E+02  0.45594000000E+02  0.51100000000E-03 0. -1.
    9900012    2    1    2    0    0  0.26954210484E+02  0.22524033741E+02 -0.25490423123E+02  0.47787271552E+02  0.20000002314E+02 0.  0.
         12    1    1    2    0    0 -0.26954210484E+02 -0.22524033741E+02  0.25490423123E+02  0.43400728448E+02  0.00000000000E+00 0. -1.
         11    1    3    3    0    0  0.11848040265E+02  0.17530847065E+02 -0.15457166694E+02  0.26203638285E+02  0.51100000000E-03 0. -1.
        -11    1    3    3    0    0  0.51340768595E+01  0.55157576409E+01 -0.15436082141E+00  0.75369858084E+01  0.51100000000E-03 0.  1.
         12    1    3    3    0    0  0.99720933598E+01 -0.52257096402E+00 -0.98788956078E+01  0.14046647458E+02  0.00000000000E+00 0. -1.
</event>
<event>
 7    1  0.2987920E-009  0.4778727E+02  0.7816164E-02  0.1312668E+00
        -11   -1    0    0    0    0  0.00000000000E+00  0.00000000000E+00  0.45593999997E+02  0.45594000000E+02  0.51100000000E-03 0. -1.
         11   -1    0    0    0    0 -0.00000000000E+00 -0.00000000000E+00 -0.45593999997E+02  0.45594000000E+02  0.51100000000E-03 0.  1.
    9900012    2    1    2    0    0 -0.12820428514E+02 -0.25476230925E+02 -0.32714242551E+02  0.47787269648E+02  0.19999993631E+02 0.  0.
         12    1    1    2    0    0  0.12820428514E+02  0.25476230925E+02  0.32714242551E+02  0.43400730352E+02  0.00000000000E+00 0. -1.
         11    1    3    3    0    0  0.76357505563E+00  0.25992382232E+00 -0.25011312280E+01  0.26279773476E+01  0.51100000000E-03 0. -1.
        -11    1    3    3    0    0 -0.80035262757E+01 -0.23096106568E+02 -0.14846676863E+02  0.28599132602E+02  0.51100000000E-03 0.  1.
        -12    1    3    3    0    0 -0.55804772939E+01 -0.26400481796E+01 -0.15366434460E+02  0.16560159698E+02  0.00000000000E+00 0.  1.
</event>
<event>
 7    1  0.2328615E-009  0.4778728E+02  0.7816164E-02  0.1312668E+00
        -11   -1    0    0    0    0  0.00000000000E+00  0.00000000000E+00  0.45593999997E+02  0.45594000000E+02  0.51100000000E-03 0.  1.
         11   -1    0    0    0    0 -0.00000000000E+00 -0.00000000000E+00 -0.45593999997E+02  0.45594000000E+02  0.51100000000E-03 0. -1.
    9900012    2    1    2    0    0  0.27468742990E+02  0.50080673642E+01  0.33226645528E+02  0.47787279347E+02  0.20000037852E+02 0.  0.
         12    1    1    2    0    0 -0.27468742990E+02 -0.50080673642E+01 -0.33226645528E+02  0.43400720653E+02  0.00000000000E+00 0. -1.
         11    1    3    3    0    0  0.89967927754E+01 -0.34232876760E+01  0.22117528240E+02  0.24121489060E+02  0.51100000000E-03 0. -1.
        -11    1    3    3    0    0  0.17457981484E+01 -0.40513325741E+00  0.19492262141E+01  0.26479099732E+01  0.51100000000E-03 0.  1.
        -12    1    3    3    0    0  0.16726152067E+02  0.88364882976E+01  0.91598910741E+01  0.21017880314E+02  0.00000000000E+00 0.  1.
</event>
<event>
 7    1  0.2328615E-009  0.4778727E+02  0.7816164E-02  0.1312668E+00
        -11   -1    0    0    0    0  0.00000000000E+00  0.00000000000E+00  0.45593999997E+02  0.45594000000E+02  0.51100000000E-03 0.  1.
         11   -1    0    0    0    0 -0.00000000000E+00 -0.00000000000E+00 -0.45593999997E+02  0.45594000000E+02  0.51100000000E-03 0. -1.
    9900012    2    1    2    0    0 -0.36021132928E+02  0.20466617044E+02  0.12931318389E+02  0.47787269293E+02  0.19999992013E+02 0.  0.
         12    1    1    2    0    0  0.36021132928E+02 -0.20466617044E+02 -0.12931318389E+02  0.43400730707E+02  0.00000000000E+00 0. -1.
         11    1    3    3    0    0  0.40185016215E+00  0.30175765395E+01  0.21949075338E+01  0.37529816237E+01  0.51100000000E-03 0. -1.
        -11    1    3    3    0    0 -0.13707800216E+02  0.27702770713E+01  0.96044322016E+01  0.16965357055E+02  0.51100000000E-03 0.  1.
        -12    1    3    3    0    0 -0.22715182874E+02  0.14678763434E+02  0.11319786533E+01  0.27068930614E+02  0.00000000000E+00 0.  1.
</event>
<event>
 7    1  0.2328615E-009  0.4778727E+02  0.7816164E-02  0.1312668E+00
        -11   -1    0    0    0    0  0.00000000000E+00  0.00000000000E+00  0.45593999997E+02  0.45594000000E+02  0.51100000000E-03 0. -1.
         11   -1    0    0    0    0 -0.00000000000E+00 -0.00000000000E+00 -0.45593999997E+02  0.45594000000E+02  0.51100000000E-03 0.  1.
    9900012    2    1    2    0    0 -0.31633882288E+02 -0.26141735469E+02  0.14125525356E+02  0.47787270645E+02  0.19999998181E+02 0.  0.
         12    1    1    2    0    0  0.31633882288E+02  0.26141735469E+02 -0.14125525356E+02  0.43400729355E+02  0.00000000000E+00 0. -1.
         11    1    3    3    0    0 -0.18905434322E+02 -0.13055554899E+02  0.52034142460E+01  0.23557132268E+02  0.51100000000E-03 0. -1.
        -11    1    3    3    0    0 -0.11565382964E+02 -0.69507959863E+01  0.11247689836E+02  0.17566507190E+02  0.51100000000E-03 0.  1.
         12    1    3    3    0    0 -0.11630650020E+01 -0.61353845841E+01 -0.23255787263E+01  0.66636311877E+01  0.00000000000E+00 0. -1.
</event>
<event>
 7    1  0.2328615E-009  0.4778727E+02  0.7816164E-02  0.1312668E+00
        -11   -1    0    0    0    0  0.00000000000E+00  0.00000000000E+00  0.45593999997E+02  0.45594000000E+02  0.51100000000E-03 0.  1.
         11   -1    0    0    0    0 -0.00000000000E+00 -0.00000000000E+00 -0.45593999997E+02  0.45594000000E+02  0.51100000000E-03 0. -1.
    9900012    2    1    2    0    0 -0.17950005391E+02  0.39370935812E+02  0.33689352183E+01  0.47787274145E+02  0.20000014137E+02 0.  0.
         12    1    1    2    0    0  0.17950005391E+02 -0.39370935812E+02 -0.33689352183E+01  0.43400725855E+02  0.00000000000E+00 0. -1.
         11    1    3    3    0    0 -0.75675903145E+01  0.37417749894E+01  0.42961581180E+01  0.94723955827E+01  0.51100000000E-03 0. -1.
        -11    1    3    3    0    0 -0.41902360086E+01  0.32432289096E+01  0.41514867694E+00  0.53149750943E+01  0.51100000000E-03 0.  1.
        -12    1    3    3    0    0 -0.61921790679E+01  0.32385931913E+02 -0.13423715766E+01  0.32999903468E+02  0.00000000000E+00 0.  1.
</event>
<event>
 7    1  0.2558649E-009  0.4778730E+02  0.7816164E-02  0.1312668E+00
        -11   -1    0    0    0    0  0.00000000000E+00  0.00000000000E+00  0.45593999997E+02  0.45594000000E+02  0.51100000000E-03 0. -1.
         11   -1    0    0    0    0 -0.00000000000E+00 -0.00000000000E+00 -0.45593999997E+02  0.45594000000E+02  0.51100000000E-03 0.  1.
    9900012    2    1    2    0    0  0.30190093847E+02  0.26151097547E+02  0.16979364146E+02  0.47787303276E+02  0.20000146954E+02 0.  0.
         12    1    1    2    0    0 -0.30190093847E+02 -0.26151097547E+02 -0.16979364146E+02  0.43400696724E+02  0.00000000000E+00 0. -1.
         11    1    3    3    0    0 -0.76452269162E+00  0.57514678825E+01  0.37737086116E+01  0.69213260793E+01  0.51100000000E-03 0.  1.
        -11    1    3    3    0    0  0.97897014544E+01  0.78624878768E+01  0.10013809811E+02  0.16060303776E+02  0.51100000000E-03 0. -1.
        -12    1    3    3    0    0  0.21164915084E+02  0.12537141788E+02  0.31918457227E+01  0.24805673420E+02  0.00000000000E+00 0.  1.
</event>
<event>
 7    1  0.2328615E-009  0.4778721E+02  0.7816164E-02  0.1312668E+00
        -11   -1    0    0    0    0  0.00000000000E+00  0.00000000000E+00  0.45593999997E+02  0.45594000000E+02  0.51100000000E-03 0.  1.
         11   -1    0    0    0    0 -0.00000000000E+00 -0.00000000000E+00 -0.45593999997E+02  0.45594000000E+02  0.51100000000E-03 0. -1.
    9900012    2    1    2    0    0  0.59009997007E+01  0.11538576871E+02  0.41420625039E+02  0.47787208161E+02  0.19999713286E+02 0.  0.
         12    1    1    2    0    0 -0.59009997007E+01 -0.11538576871E+02 -0.41420625039E+02  0.43400791839E+02  0.00000000000E+00 0. -1.
         11    1    3    3    0    0  0.27457605922E+01  0.18789704751E+01  0.25925974341E+02  0.26138589806E+02  0.51100000000E-03 0. -1.
        -11    1    3    3    0    0  0.44616808264E+01  0.26272347896E+01  0.13131873045E+02  0.14115773035E+02  0.51100000000E-03 0.  1.
        -12    1    3    3    0    0 -0.13064417178E+01  0.70323716064E+01  0.23627776523E+01  0.75328453194E+01  0.00000000000E+00 0.  1.
</event>
<event>
 7    1  0.2328615E-009  0.4778727E+02  0.7816164E-02  0.1312668E+00
        -11   -1    0    0    0    0  0.00000000000E+00  0.00000000000E+00  0.45593999997E+02  0.45594000000E+02  0.51100000000E-03 0.  1.
         11   -1    0    0    0    0 -0.00000000000E+00 -0.00000000000E+00 -0.45593999997E+02  0.45594000000E+02  0.51100000000E-03 0. -1.
    9900012    2    1    2    0    0  0.26417876266E+02  0.25083863697E+02  0.23590646265E+02  0.47787274251E+02  0.20000014620E+02 0.  0.
         12    1    1    2    0    0 -0.26417876266E+02 -0.25083863697E+02 -0.23590646265E+02  0.43400725749E+02  0.00000000000E+00 0. -1.
         11    1    3    3    0    0  0.10374272812E+02  0.39866394223E+00  0.93739301486E+01  0.13987674432E+02  0.51100000000E-03 0. -1.
        -11    1    3    3    0    0 -0.83433558416E+00  0.28286461446E+01  0.22211672520E+01  0.36920101707E+01  0.51100000000E-03 0.  1.
        -12    1    3    3    0    0  0.16877939038E+02  0.21856553611E+02  0.11995548864E+02  0.30107589648E+02  0.00000000000E+00 0.  1.
</event>
<event>
 7    1  0.2328615E-009  0.4778726E+02  0.7816164E-02  0.1312668E+00
        -11   -1    0    0    0    0  0.00000000000E+00  0.00000000000E+00  0.45593999997E+02  0.45594000000E+02  0.51100000000E-03 0. -1.
         11   -1    0    0    0    0 -0.00000000000E+00 -0.00000000000E+00 -0.45593999997E+02  0.45594000000E+02  0.51100000000E-03 0.  1.
    9900012    2    1    2    0    0 -0.38468328942E+02  0.12266173520E+02 -0.15917059702E+02  0.47787261136E+02  0.19999954825E+02 0.  0.
         12    1    1    2    0    0  0.38468328942E+02 -0.12266173520E+02  0.15917059702E+02  0.43400738864E+02  0.00000000000E+00 0. -1.
         11    1    3    3    0    0 -0.60712206093E+01  0.40431715495E+01  0.15928669717E+01  0.74662026034E+01  0.51100000000E-03 0. -1.
        -11    1    3    3    0    0 -0.11111997387E+02  0.88444003038E+01 -0.11272967561E+02  0.18132283379E+02  0.51100000000E-03 0.  1.
        -12    1    3    3    0    0 -0.21285110945E+02 -0.62139833363E+00 -0.62369591124E+01  0.22188775153E+02  0.00000000000E+00 0.  1.
</event>
<event>
 7    1  0.2328615E-009  0.4778728E+02  0.7816164E-02  0.1312668E+00
        -11   -1    0    0    0    0  0.00000000000E+00  0.00000000000E+00  0.45593999997E+02  0.45594000000E+02  0.51100000000E-03 0.  1.
         11   -1    0    0    0    0 -0.00000000000E+00 -0.00000000000E+00 -0.45593999997E+02  0.45594000000E+02  0.51100000000E-03 0. -1.
    9900012    2    1    2    0    0  0.30980459802E+01 -0.28402000537E+02  0.32670342234E+02  0.47787276676E+02  0.20000025676E+02 0.  0.
         12    1    1    2    0    0 -0.30980459802E+01  0.28402000537E+02 -0.32670342234E+02  0.43400723324E+02  0.00000000000E+00 0. -1.
         11    1    3    3    0    0  0.11616538829E+01 -0.80360942231E+01 -0.40855819232E+00  0.81298936133E+01  0.51100000000E-03 0. -1.
        -11    1    3    3    0    0  0.26725004050E+00  0.11151301408E-01 -0.36896523883E+00  0.45572200326E+00  0.51100000000E-03 0.  1.
        -12    1    3    3    0    0  0.16691420567E+01 -0.20377057615E+02  0.33447865665E+02  0.39201661059E+02  0.00000000000E+00 0.  1.
</event>
<event>
 7    1  0.2328615E-009  0.4778727E+02  0.7816164E-02  0.1312668E+00
        -11   -1    0    0    0    0  0.00000000000E+00  0.00000000000E+00  0.45593999997E+02  0.45594000000E+02  0.51100000000E-03 0.  1.
         11   -1    0    0    0    0 -0.00000000000E+00 -0.00000000000E+00 -0.45593999997E+02  0.45594000000E+02  0.51100000000E-03 0. -1.
    9900012    2    1    2    0    0 -0.11174693506E+02  0.44522426626E+01  0.41700447421E+02  0.47787267808E+02  0.19999985243E+02 0.  0.
         12    1    1    2    0    0  0.11174693506E+02 -0.44522426626E+01 -0.41700447421E+02  0.43400732192E+02  0.00000000000E+00 0. -1.
         11    1    3    3    0    0 -0.21478347744E+00  0.35990109961E+01  0.21708118815E+02  0.22005486472E+02  0.51100000000E-03 0. -1.
        -11    1    3    3    0    0 -0.94243903177E+01 -0.29392985260E+00  0.21412281302E+02  0.23396395415E+02  0.51100000000E-03 0.  1.
        -12    1    3    3    0    0 -0.15355197110E+01  0.11471615192E+01 -0.14199526957E+01  0.23853859209E+01  0.00000000000E+00 0.  1.
</event>
<event>
 7    1  0.2328615E-009  0.4778727E+02  0.7816164E-02  0.1312668E+00
        -11   -1    0    0    0    0  0.00000000000E+00  0.00000000000E+00  0.45593999997E+02  0.45594000000E+02  0.51100000000E-03 0. -1.
         11   -1    0    0    0    0 -0.00000000000E+00 -0.00000000000E+00 -0.45593999997E+02  0.45594000000E+02  0.51100000000E-03 0.  1.
    9900012    2    1    2    0    0 -0.24785677305E+02 -0.14895875785E+02 -0.32363658181E+02  0.47787270908E+02  0.19999999376E+02 0.  0.
         12    1    1    2    0    0  0.24785677305E+02  0.14895875785E+02  0.32363658181E+02  0.43400729092E+02  0.00000000000E+00 0. -1.
         11    1    3    3    0    0 -0.14458972862E+02 -0.21798243362E+01 -0.86170142173E+01  0.16972520869E+02  0.51100000000E-03 0. -1.
        -11    1    3    3    0    0 -0.10438577681E+02 -0.94724791419E+01 -0.11639987074E+02  0.18280619914E+02  0.51100000000E-03 0.  1.
         12    1    3    3    0    0  0.11187323828E+00 -0.32435723066E+01 -0.12106656890E+02  0.12534130124E+02  0.00000000000E+00 0. -1.
</event>
<event>
 7    1  0.2328615E-009  0.4778728E+02  0.7816164E-02  0.1312668E+00
        -11   -1    0    0    0    0  0.00000000000E+00  0.00000000000E+00  0.45593999997E+02  0.45594000000E+02  0.51100000000E-03 0.  1.
         11   -1    0    0    0    0 -0.00000000000E+00 -0.00000000000E+00 -0.45593999997E+02  0.45594000000E+02  0.51100000000E-03 0. -1.
    9900012    2    1    2    0    0  0.26750695734E+01 -0.36085347812E+01  0.43167637990E+02  0.47787280074E+02  0.20000041170E+02 0.  0.
         12    1    1    2    0    0 -0.26750695734E+01  0.36085347812E+01 -0.43167637990E+02  0.43400719926E+02  0.00000000000E+00 0. -1.
         11    1    3    3    0    0 -0.22297895865E+01 -0.29985987845E+01  0.12885717353E+01  0.39527172488E+01  0.51100000000E-03 0. -1.
        -11    1    3    3    0    0  0.59426245067E+00 -0.56813131300E+01  0.25942283034E+02  0.26563744390E+02  0.51100000000E-03 0.  1.
        -12    1    3    3    0    0  0.43105967092E+01  0.50713771333E+01  0.15936783220E+02  0.17270818435E+02  0.00000000000E+00 0.  1.
</event>
<event>
 7    1  0.2328615E-009  0.4778727E+02  0.7816164E-02  0.1312668E+00
        -11   -1    0    0    0    0  0.00000000000E+00  0.00000000000E+00  0.45593999997E+02  0.45594000000E+02  0.51100000000E-03 0. -1.
         11   -1    0    0    0    0 -0.00000000000E+00 -0.00000000000E+00 -0.45593999997E+02  0.45594000000E+02  0.51100000000E-03 0.  1.
    9900012    2    1    2    0    0 -0.71863669824E+00  0.33069894480E+02 -0.28097844107E+02  0.47787271860E+02  0.20000003719E+02 0.  0.
         12    1    1    2    0    0  0.71863669824E+00 -0.33069894480E+02  0.28097844107E+02  0.43400728140E+02  0.00000000000E+00 0. -1.
         11    1    3    3    0    0 -0.71979247912E+00  0.15620614680E+02 -0.23128659333E+02  0.27918749739E+02  0.51100000000E-03 0. -1.
        -11    1    3    3    0    0 -0.35705914913E+01  0.70980022485E+01 -0.39438713468E+01  0.88704498747E+01  0.51100000000E-03 0.  1.
        -12    1    3    3    0    0  0.35717472722E+01  0.10351277551E+02 -0.10253134275E+01  0.10998072246E+02  0.00000000000E+00 0.  1.
</event>
<event>
 7    1  0.2328615E-009  0.4778726E+02  0.7816164E-02  0.1312668E+00
        -11   -1    0    0    0    0  0.00000000000E+00  0.00000000000E+00  0.45593999997E+02  0.45594000000E+02  0.51100000000E-03 0. -1.
         11   -1    0    0    0    0 -0.00000000000E+00 -0.00000000000E+00 -0.45593999997E+02  0.45594000000E+02  0.51100000000E-03 0.  1.
    9900012    2    1    2    0    0 -0.14380416105E+02 -0.36081956214E+02 -0.19362851492E+02  0.47787263261E+02  0.19999964512E+02 0.  0.
         12    1    1    2    0    0  0.14380416105E+02  0.36081956214E+02  0.19362851492E+02  0.43400736739E+02  0.00000000000E+00 0. -1.
         11    1    3    3    0    0  0.10625786423E+01  0.56200366420E+00  0.21339223635E+01  0.24491930108E+01  0.51100000000E-03 0. -1.
        -11    1    3    3    0    0 -0.37880134580E+01 -0.61036551067E+01 -0.47214626675E+01  0.85962702146E+01  0.51100000000E-03 0.  1.
        -12    1    3    3    0    0 -0.11654981289E+02 -0.30540304772E+02 -0.16775311188E+02  0.36741800036E+02  0.00000000000E+00 0.  1.
</event>
<event>
 7    1  0.2328615E-009  0.4778726E+02  0.7816164E-02  0.1312668E+00
        -11   -1    0    0    0    0  0.00000000000E+00  0.00000000000E+00  0.45593999997E+02  0.45594000000E+02  0.51100000000E-03 0.  1.
         11   -1    0    0    0    0 -0.00000000000E+00 -0.00000000000E+00 -0.45593999997E+02  0.45594000000E+02  0.51100000000E-03 0. -1.
    9900012    2    1    2    0    0 -0.10964345871E+02 -0.38180303089E+02  0.17483463183E+02  0.47787263725E+02  0.19999966627E+02 0.  0.
         12    1    1    2    0    0  0.10964345871E+02  0.38180303089E+02 -0.17483463183E+02  0.43400736275E+02  0.00000000000E+00 0. -1.
         11    1    3    3    0    0 -0.37659450403E+01 -0.50839507762E+01  0.89550224125E+01  0.10964548518E+02  0.51100000000E-03 0. -1.
        -11    1    3    3    0    0  0.10746357040E+01 -0.90143254147E+01  0.67207309408E+01  0.11295181682E+02  0.51100000000E-03 0.  1.
         12    1    3    3    0    0 -0.82730365348E+01 -0.24082026898E+02  0.18077098296E+01  0.25527533525E+02  0.00000000000E+00 0. -1.
</event>
<event>
 7    1  0.2328615E-009  0.4778727E+02  0.7816164E-02  0.1312668E+00
        -11   -1    0    0    0    0  0.00000000000E+00  0.00000000000E+00  0.45593999997E+02  0.45594000000E+02  0.51100000000E-03 0.  1.
         11   -1    0    0    0    0 -0.00000000000E+00 -0.00000000000E+00 -0.45593999997E+02  0.45594000000E+02  0.51100000000E-03 0. -1.
    9900012    2    1    2    0    0 -0.10083051719E+02 -0.35846837826E+02  0.22292596511E+02  0.47787267595E+02  0.19999984273E+02 0.  0.
         12    1    1    2    0    0  0.10083051719E+02  0.35846837826E+02 -0.22292596511E+02  0.43400732405E+02  0.00000000000E+00 0. -1.
         11    1    3    3    0    0 -0.55583525527E+01 -0.24429681763E+02  0.10897616940E+02  0.27321469385E+02  0.51100000000E-03 0. -1.
        -11    1    3    3    0    0 -0.59990950598E+01 -0.13010239726E+02  0.79243330755E+01  0.16372248905E+02  0.51100000000E-03 0.  1.
        -12    1    3    3    0    0  0.14743958936E+01  0.15930836632E+01  0.34706464961E+01  0.40935493047E+01  0.00000000000E+00 0.  1.
</event>
<event>
 7    1  0.2328615E-009  0.4778727E+02  0.7816164E-02  0.1312668E+00
        -11   -1    0    0    0    0  0.00000000000E+00  0.00000000000E+00  0.45593999997E+02  0.45594000000E+02  0.51100000000E-03 0. -1.
         11   -1    0    0    0    0 -0.00000000000E+00 -0.00000000000E+00 -0.45593999997E+02  0.45594000000E+02  0.51100000000E-03 0.  1.
    9900012    2    1    2    0    0  0.12820139387E+01  0.19569762329E+02 -0.38716978626E+02  0.47787267388E+02  0.19999983328E+02 0.  0.
         12    1    1    2    0    0 -0.12820139387E+01 -0.19569762329E+02  0.38716978626E+02  0.43400732612E+02  0.00000000000E+00 0. -1.
         11    1    3    3    0    0 -0.45154337619E+00  0.67070882806E+01 -0.87467968312E+01  0.11031562885E+02  0.51100000000E-03 0. -1.
        -11    1    3    3    0    0 -0.22301945433E+01  0.15834502396E+02 -0.25406735639E+02  0.30020117421E+02  0.51100000000E-03 0.  1.
         12    1    3    3    0    0  0.39637518582E+01 -0.29718283483E+01 -0.45634461554E+01  0.67355870820E+01  0.00000000000E+00 0. -1.
</event>
<event>
 7    1  0.2328615E-009  0.4778727E+02  0.7816164E-02  0.1312668E+00
        -11   -1    0    0    0    0  0.00000000000E+00  0.00000000000E+00  0.45593999997E+02  0.45594000000E+02  0.51100000000E-03 0.  1.
         11   -1    0    0    0    0 -0.00000000000E+00 -0.00000000000E+00 -0.45593999997E+02  0.45594000000E+02  0.51100000000E-03 0. -1.
    9900012    2    1    2    0    0 -0.11680898353E+02  0.73191739274E+01  0.41153489720E+02  0.47787269483E+02  0.19999992879E+02 0.  0.
         12    1    1    2    0    0  0.11680898353E+02 -0.73191739274E+01 -0.41153489720E+02  0.43400730517E+02  0.00000000000E+00 0. -1.
         11    1    3    3    0    0 -0.16324062228E+01  0.23447449295E+01  0.12207853498E+02  0.12537713753E+02  0.51100000000E-03 0. -1.
        -11    1    3    3    0    0 -0.10094013990E+02  0.10172175643E+02  0.17081038159E+02  0.22296280869E+02  0.51100000000E-03 0.  1.
         12    1    3    3    0    0  0.45521859679E-01 -0.51977466449E+01  0.11864598063E+02  0.12953274861E+02  0.00000000000E+00 0. -1.
</event>
<event>
 7    1  0.2328615E-009  0.4778727E+02  0.7816164E-02  0.1312668E+00
        -11   -1    0    0    0    0  0.00000000000E+00  0.00000000000E+00  0.45593999997E+02  0.45594000000E+02  0.51100000000E-03 0. -1.
         11   -1    0    0    0    0 -0.00000000000E+00 -0.00000000000E+00 -0.45593999997E+02  0.45594000000E+02  0.51100000000E-03 0.  1.
    9900012    2    1    2    0    0 -0.30406217159E+02  0.12016449873E+02 -0.28542776867E+02  0.47787271656E+02  0.20000002790E+02 0.  0.
         12    1    1    2    0    0  0.30406217159E+02 -0.12016449873E+02  0.28542776867E+02  0.43400728344E+02  0.00000000000E+00 0. -1.
         11    1    3    3    0    0 -0.70359594085E+01 -0.33024560833E+01 -0.71465636893E+01  0.10558613252E+02  0.51100000000E-03 0. -1.
        -11    1    3    3    0    0  0.11302475582E+01 -0.36826157141E+00 -0.17813264892E+01  0.21415416060E+01  0.51100000000E-03 0.  1.
        -12    1    3    3    0    0 -0.24500505309E+02  0.15687167527E+02 -0.19614886689E+02  0.35087116798E+02  0.00000000000E+00 0.  1.
</event>
<event>
 7    1  0.2328615E-009  0.4778725E+02  0.7816164E-02  0.1312668E+00
        -11   -1    0    0    0    0  0.00000000000E+00  0.00000000000E+00  0.45593999997E+02  0.45594000000E+02  0.51100000000E-03 0.  1.
         11   -1    0    0    0    0 -0.00000000000E+00 -0.00000000000E+00 -0.45593999997E+02  0.45594000000E+02  0.51100000000E-03 0. -1.
    9900012    2    1    2    0    0  0.37654816989E+02  0.11232634003E+02  0.18427360300E+02  0.47787252118E+02  0.19999913706E+02 0.  0.
         12    1    1    2    0    0 -0.37654816989E+02 -0.11232634003E+02 -0.18427360300E+02  0.43400747882E+02  0.00000000000E+00 0. -1.
         11    1    3    3    0    0  0.12381017247E+01  0.43804427116E+00 -0.23430725433E+01  0.26860319932E+01  0.51100000000E-03 0. -1.
        -11    1    3    3    0    0  0.60096513323E+01  0.16228770424E+01 -0.13846995182E+01  0.63770708046E+01  0.51100000000E-03 0.  1.
         12    1    3    3    0    0  0.30407063932E+02  0.91717126895E+01  0.22155132362E+02  0.38724149320E+02  0.00000000000E+00 0. -1.
</event>
<event>
 7    1  0.2328615E-009  0.4778728E+02  0.7816164E-02  0.1312668E+00
        -11   -1    0    0    0    0  0.00000000000E+00  0.00000000000E+00  0.45593999997E+02  0.45594000000E+02  0.51100000000E-03 0. -1.
         11   -1    0    0    0    0 -0.00000000000E+00 -0.00000000000E+00 -0.45593999997E+02  0.45594000000E+02  0.51100000000E-03 0.  1.
    9900012    2    1    2    0    0 -0.32955487862E+02  0.13740418480E+02 -0.24673047998E+02  0.47787279064E+02  0.20000036565E+02 0.  0.
         12    1    1    2    0    0  0.32955487862E+02 -0.13740418480E+02  0.24673047998E+02  0.43400720936E+02  0.00000000000E+00 0. -1.
         11    1    3    3    0    0 -0.22060142497E+02  0.11211015415E+02 -0.22956445955E+02  0.33754039236E+02  0.51100000000E-03 0.  1.
        -11    1    3    3    0    0 -0.55789903146E+01  0.48878181300E+01 -0.31257253534E+01  0.80489787084E+01  0.51100000000E-03 0. -1.
        -12    1    3    3    0    0 -0.53163550504E+01 -0.23584150650E+01  0.14091233104E+01  0.59842611193E+01  0.00000000000E+00 0.  1.
</event>
<event>
 7    1  0.2328615E-009  0.4778727E+02  0.7816164E-02  0.1312668E+00
        -11   -1    0    0    0    0  0.00000000000E+00  0.00000000000E+00  0.45593999997E+02  0.45594000000E+02  0.51100000000E-03 0. -1.
         11   -1    0    0    0    0 -0.00000000000E+00 -0.00000000000E+00 -0.45593999997E+02  0.45594000000E+02  0.51100000000E-03 0.  1.
    9900012    2    1    2    0    0  0.26669043393E+02 -0.32174927658E+02 -0.11711503399E+02  0.47787272389E+02  0.20000006129E+02 0.  0.
         12    1    1    2    0    0 -0.26669043393E+02  0.32174927658E+02  0.11711503399E+02  0.43400727611E+02  0.00000000000E+00 0. -1.
         11    1    3    3    0    0 -0.20544779526E+01 -0.15286887770E+01 -0.35084241051E+01  0.43435940184E+01  0.51100000000E-03 0. -1.
        -11    1    3    3    0    0  0.66469124350E+01 -0.41464187938E+01  0.56905531137E+00  0.78548111334E+01  0.51100000000E-03 0.  1.
        -12    1    3    3    0    0  0.22076608911E+02 -0.26499820088E+02 -0.87721346053E+01  0.35588867237E+02  0.00000000000E+00 0.  1.
</event>
<event>
 7    1  0.2328615E-009  0.4778727E+02  0.7816164E-02  0.1312668E+00
        -11   -1    0    0    0    0  0.00000000000E+00  0.00000000000E+00  0.45593999997E+02  0.45594000000E+02  0.51100000000E-03 0.  1.
         11   -1    0    0    0    0 -0.00000000000E+00 -0.00000000000E+00 -0.45593999997E+02  0.45594000000E+02  0.51100000000E-03 0. -1.
    9900012    2    1    2    0    0 -0.23648471778E+02  0.21028302817E+02  0.29701578911E+02  0.47787268132E+02  0.19999986722E+02 0.  0.
         12    1    1    2    0    0  0.23648471778E+02 -0.21028302817E+02 -0.29701578911E+02  0.43400731868E+02  0.00000000000E+00 0. -1.
         11    1    3    3    0    0  0.40144156921E+00  0.58826775675E+00  0.53052127566E+01  0.53528027183E+01  0.51100000000E-03 0.  1.
        -11    1    3    3    0    0 -0.70097096110E+01 -0.51403674642E+00  0.18905980388E+01  0.72783668369E+01  0.51100000000E-03 0. -1.
        -12    1    3    3    0    0 -0.17040203736E+02  0.20954071807E+02  0.22505768116E+02  0.35156098577E+02  0.00000000000E+00 0.  1.
</event>
<event>
 7    1  0.2328615E-009  0.4778727E+02  0.7816164E-02  0.1312668E+00
        -11   -1    0    0    0    0  0.00000000000E+00  0.00000000000E+00  0.45593999997E+02  0.45594000000E+02  0.51100000000E-03 0.  1.
         11   -1    0    0    0    0 -0.00000000000E+00 -0.00000000000E+00 -0.45593999997E+02  0.45594000000E+02  0.51100000000E-03 0. -1.
    9900012    2    1    2    0    0  0.24475861027E+01  0.43290529306E+02 -0.18875026314E+01  0.47787271071E+02  0.20000000123E+02 0.  0.
         12    1    1    2    0    0 -0.24475861027E+01 -0.43290529306E+02  0.18875026314E+01  0.43400728929E+02  0.00000000000E+00 0. -1.
         11    1    3    3    0    0 -0.33522600105E+00  0.42571034265E+01 -0.24477749993E+01  0.49220837827E+01  0.51100000000E-03 0. -1.
        -11    1    3    3    0    0  0.65632374634E+01  0.21178534189E+02  0.74006515962E+01  0.23374688034E+02  0.51100000000E-03 0.  1.
        -12    1    3    3    0    0 -0.37804253597E+01  0.17854891691E+02 -0.68403792282E+01  0.19490499254E+02  0.00000000000E+00 0.  1.
</event>
<event>
 7    1  0.2328615E-009  0.4778726E+02  0.7816164E-02  0.1312668E+00
        -11   -1    0    0    0    0  0.00000000000E+00  0.00000000000E+00  0.45593999997E+02  0.45594000000E+02  0.51100000000E-03 0.  1.
         11   -1    0    0    0    0 -0.00000000000E+00 -0.00000000000E+00 -0.45593999997E+02  0.45594000000E+02  0.51100000000E-03 0. -1.
    9900012    2    1    2    0    0  0.13670511441E+02 -0.11524376660E+02  0.39546558521E+02  0.47787257710E+02  0.19999939204E+02 0.  0.
         12    1    1    2    0    0 -0.13670511441E+02  0.11524376660E+02 -0.39546558521E+02  0.43400742290E+02  0.00000000000E+00 0. -1.
         11    1    3    3    0    0  0.85807773436E+00 -0.25423678021E+01  0.47223988171E+01  0.54314806718E+01  0.51100000000E-03 0. -1.
        -11    1    3    3    0    0  0.14492094015E+02 -0.38962123981E+01  0.33689859760E+02  0.36880996610E+02  0.51100000000E-03 0.  1.
         12    1    3    3    0    0 -0.16796603085E+01 -0.50857964598E+01  0.11342999434E+01  0.54747804289E+01  0.00000000000E+00 0. -1.
</event>
<event>
 7    1  0.2328615E-009  0.4778727E+02  0.7816164E-02  0.1312668E+00
        -11   -1    0    0    0    0  0.00000000000E+00  0.00000000000E+00  0.45593999997E+02  0.45594000000E+02  0.51100000000E-03 0. -1.
         11   -1    0    0    0    0 -0.00000000000E+00 -0.00000000000E+00 -0.45593999997E+02  0.45594000000E+02  0.51100000000E-03 0.  1.
    9900012    2    1    2    0    0 -0.19256701836E+01  0.21455836399E+00 -0.43357459262E+02  0.47787268271E+02  0.19999987354E+02 0.  0.
         12    1    1    2    0    0  0.19256701836E+01 -0.21455836399E+00  0.43357459262E+02  0.43400731729E+02  0.00000000000E+00 0. -1.
         11    1    3    3    0    0  0.46516556740E+01 -0.49197763954E+01 -0.17589556136E+02  0.18847667909E+02  0.51100000000E-03 0. -1.
        -11    1    3    3    0    0 -0.29974269797E+01 -0.23277549191E+01 -0.34214236269E+01  0.51097114750E+01  0.51100000000E-03 0.  1.
        -12    1    3    3    0    0 -0.35798988779E+01  0.74620896784E+01 -0.22346479500E+02  0.23829888887E+02  0.00000000000E+00 0.  1.
</event>
<event>
 7    1  0.2328615E-009  0.4778727E+02  0.7816164E-02  0.1312668E+00
        -11   -1    0    0    0    0  0.00000000000E+00  0.00000000000E+00  0.45593999997E+02  0.45594000000E+02  0.51100000000E-03 0. -1.
         11   -1    0    0    0    0 -0.00000000000E+00 -0.00000000000E+00 -0.45593999997E+02  0.45594000000E+02  0.51100000000E-03 0.  1.
    9900012    2    1    2    0    0  0.21085400681E+02 -0.34154034825E+02 -0.16508523410E+02  0.47787267726E+02  0.19999984870E+02 0.  0.
         12    1    1    2    0    0 -0.21085400681E+02  0.34154034825E+02  0.16508523410E+02  0.43400732274E+02  0.00000000000E+00 0. -1.
         11    1    3    3    0    0  0.84991438571E+01 -0.28095669267E+01 -0.30494648676E+01  0.94566563255E+01  0.51100000000E-03 0. -1.
        -11    1    3    3    0    0  0.11148635778E+02 -0.12507978368E+02 -0.85558294256E+01  0.18813394696E+02  0.51100000000E-03 0.  1.
        -12    1    3    3    0    0  0.14376210460E+01 -0.18836489531E+02 -0.49032291172E+01  0.19517216705E+02  0.00000000000E+00 0.  1.
</event>
<event>
 7    1  0.2328615E-009  0.4778727E+02  0.7816164E-02  0.1312668E+00
        -11   -1    0    0    0    0  0.00000000000E+00  0.00000000000E+00  0.45593999997E+02  0.45594000000E+02  0.51100000000E-03 0.  1.
         11   -1    0    0    0    0 -0.00000000000E+00 -0.00000000000E+00 -0.45593999997E+02  0.45594000000E+02  0.51100000000E-03 0. -1.
    9900012    2    1    2    0    0  0.14340188169E+02  0.40916934649E+02 -0.19458812101E+01  0.47787274297E+02  0.20000014832E+02 0.  0.
         12    1    1    2    0    0 -0.14340188169E+02 -0.40916934649E+02  0.19458812101E+01  0.43400725703E+02  0.00000000000E+00 0. -1.
         11    1    3    3    0    0  0.15890509986E+02  0.20787963270E+02  0.63074395026E+00  0.26173375073E+02  0.51100000000E-03 0. -1.
        -11    1    3    3    0    0  0.94174244452E+00  0.95067769393E+01  0.20367810744E+01  0.97680174044E+01  0.51100000000E-03 0.  1.
         12    1    3    3    0    0 -0.24920642613E+01  0.10622194440E+02 -0.46134062348E+01  0.11845881820E+02  0.00000000000E+00 0. -1.
</event>
<event>
 7    1  0.2328615E-009  0.4778728E+02  0.7816164E-02  0.1312668E+00
        -11   -1    0    0    0    0  0.00000000000E+00  0.00000000000E+00  0.45593999997E+02  0.45594000000E+02  0.51100000000E-03 0. -1.
         11   -1    0    0    0    0 -0.00000000000E+00 -0.00000000000E+00 -0.45593999997E+02  0.45594000000E+02  0.51100000000E-03 0.  1.
    9900012    2    1    2    0    0  0.18139178522E+02 -0.10844638919E+02 -0.37907607202E+02  0.47787277949E+02  0.20000031481E+02 0.  0.
         12    1    1    2    0    0 -0.18139178522E+02  0.10844638919E+02  0.37907607202E+02  0.43400722051E+02  0.00000000000E+00 0. -1.
         11    1    3    3    0    0  0.89183810119E+01 -0.88700433197E+01 -0.12253616919E+02  0.17560362075E+02  0.51100000000E-03 0. -1.
        -11    1    3    3    0    0  0.20891494190E+01 -0.60094188795E+01 -0.52828124022E+01  0.82695687737E+01  0.51100000000E-03 0.  1.
        -12    1    3    3    0    0  0.71316480913E+01  0.40348232803E+01 -0.20371177881E+02  0.21957347100E+02  0.00000000000E+00 0.  1.
</event>
<event>
 7    1  0.2551021E-009  0.4778727E+02  0.7816164E-02  0.1312668E+00
        -11   -1    0    0    0    0  0.00000000000E+00  0.00000000000E+00  0.45593999997E+02  0.45594000000E+02  0.51100000000E-03 0.  1.
         11   -1    0    0    0    0 -0.00000000000E+00 -0.00000000000E+00 -0.45593999997E+02  0.45594000000E+02  0.51100000000E-03 0. -1.
    9900012    2    1    2    0    0 -0.36586154910E+02 -0.26542795041E+01  0.23195497318E+02  0.47787273893E+02  0.20000012989E+02 0.  0.
         12    1    1    2    0    0  0.36586154910E+02  0.26542795041E+01 -0.23195497318E+02  0.43400726107E+02  0.00000000000E+00 0. -1.
         11    1    3    3    0    0 -0.69804341771E+01 -0.46379549184E+01  0.14228747054E+01  0.85006858438E+01  0.51100000000E-03 0. -1.
        -11    1    3    3    0    0 -0.18215334621E+01  0.42823712517E+01  0.17915660955E+01  0.49866218051E+01  0.51100000000E-03 0.  1.
        -12    1    3    3    0    0 -0.27784187270E+02 -0.22986958373E+01  0.19981056517E+02  0.34299966244E+02  0.00000000000E+00 0.  1.
</event>
<event>
 7    1  0.2328615E-009  0.4778728E+02  0.7816164E-02  0.1312668E+00
        -11   -1    0    0    0    0  0.00000000000E+00  0.00000000000E+00  0.45593999997E+02  0.45594000000E+02  0.51100000000E-03 0.  1.
         11   -1    0    0    0    0 -0.00000000000E+00 -0.00000000000E+00 -0.45593999997E+02  0.45594000000E+02  0.51100000000E-03 0. -1.
    9900012    2    1    2    0    0  0.27686106713E+02  0.29181128141E+02  0.16296135517E+02  0.47787276765E+02  0.20000026083E+02 0.  0.
         12    1    1    2    0    0 -0.27686106713E+02 -0.29181128141E+02 -0.16296135517E+02  0.43400723235E+02  0.00000000000E+00 0. -1.
         11    1    3    3    0    0  0.15029670422E+02  0.12637395436E+02  0.61121306139E+01  0.20565818664E+02  0.51100000000E-03 0. -1.
        -11    1    3    3    0    0  0.10235747001E+02  0.10722352837E+02  0.13542305848E+02  0.20078182562E+02  0.51100000000E-03 0.  1.
         12    1    3    3    0    0  0.24206892904E+01  0.58213798673E+01 -0.33583009449E+01  0.71432755397E+01  0.00000000000E+00 0. -1.
</event>
<event>
 7    1  0.2328615E-009  0.4778727E+02  0.7816164E-02  0.1312668E+00
        -11   -1    0    0    0    0  0.00000000000E+00  0.00000000000E+00  0.45593999997E+02  0.45594000000E+02  0.51100000000E-03 0.  1.
         11   -1    0    0    0    0 -0.00000000000E+00 -0.00000000000E+00 -0.45593999997E+02  0.45594000000E+02  0.51100000000E-03 0. -1.
    9900012    2    1    2    0    0 -0.20229350169E+02  0.25338729352E+02  0.28850399600E+02  0.47787269931E+02  0.19999994925E+02 0.  0.
         12    1    1    2    0    0  0.20229350169E+02 -0.25338729352E+02 -0.28850399600E+02  0.43400730069E+02  0.00000000000E+00 0. -1.
         11    1    3    3    0    0 -0.28010101313E+00  0.26833430765E+01  0.11177444964E+02  0.11498437408E+02  0.51100000000E-03 0. -1.
        -11    1    3    3    0    0 -0.54274236937E+01  0.90268723674E+01  0.15110729842E+01  0.10640709305E+02  0.51100000000E-03 0.  1.
        -12    1    3    3    0    0 -0.14521825462E+02  0.13628513908E+02  0.16161881651E+02  0.25648123218E+02  0.00000000000E+00 0.  1.
</event>
<event>
 7    1  0.2328615E-009  0.4778728E+02  0.7816164E-02  0.1312668E+00
        -11   -1    0    0    0    0  0.00000000000E+00  0.00000000000E+00  0.45593999997E+02  0.45594000000E+02  0.51100000000E-03 0.  1.
         11   -1    0    0    0    0 -0.00000000000E+00 -0.00000000000E+00 -0.45593999997E+02  0.45594000000E+02  0.51100000000E-03 0. -1.
    9900012    2    1    2    0    0 -0.15166997814E+02 -0.15331987528E+02  0.37663177091E+02  0.47787279121E+02  0.20000036823E+02 0.  0.
         12    1    1    2    0    0  0.15166997814E+02  0.15331987528E+02 -0.37663177091E+02  0.43400720879E+02  0.00000000000E+00 0. -1.
         11    1    3    3    0    0 -0.33868034194E+01  0.20227988129E+01  0.19442079822E+02  0.19838261529E+02  0.51100000000E-03 0. -1.
        -11    1    3    3    0    0 -0.45187839968E+01 -0.43244407510E+01  0.59614641446E+01  0.86405585252E+01  0.51100000000E-03 0.  1.
         12    1    3    3    0    0 -0.72614103981E+01 -0.13030345590E+02  0.12259633124E+02  0.19308459066E+02  0.00000000000E+00 0. -1.
</event>
<event>
 7    1  0.2328615E-009  0.4778727E+02  0.7816164E-02  0.1312668E+00
        -11   -1    0    0    0    0  0.00000000000E+00  0.00000000000E+00  0.45593999997E+02  0.45594000000E+02  0.51100000000E-03 0. -1.
         11   -1    0    0    0    0 -0.00000000000E+00 -0.00000000000E+00 -0.45593999997E+02  0.45594000000E+02  0.51100000000E-03 0.  1.
    9900012    2    1    2    0    0 -0.34933037228E+01 -0.94657678029E+01 -0.42211606288E+02  0.47787266868E+02  0.19999980957E+02 0.  0.
         12    1    1    2    0    0  0.34933037228E+01  0.94657678029E+01  0.42211606288E+02  0.43400733132E+02  0.00000000000E+00 0. -1.
         11    1    3    3    0    0 -0.57722990629E+01 -0.10261064210E+02 -0.31375054752E+02  0.33511235968E+02  0.51100000000E-03 0. -1.
        -11    1    3    3    0    0  0.28103283553E+01 -0.37649866503E+01 -0.52600244183E+01  0.70527247985E+01  0.51100000000E-03 0.  1.
        -12    1    3    3    0    0 -0.53133301515E+00  0.45602830570E+01 -0.55765271179E+01  0.72233061010E+01  0.00000000000E+00 0.  1.
</event>
<event>
 7    1  0.2328615E-009  0.4778727E+02  0.7816164E-02  0.1312668E+00
        -11   -1    0    0    0    0  0.00000000000E+00  0.00000000000E+00  0.45593999997E+02  0.45594000000E+02  0.51100000000E-03 0.  1.
         11   -1    0    0    0    0 -0.00000000000E+00 -0.00000000000E+00 -0.45593999997E+02  0.45594000000E+02  0.51100000000E-03 0. -1.
    9900012    2    1    2    0    0 -0.27404953452E+01  0.18385954729E+01  0.43275085405E+02  0.47787265388E+02  0.19999974209E+02 0.  0.
         12    1    1    2    0    0  0.27404953452E+01 -0.18385954729E+01 -0.43275085405E+02  0.43400734612E+02  0.00000000000E+00 0. -1.
         11    1    3    3    0    0 -0.22098577198E+01  0.26567067997E+01  0.11721234205E+02  0.12220020201E+02  0.51100000000E-03 0. -1.
        -11    1    3    3    0    0 -0.78221331919E+01  0.27397635141E+01  0.15276052464E+02  0.17379581437E+02  0.51100000000E-03 0.  1.
         12    1    3    3    0    0  0.72914955665E+01 -0.35578748410E+01  0.16277798736E+02  0.18187663749E+02  0.00000000000E+00 0. -1.
</event>
<event>
 7    1  0.2328615E-009  0.4778727E+02  0.7816164E-02  0.1312668E+00
        -11   -1    0    0    0    0  0.00000000000E+00  0.00000000000E+00  0.45593999997E+02  0.45594000000E+02  0.51100000000E-03 0.  1.
         11   -1    0    0    0    0 -0.00000000000E+00 -0.00000000000E+00 -0.45593999997E+02  0.45594000000E+02  0.51100000000E-03 0. -1.
    9900012    2    1    2    0    0 -0.25306538544E+02 -0.20462177591E+02  0.28714143909E+02  0.47787266535E+02  0.19999979442E+02 0.  0.
         12    1    1    2    0    0  0.25306538544E+02  0.20462177591E+02 -0.28714143909E+02  0.43400733465E+02  0.00000000000E+00 0. -1.
         11    1    3    3    0    0  0.18712703132E+01 -0.27156147173E+01  0.14360056685E+01  0.35969887988E+01  0.51100000000E-03 0. -1.
        -11    1    3    3    0    0 -0.11844386281E+02 -0.14856507022E+02  0.12841265914E+02  0.22932583758E+02  0.51100000000E-03 0.  1.
         12    1    3    3    0    0 -0.15333422576E+02 -0.28900558513E+01  0.14436872326E+02  0.21257693979E+02  0.00000000000E+00 0. -1.
</event>
<event>
 7    1  0.2328615E-009  0.4778727E+02  0.7816164E-02  0.1312668E+00
        -11   -1    0    0    0    0  0.00000000000E+00  0.00000000000E+00  0.45593999997E+02  0.45594000000E+02  0.51100000000E-03 0.  1.
         11   -1    0    0    0    0 -0.00000000000E+00 -0.00000000000E+00 -0.45593999997E+02  0.45594000000E+02  0.51100000000E-03 0. -1.
    9900012    2    1    2    0    0 -0.20253715035E+02  0.48048422096E+01  0.38083120250E+02  0.47787268101E+02  0.19999986580E+02 0.  0.
         12    1    1    2    0    0  0.20253715035E+02 -0.48048422096E+01 -0.38083120250E+02  0.43400731899E+02  0.00000000000E+00 0. -1.
         11    1    3    3    0    0 -0.10394129633E+02 -0.62971389713E+01  0.18307020702E+02  0.21973595457E+02  0.51100000000E-03 0.  1.
        -11    1    3    3    0    0  0.77775721808E+00  0.21123446226E+01  0.10700387415E+01  0.24923661978E+01  0.51100000000E-03 0. -1.
        -12    1    3    3    0    0 -0.10637342620E+02  0.89896365583E+01  0.18706060807E+02  0.23321306446E+02  0.00000000000E+00 0.  1.
</event>
<event>
 7    1  0.2328615E-009  0.4778727E+02  0.7816164E-02  0.1312668E+00
        -11   -1    0    0    0    0  0.00000000000E+00  0.00000000000E+00  0.45593999997E+02  0.45594000000E+02  0.51100000000E-03 0. -1.
         11   -1    0    0    0    0 -0.00000000000E+00 -0.00000000000E+00 -0.45593999997E+02  0.45594000000E+02  0.51100000000E-03 0.  1.
    9900012    2    1    2    0    0 -0.40691407884E+02 -0.48144032734E+01 -0.14305737926E+02  0.47787270835E+02  0.19999999047E+02 0.  0.
         12    1    1    2    0    0  0.40691407884E+02  0.48144032734E+01  0.14305737926E+02  0.43400729165E+02  0.00000000000E+00 0. -1.
         11    1    3    3    0    0 -0.49840354489E-01 -0.18457508670E+01 -0.35505844852E+01  0.40019908510E+01  0.51100000000E-03 0. -1.
        -11    1    3    3    0    0 -0.11599806269E+02 -0.48955055640E+01 -0.70906929569E+01  0.14449892978E+02  0.51100000000E-03 0.  1.
        -12    1    3    3    0    0 -0.29041761260E+02  0.19268531576E+01 -0.36644604836E+01  0.29335387007E+02  0.00000000000E+00 0.  1.
</event>
<event>
 7    1  0.2328615E-009  0.4778727E+02  0.7816164E-02  0.1312668E+00
        -11   -1    0    0    0    0  0.00000000000E+00  0.00000000000E+00  0.45593999997E+02  0.45594000000E+02  0.51100000000E-03 0.  1.
         11   -1    0    0    0    0 -0.00000000000E+00 -0.00000000000E+00 -0.45593999997E+02  0.45594000000E+02  0.51100000000E-03 0. -1.
    9900012    2    1    2    0    0  0.33823638641E+02 -0.17176060605E+02  0.21084773389E+02  0.47787271232E+02  0.20000000853E+02 0.  0.
         12    1    1    2    0    0 -0.33823638641E+02  0.17176060605E+02 -0.21084773389E+02  0.43400728768E+02  0.00000000000E+00 0. -1.
         11    1    3    3    0    0  0.22187465055E+01 -0.35779168037E+01  0.40698660697E+01  0.58556071245E+01  0.51100000000E-03 0. -1.
        -11    1    3    3    0    0  0.24082924550E+01 -0.75443499626E+01  0.67216918436E+01  0.10387407300E+02  0.51100000000E-03 0.  1.
         12    1    3    3    0    0  0.29196599680E+02 -0.60537938386E+01  0.10293215475E+02  0.31544256807E+02  0.00000000000E+00 0. -1.
</event>
<event>
 7    1  0.2328615E-009  0.4778726E+02  0.7816164E-02  0.1312668E+00
        -11   -1    0    0    0    0  0.00000000000E+00  0.00000000000E+00  0.45593999997E+02  0.45594000000E+02  0.51100000000E-03 0.  1.
         11   -1    0    0    0    0 -0.00000000000E+00 -0.00000000000E+00 -0.45593999997E+02  0.45594000000E+02  0.51100000000E-03 0. -1.
    9900012    2    1    2    0    0  0.81690203326E+01  0.31587479575E+02  0.28620311796E+02  0.47787262605E+02  0.19999961522E+02 0.  0.
         12    1    1    2    0    0 -0.81690203326E+01 -0.31587479575E+02 -0.28620311796E+02  0.43400737395E+02  0.00000000000E+00 0. -1.
         11    1    3    3    0    0  0.56207028391E+01  0.75567477024E+01  0.44492732941E+01  0.10415986240E+02  0.51100000000E-03 0. -1.
        -11    1    3    3    0    0  0.40018642807E+01  0.72002999806E+01  0.17248839837E+02  0.19114960464E+02  0.51100000000E-03 0.  1.
        -12    1    3    3    0    0 -0.14535467873E+01  0.16830431892E+02  0.69221986647E+01  0.18256315902E+02  0.00000000000E+00 0.  1.
</event>
<event>
 7    1  0.3027406E-009  0.4778727E+02  0.7816164E-02  0.1312668E+00
        -11   -1    0    0    0    0  0.00000000000E+00  0.00000000000E+00  0.45593999997E+02  0.45594000000E+02  0.51100000000E-03 0. -1.
         11   -1    0    0    0    0 -0.00000000000E+00 -0.00000000000E+00 -0.45593999997E+02  0.45594000000E+02  0.51100000000E-03 0.  1.
    9900012    2    1    2    0    0 -0.22908171055E+02 -0.36421473278E+02 -0.56846597408E+01  0.47787269901E+02  0.19999994784E+02 0.  0.
         12    1    1    2    0    0  0.22908171055E+02  0.36421473278E+02  0.56846597408E+01  0.43400730099E+02  0.00000000000E+00 0. -1.
         11    1    3    3    0    0 -0.79646273335E+00 -0.58540272072E+00  0.27391934722E+01  0.29120835102E+01  0.51100000000E-03 0. -1.
        -11    1    3    3    0    0 -0.33460963969E+01 -0.17347894998E+02 -0.45935654635E+01  0.18255044944E+02  0.51100000000E-03 0.  1.
        -12    1    3    3    0    0 -0.18765611925E+02 -0.18488175559E+02 -0.38302877495E+01  0.26620141447E+02  0.00000000000E+00 0.  1.
</event>
<event>
 7    1  0.2328615E-009  0.4778727E+02  0.7816164E-02  0.1312668E+00
        -11   -1    0    0    0    0  0.00000000000E+00  0.00000000000E+00  0.45593999997E+02  0.45594000000E+02  0.51100000000E-03 0. -1.
         11   -1    0    0    0    0 -0.00000000000E+00 -0.00000000000E+00 -0.45593999997E+02  0.45594000000E+02  0.51100000000E-03 0.  1.
    9900012    2    1    2    0    0 -0.19051595811E+02  0.34105729630E+02 -0.18906599876E+02  0.47787267110E+02  0.19999982062E+02 0.  0.
         12    1    1    2    0    0  0.19051595811E+02 -0.34105729630E+02  0.18906599876E+02  0.43400732890E+02  0.00000000000E+00 0. -1.
         11    1    3    3    0    0 -0.56321348812E+01  0.12073460960E+02 -0.10111647445E+00  0.13322898622E+02  0.51100000000E-03 0. -1.
        -11    1    3    3    0    0 -0.61579767006E+01  0.17034754114E+02 -0.63279192040E+01  0.19187133357E+02  0.51100000000E-03 0.  1.
         12    1    3    3    0    0 -0.72614842289E+01  0.49975145557E+01 -0.12477564198E+02  0.15277235131E+02  0.00000000000E+00 0. -1.
</event>
<event>
 7    1  0.2328615E-009  0.4778727E+02  0.7816164E-02  0.1312668E+00
        -11   -1    0    0    0    0  0.00000000000E+00  0.00000000000E+00  0.45593999997E+02  0.45594000000E+02  0.51100000000E-03 0. -1.
         11   -1    0    0    0    0 -0.00000000000E+00 -0.00000000000E+00 -0.45593999997E+02  0.45594000000E+02  0.51100000000E-03 0.  1.
    9900012    2    1    2    0    0  0.34029440722E+02 -0.26290355672E+02 -0.58683386119E+01  0.47787273794E+02  0.20000012535E+02 0.  0.
         12    1    1    2    0    0 -0.34029440722E+02  0.26290355672E+02  0.58683386119E+01  0.43400726206E+02  0.00000000000E+00 0. -1.
         11    1    3    3    0    0  0.51746044211E+01  0.46267753617E+00  0.78972727776E+00  0.52549282442E+01  0.51100000000E-03 0. -1.
        -11    1    3    3    0    0  0.11429669506E+02 -0.64044775019E+01  0.40022003468E+01  0.13699353450E+02  0.51100000000E-03 0.  1.
        -12    1    3    3    0    0  0.17425166795E+02 -0.20348555706E+02 -0.10660266236E+02  0.28832992099E+02  0.00000000000E+00 0.  1.
</event>
<event>
 7    1  0.2328615E-009  0.4778728E+02  0.7816164E-02  0.1312668E+00
        -11   -1    0    0    0    0  0.00000000000E+00  0.00000000000E+00  0.45593999997E+02  0.45594000000E+02  0.51100000000E-03 0.  1.
         11   -1    0    0    0    0 -0.00000000000E+00 -0.00000000000E+00 -0.45593999997E+02  0.45594000000E+02  0.51100000000E-03 0. -1.
    9900012    2    1    2    0    0 -0.45584949419E+01  0.16514033248E+02  0.39876425891E+02  0.47787279820E+02  0.20000040013E+02 0.  0.
         12    1    1    2    0    0  0.45584949419E+01 -0.16514033248E+02 -0.39876425891E+02  0.43400720180E+02  0.00000000000E+00 0. -1.
         11    1    3    3    0    0 -0.28265286473E+01  0.36766156627E+00 -0.68894586135E-01  0.28511727318E+01  0.51100000000E-03 0. -1.
        -11    1    3    3    0    0 -0.66811066038E+01  0.67412273873E+01  0.23627064750E+02  0.25462119336E+02  0.51100000000E-03 0.  1.
         12    1    3    3    0    0  0.49491403092E+01  0.94051442941E+01  0.16318255728E+02  0.19473987753E+02  0.00000000000E+00 0. -1.
</event>
<event>
 7    1  0.2328615E-009  0.4778726E+02  0.7816164E-02  0.1312668E+00
        -11   -1    0    0    0    0  0.00000000000E+00  0.00000000000E+00  0.45593999997E+02  0.45594000000E+02  0.51100000000E-03 0.  1.
         11   -1    0    0    0    0 -0.00000000000E+00 -0.00000000000E+00 -0.45593999997E+02  0.45594000000E+02  0.51100000000E-03 0. -1.
    9900012    2    1    2    0    0  0.24399503851E+02  0.35890615633E+02 -0.38969310950E+00  0.47787263377E+02  0.19999965042E+02 0.  0.
         12    1    1    2    0    0 -0.24399503851E+02 -0.35890615633E+02  0.38969310950E+00  0.43400736623E+02  0.00000000000E+00 0. -1.
         11    1    3    3    0    0  0.61937095391E+01  0.10318420140E+02 -0.85590441319E+01  0.14767839001E+02  0.51100000000E-03 0. -1.
        -11    1    3    3    0    0  0.71213877983E+01  0.58392265242E+01  0.92664195256E+00  0.92557763664E+01  0.51100000000E-03 0.  1.
         12    1    3    3    0    0  0.11084406513E+02  0.19732968969E+02  0.72427090699E+01  0.23763648010E+02  0.00000000000E+00 0. -1.
</event>
<event>
 7    1  0.2328615E-009  0.4778727E+02  0.7816164E-02  0.1312668E+00
        -11   -1    0    0    0    0  0.00000000000E+00  0.00000000000E+00  0.45593999997E+02  0.45594000000E+02  0.51100000000E-03 0.  1.
         11   -1    0    0    0    0 -0.00000000000E+00 -0.00000000000E+00 -0.45593999997E+02  0.45594000000E+02  0.51100000000E-03 0. -1.
    9900012    2    1    2    0    0 -0.19923351720E+02 -0.20101597580E+02  0.32903024236E+02  0.47787272208E+02  0.20000005305E+02 0.  0.
         12    1    1    2    0    0  0.19923351720E+02  0.20101597580E+02 -0.32903024236E+02  0.43400727792E+02  0.00000000000E+00 0. -1.
         11    1    3    3    0    0 -0.50949375589E+01 -0.24114294607E+00  0.76232386993E+01  0.91722574745E+01  0.51100000000E-03 0. -1.
        -11    1    3    3    0    0 -0.40003510846E+01 -0.70197641176E+01 -0.21733096228E+00  0.80825200324E+01  0.51100000000E-03 0.  1.
        -12    1    3    3    0    0 -0.10828063076E+02 -0.12840690516E+02  0.25497116499E+02  0.30532494701E+02  0.00000000000E+00 0.  1.
</event>
<event>
 7    1  0.2328615E-009  0.4778727E+02  0.7816164E-02  0.1312668E+00
        -11   -1    0    0    0    0  0.00000000000E+00  0.00000000000E+00  0.45593999997E+02  0.45594000000E+02  0.51100000000E-03 0.  1.
         11   -1    0    0    0    0 -0.00000000000E+00 -0.00000000000E+00 -0.45593999997E+02  0.45594000000E+02  0.51100000000E-03 0. -1.
    9900012    2    1    2    0    0 -0.26173353722E+02 -0.69129593769E+01  0.33923288146E+02  0.47787274994E+02  0.20000018009E+02 0.  0.
         12    1    1    2    0    0  0.26173353722E+02  0.69129593769E+01 -0.33923288146E+02  0.43400725006E+02  0.00000000000E+00 0. -1.
         11    1    3    3    0    0 -0.24474091645E+01 -0.42107475466E+01  0.75206823627E+01  0.89599592623E+01  0.51100000000E-03 0. -1.
        -11    1    3    3    0    0 -0.15506056146E+02  0.12942035160E+01  0.25188698683E+02  0.29607149163E+02  0.51100000000E-03 0.  1.
         12    1    3    3    0    0 -0.82198884117E+01 -0.39964153463E+01  0.12139070999E+01  0.92201665694E+01  0.00000000000E+00 0. -1.
</event>
<event>
 7    1  0.2328615E-009  0.4778727E+02  0.7816164E-02  0.1312668E+00
        -11   -1    0    0    0    0  0.00000000000E+00  0.00000000000E+00  0.45593999997E+02  0.45594000000E+02  0.51100000000E-03 0.  1.
         11   -1    0    0    0    0 -0.00000000000E+00 -0.00000000000E+00 -0.45593999997E+02  0.45594000000E+02  0.51100000000E-03 0. -1.
    9900012    2    1    2    0    0 -0.25506077218E+02 -0.21937171999E+02  0.27419409544E+02  0.47787268323E+02  0.19999987591E+02 0.  0.
         12    1    1    2    0    0  0.25506077218E+02  0.21937171999E+02 -0.27419409544E+02  0.43400731677E+02  0.00000000000E+00 0. -1.
         11    1    3    3    0    0 -0.15417926123E+02 -0.62675679067E+01  0.67645064403E+01  0.17965338879E+02  0.51100000000E-03 0. -1.
        -11    1    3    3    0    0 -0.10144167280E+02 -0.12999472923E+02  0.11041702623E+02  0.19844637139E+02  0.51100000000E-03 0.  1.
         12    1    3    3    0    0  0.56016184541E-01 -0.26701311694E+01  0.96132004800E+01  0.99772923052E+01  0.00000000000E+00 0. -1.
</event>
<event>
 7    1  0.2328615E-009  0.4778727E+02  0.7816164E-02  0.1312668E+00
        -11   -1    0    0    0    0  0.00000000000E+00  0.00000000000E+00  0.45593999997E+02  0.45594000000E+02  0.51100000000E-03 0.  1.
         11   -1    0    0    0    0 -0.00000000000E+00 -0.00000000000E+00 -0.45593999997E+02  0.45594000000E+02  0.51100000000E-03 0. -1.
    9900012    2    1    2    0    0  0.51361320453E+01 -0.29415496085E+01  0.42995239699E+02  0.47787271858E+02  0.20000003711E+02 0.  0.
         12    1    1    2    0    0 -0.51361320453E+01  0.29415496085E+01 -0.42995239699E+02  0.43400728142E+02  0.00000000000E+00 0. -1.
         11    1    3    3    0    0  0.18051725985E+01  0.22037202652E+01  0.14593425089E+01  0.32007361555E+01  0.51100000000E-03 0. -1.
        -11    1    3    3    0    0  0.33998858151E+01 -0.82878656446E+01  0.12486233091E+02  0.15367301570E+02  0.51100000000E-03 0.  1.
        -12    1    3    3    0    0 -0.68926368410E-01  0.31425957708E+01  0.29049664099E+02  0.29219234132E+02  0.00000000000E+00 0.  1.
</event>
<event>
 7    1  0.2328615E-009  0.4778724E+02  0.7816164E-02  0.1312668E+00
        -11   -1    0    0    0    0  0.00000000000E+00  0.00000000000E+00  0.45593999997E+02  0.45594000000E+02  0.51100000000E-03 0.  1.
         11   -1    0    0    0    0 -0.00000000000E+00 -0.00000000000E+00 -0.45593999997E+02  0.45594000000E+02  0.51100000000E-03 0. -1.
    9900012    2    1    2    0    0 -0.16597361287E+02 -0.30882769384E+02  0.25581403017E+02  0.47787239328E+02  0.19999855394E+02 0.  0.
         12    1    1    2    0    0  0.16597361287E+02  0.30882769384E+02 -0.25581403017E+02  0.43400760672E+02  0.00000000000E+00 0. -1.
         11    1    3    3    0    0 -0.76562963471E+01 -0.33794064599E+01  0.79136257902E+01  0.11518017850E+02  0.51100000000E-03 0.  1.
        -11    1    3    3    0    0  0.29988695472E+00 -0.95808521043E+01  0.11930636022E+02  0.15304337143E+02  0.51100000000E-03 0. -1.
         12    1    3    3    0    0 -0.92409518945E+01 -0.17922510820E+02  0.57371412050E+01  0.20964884336E+02  0.00000000000E+00 0. -1.
</event>
<event>
 7    1  0.2328615E-009  0.4778727E+02  0.7816164E-02  0.1312668E+00
        -11   -1    0    0    0    0  0.00000000000E+00  0.00000000000E+00  0.45593999997E+02  0.45594000000E+02  0.51100000000E-03 0. -1.
         11   -1    0    0    0    0 -0.00000000000E+00 -0.00000000000E+00 -0.45593999997E+02  0.45594000000E+02  0.51100000000E-03 0.  1.
    9900012    2    1    2    0    0  0.36037387254E+02  0.10118973798E+02 -0.21966713015E+02  0.47787269689E+02  0.19999993820E+02 0.  0.
         12    1    1    2    0    0 -0.36037387254E+02 -0.10118973798E+02  0.21966713015E+02  0.43400730311E+02  0.00000000000E+00 0. -1.
         11    1    3    3    0    0 -0.16816057455E+01  0.43147892174E+00 -0.38575207927E+01  0.42301818956E+01  0.51100000000E-03 0. -1.
        -11    1    3    3    0    0  0.59233894154E+00  0.13954109080E+01 -0.11691998813E+01  0.19144361173E+01  0.51100000000E-03 0.  1.
        -12    1    3    3    0    0  0.37126654058E+02  0.82920839687E+01 -0.16939992341E+02  0.41642651676E+02  0.00000000000E+00 0.  1.
</event>
<event>
 7    1  0.2328615E-009  0.4778727E+02  0.7816164E-02  0.1312668E+00
        -11   -1    0    0    0    0  0.00000000000E+00  0.00000000000E+00  0.45593999997E+02  0.45594000000E+02  0.51100000000E-03 0.  1.
         11   -1    0    0    0    0 -0.00000000000E+00 -0.00000000000E+00 -0.45593999997E+02  0.45594000000E+02  0.51100000000E-03 0. -1.
    9900012    2    1    2    0    0  0.40072521459E+01  0.13823982970E+02  0.40944625636E+02  0.47787274852E+02  0.20000017360E+02 0.  0.
         12    1    1    2    0    0 -0.40072521459E+01 -0.13823982970E+02 -0.40944625636E+02  0.43400725148E+02  0.00000000000E+00 0. -1.
         11    1    3    3    0    0 -0.22166318606E+01  0.42240225342E+00 -0.29911823450E+00  0.22762584318E+01  0.51100000000E-03 0. -1.
        -11    1    3    3    0    0 -0.22108499289E+00  0.18987452438E-01  0.17516585823E+02  0.17517991273E+02  0.51100000000E-03 0.  1.
         12    1    3    3    0    0  0.64449689994E+01  0.13382593264E+02  0.23727158048E+02  0.27993025147E+02  0.00000000000E+00 0. -1.
</event>
<event>
 7    1  0.2328615E-009  0.4778727E+02  0.7816164E-02  0.1312668E+00
        -11   -1    0    0    0    0  0.00000000000E+00  0.00000000000E+00  0.45593999997E+02  0.45594000000E+02  0.51100000000E-03 0.  1.
         11   -1    0    0    0    0 -0.00000000000E+00 -0.00000000000E+00 -0.45593999997E+02  0.45594000000E+02  0.51100000000E-03 0. -1.
    9900012    2    1    2    0    0  0.17354689112E+02  0.34920581784E+02  0.19052323666E+02  0.47787270704E+02  0.19999998450E+02 0.  0.
         12    1    1    2    0    0 -0.17354689112E+02 -0.34920581784E+02 -0.19052323666E+02  0.43400729296E+02  0.00000000000E+00 0. -1.
         11    1    3    3    0    0  0.47109335367E+00  0.60888402960E+00 -0.14990512065E+01  0.16851775842E+01  0.51100000000E-03 0. -1.
        -11    1    3    3    0    0  0.46084279697E+01  0.25867146694E+02  0.14597640998E+02  0.30057245539E+02  0.51100000000E-03 0.  1.
         12    1    3    3    0    0  0.12275167789E+02  0.84445510612E+01  0.59537338740E+01  0.16044847581E+02  0.00000000000E+00 0. -1.
</event>
<event>
 7    1  0.2328615E-009  0.4778726E+02  0.7816164E-02  0.1312668E+00
        -11   -1    0    0    0    0  0.00000000000E+00  0.00000000000E+00  0.45593999997E+02  0.45594000000E+02  0.51100000000E-03 0.  1.
         11   -1    0    0    0    0 -0.00000000000E+00 -0.00000000000E+00 -0.45593999997E+02  0.45594000000E+02  0.51100000000E-03 0. -1.
    9900012    2    1    2    0    0  0.43116139028E+01  0.54468892363E+00  0.43182603368E+02  0.47787263438E+02  0.19999965318E+02 0.  0.
         12    1    1    2    0    0 -0.43116139028E+01 -0.54468892363E+00 -0.43182603368E+02  0.43400736562E+02  0.00000000000E+00 0. -1.
         11    1    3    3    0    0 -0.13337458898E+01  0.47967737256E+01  0.70573172845E+01  0.86367611862E+01  0.51100000000E-03 0. -1.
        -11    1    3    3    0    0 -0.20243278267E+01 -0.27542141977E+01  0.26650640502E+02  0.26868945615E+02  0.51100000000E-03 0.  1.
         12    1    3    3    0    0  0.76696876193E+01 -0.14978706043E+01  0.94746455816E+01  0.12281556637E+02  0.00000000000E+00 0. -1.
</event>
<event>
 7    1  0.2328615E-009  0.4778727E+02  0.7816164E-02  0.1312668E+00
        -11   -1    0    0    0    0  0.00000000000E+00  0.00000000000E+00  0.45593999997E+02  0.45594000000E+02  0.51100000000E-03 0.  1.
         11   -1    0    0    0    0 -0.00000000000E+00 -0.00000000000E+00 -0.45593999997E+02  0.45594000000E+02  0.51100000000E-03 0. -1.
    9900012    2    1    2    0    0  0.14352380168E+02  0.25846241327E+02  0.31774273768E+02  0.47787268661E+02  0.19999989134E+02 0.  0.
         12    1    1    2    0    0 -0.14352380168E+02 -0.25846241327E+02 -0.31774273768E+02  0.43400731339E+02  0.00000000000E+00 0. -1.
         11    1    3    3    0    0  0.21895321227E+01 -0.27846035920E+01  0.43504439281E+01  0.56102077246E+01  0.51100000000E-03 0. -1.
        -11    1    3    3    0    0 -0.27117561276E+00  0.52697994355E+01  0.25592115816E+01  0.58646301234E+01  0.51100000000E-03 0.  1.
        -12    1    3    3    0    0  0.12434023658E+02  0.23361045483E+02  0.24864618259E+02  0.36312430813E+02  0.00000000000E+00 0.  1.
</event>
<event>
 7    1  0.2328615E-009  0.4778730E+02  0.7816164E-02  0.1312668E+00
        -11   -1    0    0    0    0  0.00000000000E+00  0.00000000000E+00  0.45593999997E+02  0.45594000000E+02  0.51100000000E-03 0.  1.
         11   -1    0    0    0    0 -0.00000000000E+00 -0.00000000000E+00 -0.45593999997E+02  0.45594000000E+02  0.51100000000E-03 0. -1.
    9900012    2    1    2    0    0 -0.10359822673E+02  0.40003014177E+02  0.13268528403E+02  0.47787298220E+02  0.20000123903E+02 0.  0.
         12    1    1    2    0    0  0.10359822673E+02 -0.40003014177E+02 -0.13268528403E+02  0.43400701780E+02  0.00000000000E+00 0. -1.
         11    1    3    3    0    0 -0.38205624844E+01  0.13701063623E+02  0.11082102285E+02  0.18031329219E+02  0.51100000000E-03 0. -1.
        -11    1    3    3    0    0 -0.80702425876E+01  0.18198768128E+02  0.58247162558E+01  0.20742499765E+02  0.51100000000E-03 0.  1.
        -12    1    3    3    0    0  0.15309823990E+01  0.81031824256E+01 -0.36382901375E+01  0.90134692351E+01  0.00000000000E+00 0.  1.
</event>
<event>
 7    1  0.2328615E-009  0.4778727E+02  0.7816164E-02  0.1312668E+00
        -11   -1    0    0    0    0  0.00000000000E+00  0.00000000000E+00  0.45593999997E+02  0.45594000000E+02  0.51100000000E-03 0.  1.
         11   -1    0    0    0    0 -0.00000000000E+00 -0.00000000000E+00 -0.45593999997E+02  0.45594000000E+02  0.51100000000E-03 0. -1.
    9900012    2    1    2    0    0 -0.23133818168E+01 -0.40014981714E+02  0.16645506746E+02  0.47787269686E+02  0.19999993806E+02 0.  0.
         12    1    1    2    0    0  0.23133818168E+01  0.40014981714E+02 -0.16645506746E+02  0.43400730314E+02  0.00000000000E+00 0. -1.
         11    1    3    3    0    0 -0.30960680647E+01 -0.21672861749E+01  0.59621750420E+01  0.70590578916E+01  0.51100000000E-03 0. -1.
        -11    1    3    3    0    0  0.23318510468E+01 -0.13486946595E+01  0.13972416746E+01  0.30345990094E+01  0.51100000000E-03 0.  1.
        -12    1    3    3    0    0 -0.15491647990E+01 -0.36499000879E+02  0.92860900293E+01  0.37693612785E+02  0.00000000000E+00 0.  1.
</event>
<event>
 7    1  0.2328615E-009  0.4778728E+02  0.7816164E-02  0.1312668E+00
        -11   -1    0    0    0    0  0.00000000000E+00  0.00000000000E+00  0.45593999997E+02  0.45594000000E+02  0.51100000000E-03 0. -1.
         11   -1    0    0    0    0 -0.00000000000E+00 -0.00000000000E+00 -0.45593999997E+02  0.45594000000E+02  0.51100000000E-03 0.  1.
    9900012    2    1    2    0    0  0.41126767879E+02 -0.12584749877E+02 -0.58168416855E+01  0.47787278660E+02  0.20000034725E+02 0.  0.
         12    1    1    2    0    0 -0.41126767879E+02  0.12584749877E+02  0.58168416855E+01  0.43400721340E+02  0.00000000000E+00 0. -1.
         11    1    3    3    0    0  0.50845188569E+01 -0.11861600818E+01 -0.90829508064E+00  0.52994629880E+01  0.51100000000E-03 0.  1.
        -11    1    3    3    0    0  0.12184569987E+02  0.44515932602E+01  0.17258198543E+01  0.13086591716E+02  0.51100000000E-03 0. -1.
         12    1    3    3    0    0  0.23857679035E+02 -0.15850183055E+02 -0.66343664592E+01  0.29401223956E+02  0.00000000000E+00 0. -1.
</event>
<event>
 7    1  0.2328615E-009  0.4778727E+02  0.7816164E-02  0.1312668E+00
        -11   -1    0    0    0    0  0.00000000000E+00  0.00000000000E+00  0.45593999997E+02  0.45594000000E+02  0.51100000000E-03 0. -1.
         11   -1    0    0    0    0 -0.00000000000E+00 -0.00000000000E+00 -0.45593999997E+02  0.45594000000E+02  0.51100000000E-03 0.  1.
    9900012    2    1    2    0    0 -0.20989644955E+02  0.20936864040E+02 -0.31697097373E+02  0.47787268980E+02  0.19999990588E+02 0.  0.
         12    1    1    2    0    0  0.20989644955E+02 -0.20936864040E+02  0.31697097373E+02  0.43400731020E+02  0.00000000000E+00 0. -1.
         11    1    3    3    0    0 -0.69514492819E+01  0.82566199149E+01 -0.15554799595E+01  0.10904766742E+02  0.51100000000E-03 0. -1.
        -11    1    3    3    0    0  0.13200491491E+01  0.14598711277E+01 -0.48722829410E+01  0.52547973114E+01  0.51100000000E-03 0.  1.
        -12    1    3    3    0    0 -0.15358244823E+02  0.11220372998E+02 -0.25269334472E+02  0.31627704926E+02  0.00000000000E+00 0.  1.
</event>
<event>
 7    1  0.2328615E-009  0.4778727E+02  0.7816164E-02  0.1312668E+00
        -11   -1    0    0    0    0  0.00000000000E+00  0.00000000000E+00  0.45593999997E+02  0.45594000000E+02  0.51100000000E-03 0. -1.
         11   -1    0    0    0    0 -0.00000000000E+00 -0.00000000000E+00 -0.45593999997E+02  0.45594000000E+02  0.51100000000E-03 0.  1.
    9900012    2    1    2    0    0  0.34233268928E+02  0.26358297697E+02 -0.41166467722E+01  0.47787270287E+02  0.19999996546E+02 0.  0.
         12    1    1    2    0    0 -0.34233268928E+02 -0.26358297697E+02  0.41166467722E+01  0.43400729713E+02  0.00000000000E+00 0. -1.
         11    1    3    3    0    0  0.14363798827E+02  0.18149962895E+02  0.37727266101E+01  0.23451510318E+02  0.51100000000E-03 0. -1.
        -11    1    3    3    0    0  0.14015469900E+02  0.94625154520E+01 -0.46967572977E+01  0.17550843984E+02  0.51100000000E-03 0.  1.
         12    1    3    3    0    0  0.58540002008E+01 -0.12541806500E+01 -0.31926160846E+01  0.67849159845E+01  0.00000000000E+00 0. -1.
</event>
<event>
 7    1  0.2328615E-009  0.4778726E+02  0.7816164E-02  0.1312668E+00
        -11   -1    0    0    0    0  0.00000000000E+00  0.00000000000E+00  0.45593999997E+02  0.45594000000E+02  0.51100000000E-03 0.  1.
         11   -1    0    0    0    0 -0.00000000000E+00 -0.00000000000E+00 -0.45593999997E+02  0.45594000000E+02  0.51100000000E-03 0. -1.
    9900012    2    1    2    0    0  0.14337788224E+02 -0.11530020517E+02  0.39307897383E+02  0.47787258751E+02  0.19999943951E+02 0.  0.
         12    1    1    2    0    0 -0.14337788224E+02  0.11530020517E+02 -0.39307897383E+02  0.43400741249E+02  0.00000000000E+00 0. -1.
         11    1    3    3    0    0  0.68245777508E+01 -0.18323179415E+01  0.52196671987E+01  0.87850541513E+01  0.51100000000E-03 0. -1.
        -11    1    3    3    0    0  0.48196547815E+01  0.30668469859E+01  0.13078347675E+02  0.14271573173E+02  0.51100000000E-03 0.  1.
         12    1    3    3    0    0  0.26935556915E+01 -0.12764549561E+02  0.21009882509E+02  0.24730631427E+02  0.00000000000E+00 0. -1.
</event>
<event>
 7    1  0.2328615E-009  0.4778727E+02  0.7816164E-02  0.1312668E+00
        -11   -1    0    0    0    0  0.00000000000E+00  0.00000000000E+00  0.45593999997E+02  0.45594000000E+02  0.51100000000E-03 0.  1.
         11   -1    0    0    0    0 -0.00000000000E+00 -0.00000000000E+00 -0.45593999997E+02  0.45594000000E+02  0.51100000000E-03 0. -1.
    9900012    2    1    2    0    0 -0.19820241783E+02 -0.26150665629E+02  0.28406406347E+02  0.47787271680E+02  0.20000002896E+02 0.  0.
         12    1    1    2    0    0  0.19820241783E+02  0.26150665629E+02 -0.28406406347E+02  0.43400728320E+02  0.00000000000E+00 0. -1.
         11    1    3    3    0    0 -0.63737201897E-01 -0.34501342432E+01  0.42770304372E+01  0.54954961877E+01  0.51100000000E-03 0. -1.
        -11    1    3    3    0    0 -0.20491480349E+02 -0.12437632950E+02  0.13555989772E+02  0.27538343074E+02  0.51100000000E-03 0.  1.
        -12    1    3    3    0    0  0.73497576819E+00 -0.10262898436E+02  0.10573386139E+02  0.14753432418E+02  0.00000000000E+00 0.  1.
</event>
<event>
 7    1  0.2328615E-009  0.4778728E+02  0.7816164E-02  0.1312668E+00
        -11   -1    0    0    0    0  0.00000000000E+00  0.00000000000E+00  0.45593999997E+02  0.45594000000E+02  0.51100000000E-03 0.  1.
         11   -1    0    0    0    0 -0.00000000000E+00 -0.00000000000E+00 -0.45593999997E+02  0.45594000000E+02  0.51100000000E-03 0. -1.
    9900012    2    1    2    0    0  0.22722706906E+02 -0.30622438940E+02 -0.20726014805E+02  0.47787275750E+02  0.20000021452E+02 0.  0.
         12    1    1    2    0    0 -0.22722706906E+02  0.30622438940E+02  0.20726014805E+02  0.43400724250E+02  0.00000000000E+00 0. -1.
         11    1    3    3    0    0  0.10796940008E+02 -0.12325801264E+02 -0.23192885734E+01  0.16549271588E+02  0.51100000000E-03 0.  1.
        -11    1    3    3    0    0  0.12668997578E+02 -0.10151730856E+02 -0.82897458813E+01  0.18228577181E+02  0.51100000000E-03 0. -1.
         12    1    3    3    0    0 -0.74323068064E+00 -0.81449068195E+01 -0.10116980351E+02  0.13009426980E+02  0.00000000000E+00 0. -1.
</event>
<event>
 7    1  0.2328615E-009  0.4778730E+02  0.7816164E-02  0.1312668E+00
        -11   -1    0    0    0    0  0.00000000000E+00  0.00000000000E+00  0.45593999997E+02  0.45594000000E+02  0.51100000000E-03 0. -1.
         11   -1    0    0    0    0 -0.00000000000E+00 -0.00000000000E+00 -0.45593999997E+02  0.45594000000E+02  0.51100000000E-03 0.  1.
    9900012    2    1    2    0    0  0.42174895491E+02  0.55924395641E+01 -0.85804155655E+01  0.47787300453E+02  0.20000134083E+02 0.  0.
         12    1    1    2    0    0 -0.42174895491E+02 -0.55924395641E+01  0.85804155655E+01  0.43400699547E+02  0.00000000000E+00 0. -1.
         11    1    3    3    0    0  0.24595448882E+02  0.69468110457E+01 -0.54390112363E+01  0.26130004456E+02  0.51100000000E-03 0. -1.
        -11    1    3    3    0    0  0.15332179023E+02  0.51393218287E+00  0.22693571124E+01  0.15507734259E+02  0.51100000000E-03 0.  1.
         12    1    3    3    0    0  0.22472675861E+01 -0.18683036645E+01 -0.54107614415E+01  0.61495617375E+01  0.00000000000E+00 0. -1.
</event>
<event>
 7    1  0.2328615E-009  0.4778727E+02  0.7816164E-02  0.1312668E+00
        -11   -1    0    0    0    0  0.00000000000E+00  0.00000000000E+00  0.45593999997E+02  0.45594000000E+02  0.51100000000E-03 0.  1.
         11   -1    0    0    0    0 -0.00000000000E+00 -0.00000000000E+00 -0.45593999997E+02  0.45594000000E+02  0.51100000000E-03 0. -1.
    9900012    2    1    2    0    0 -0.14432547944E+02  0.24554490313E+02  0.32747546999E+02  0.47787271099E+02  0.20000000247E+02 0.  0.
         12    1    1    2    0    0  0.14432547944E+02 -0.24554490313E+02 -0.32747546999E+02  0.43400728901E+02  0.00000000000E+00 0. -1.
         11    1    3    3    0    0 -0.46458495376E+01  0.12077543721E+02  0.16760622429E+02  0.21174736001E+02  0.51100000000E-03 0. -1.
        -11    1    3    3    0    0 -0.43596931646E+01  0.14380425475E+02  0.88222562191E+01  0.17425147528E+02  0.51100000000E-03 0.  1.
         12    1    3    3    0    0 -0.54270052422E+01 -0.19034788827E+01  0.71646683513E+01  0.91873875689E+01  0.00000000000E+00 0. -1.
</event>
<event>
 7    1  0.2328615E-009  0.4778727E+02  0.7816164E-02  0.1312668E+00
        -11   -1    0    0    0    0  0.00000000000E+00  0.00000000000E+00  0.45593999997E+02  0.45594000000E+02  0.51100000000E-03 0.  1.
         11   -1    0    0    0    0 -0.00000000000E+00 -0.00000000000E+00 -0.45593999997E+02  0.45594000000E+02  0.51100000000E-03 0. -1.
    9900012    2    1    2    0    0 -0.29328663522E+02  0.28989485615E+02 -0.13530054881E+02  0.47787272296E+02  0.20000005704E+02 0.  0.
         12    1    1    2    0    0  0.29328663522E+02 -0.28989485615E+02  0.13530054881E+02  0.43400727704E+02  0.00000000000E+00 0. -1.
         11    1    3    3    0    0 -0.93516365776E+00 -0.10723480242E+01 -0.79045842281E+00  0.16276627817E+01  0.51100000000E-03 0. -1.
        -11    1    3    3    0    0 -0.86940148785E+01  0.45376171741E+00 -0.13007585264E+01  0.88024864334E+01  0.51100000000E-03 0.  1.
        -12    1    3    3    0    0 -0.19699484985E+02  0.29608071922E+02 -0.11438837932E+02  0.37357123080E+02  0.00000000000E+00 0.  1.
</event>
<event>
 7    1  0.2328615E-009  0.4778727E+02  0.7816164E-02  0.1312668E+00
        -11   -1    0    0    0    0  0.00000000000E+00  0.00000000000E+00  0.45593999997E+02  0.45594000000E+02  0.51100000000E-03 0. -1.
         11   -1    0    0    0    0 -0.00000000000E+00 -0.00000000000E+00 -0.45593999997E+02  0.45594000000E+02  0.51100000000E-03 0.  1.
    9900012    2    1    2    0    0  0.17704370832E+02 -0.35651995184E+02 -0.17294908614E+02  0.47787269925E+02  0.19999994894E+02 0.  0.
         12    1    1    2    0    0 -0.17704370832E+02  0.35651995184E+02  0.17294908614E+02  0.43400730075E+02  0.00000000000E+00 0. -1.
         11    1    3    3    0    0 -0.17093306638E+01 -0.24348416326E+01 -0.76796485045E+00  0.30724640546E+01  0.51100000000E-03 0.  1.
        -11    1    3    3    0    0  0.13432143094E+02 -0.13466471125E+02 -0.14620887194E+02  0.23990386726E+02  0.51100000000E-03 0. -1.
        -12    1    3    3    0    0  0.59815584016E+01 -0.19750682426E+02 -0.19060565690E+01  0.20724419144E+02  0.00000000000E+00 0.  1.
</event>
<event>
 7    1  0.2328615E-009  0.4778727E+02  0.7816164E-02  0.1312668E+00
        -11   -1    0    0    0    0  0.00000000000E+00  0.00000000000E+00  0.45593999997E+02  0.45594000000E+02  0.51100000000E-03 0.  1.
         11   -1    0    0    0    0 -0.00000000000E+00 -0.00000000000E+00 -0.45593999997E+02  0.45594000000E+02  0.51100000000E-03 0. -1.
    9900012    2    1    2    0    0  0.15947711687E+02 -0.39679082095E+02 -0.74070375318E+01  0.47787271101E+02  0.20000000257E+02 0.  0.
         12    1    1    2    0    0 -0.15947711687E+02  0.39679082095E+02  0.74070375318E+01  0.43400728899E+02  0.00000000000E+00 0. -1.
         11    1    3    3    0    0 -0.87777858953E+00 -0.11402065295E+02 -0.48138630856E+01  0.12407693836E+02  0.51100000000E-03 0. -1.
        -11    1    3    3    0    0  0.26416902492E+01 -0.11782744567E+02  0.38791799113E+01  0.12683045137E+02  0.51100000000E-03 0.  1.
         12    1    3    3    0    0  0.14183800027E+02 -0.16494272233E+02 -0.64723543575E+01  0.22696532128E+02  0.00000000000E+00 0. -1.
</event>
<event>
 7    1  0.2328615E-009  0.4778727E+02  0.7816164E-02  0.1312668E+00
        -11   -1    0    0    0    0  0.00000000000E+00  0.00000000000E+00  0.45593999997E+02  0.45594000000E+02  0.51100000000E-03 0.  1.
         11   -1    0    0    0    0 -0.00000000000E+00 -0.00000000000E+00 -0.45593999997E+02  0.45594000000E+02  0.51100000000E-03 0. -1.
    9900012    2    1    2    0    0  0.62130032148E+01 -0.35567244576E+02  0.24083043671E+02  0.47787270880E+02  0.19999999250E+02 0.  0.
         12    1    1    2    0    0 -0.62130032148E+01  0.35567244576E+02 -0.24083043671E+02  0.43400729120E+02  0.00000000000E+00 0. -1.
         11    1    3    3    0    0 -0.20563206530E+01 -0.25646492953E+02  0.20908402009E+02  0.33153164709E+02  0.51100000000E-03 0. -1.
        -11    1    3    3    0    0  0.18242759428E+01 -0.69082545388E+01  0.11476962769E+01  0.72366546480E+01  0.51100000000E-03 0.  1.
         12    1    3    3    0    0  0.64450479250E+01 -0.30124970846E+01  0.20269453850E+01  0.73974515229E+01  0.00000000000E+00 0. -1.
</event>
<event>
 7    1  0.2328615E-009  0.4778728E+02  0.7816164E-02  0.1312668E+00
        -11   -1    0    0    0    0  0.00000000000E+00  0.00000000000E+00  0.45593999997E+02  0.45594000000E+02  0.51100000000E-03 0.  1.
         11   -1    0    0    0    0 -0.00000000000E+00 -0.00000000000E+00 -0.45593999997E+02  0.45594000000E+02  0.51100000000E-03 0. -1.
    9900012    2    1    2    0    0  0.25378285612E+02 -0.28350448814E+02  0.20876235924E+02  0.47787279328E+02  0.20000037767E+02 0.  0.
         12    1    1    2    0    0 -0.25378285612E+02  0.28350448814E+02 -0.20876235924E+02  0.43400720672E+02  0.00000000000E+00 0. -1.
         11    1    3    3    0    0  0.99544869435E+01 -0.85701053120E+01  0.91763303565E+00  0.13167405440E+02  0.51100000000E-03 0. -1.
        -11    1    3    3    0    0 -0.16951353225E+01 -0.22243304411E+00 -0.20780333634E+00  0.17222493165E+01  0.51100000000E-03 0.  1.
        -12    1    3    3    0    0  0.17118933991E+02 -0.19557910458E+02  0.20166406224E+02  0.32897624572E+02  0.00000000000E+00 0.  1.
</event>
<event>
 7    1  0.2328615E-009  0.4778727E+02  0.7816164E-02  0.1312668E+00
        -11   -1    0    0    0    0  0.00000000000E+00  0.00000000000E+00  0.45593999997E+02  0.45594000000E+02  0.51100000000E-03 0.  1.
         11   -1    0    0    0    0 -0.00000000000E+00 -0.00000000000E+00 -0.45593999997E+02  0.45594000000E+02  0.51100000000E-03 0. -1.
    9900012    2    1    2    0    0  0.86851484395E+01 -0.46548064681E+01  0.42267296068E+02  0.47787270241E+02  0.19999996338E+02 0.  0.
         12    1    1    2    0    0 -0.86851484395E+01  0.46548064681E+01 -0.42267296068E+02  0.43400729759E+02  0.00000000000E+00 0. -1.
         11    1    3    3    0    0  0.51162810943E+00  0.52426160818E+01  0.84164002614E+01  0.99288760857E+01  0.51100000000E-03 0. -1.
        -11    1    3    3    0    0 -0.21695089977E+01 -0.39133789663E+01  0.13903211739E+02  0.14605499004E+02  0.51100000000E-03 0.  1.
         12    1    3    3    0    0  0.10343029328E+02 -0.59840435836E+01  0.19947684068E+02  0.23252895152E+02  0.00000000000E+00 0. -1.
</event>
<event>
 7    1  0.2328615E-009  0.4778727E+02  0.7816164E-02  0.1312668E+00
        -11   -1    0    0    0    0  0.00000000000E+00  0.00000000000E+00  0.45593999997E+02  0.45594000000E+02  0.51100000000E-03 0.  1.
         11   -1    0    0    0    0 -0.00000000000E+00 -0.00000000000E+00 -0.45593999997E+02  0.45594000000E+02  0.51100000000E-03 0. -1.
    9900012    2    1    2    0    0  0.27847558014E+02 -0.21578499732E+02 -0.25347684703E+02  0.47787271229E+02  0.20000000843E+02 0.  0.
         12    1    1    2    0    0 -0.27847558014E+02  0.21578499732E+02  0.25347684703E+02  0.43400728771E+02  0.00000000000E+00 0. -1.
         11    1    3    3    0    0  0.58884464453E+01 -0.22562590916E+01 -0.19442600881E+01  0.65988373354E+01  0.51100000000E-03 0. -1.
        -11    1    3    3    0    0  0.21933707395E+02 -0.21674380158E+02 -0.23595970469E+02  0.38828289918E+02  0.51100000000E-03 0.  1.
        -12    1    3    3    0    0  0.25404172902E-01  0.23521395169E+01  0.19254585445E+00  0.23601439755E+01  0.00000000000E+00 0.  1.
</event>
<event>
 7    1  0.2328615E-009  0.4778732E+02  0.7816164E-02  0.1312668E+00
        -11   -1    0    0    0    0  0.00000000000E+00  0.00000000000E+00  0.45593999997E+02  0.45594000000E+02  0.51100000000E-03 0.  1.
         11   -1    0    0    0    0 -0.00000000000E+00 -0.00000000000E+00 -0.45593999997E+02  0.45594000000E+02  0.51100000000E-03 0. -1.
    9900012    2    1    2    0    0 -0.27279467190E+02 -0.29076374925E+02  0.17146833518E+02  0.47787322486E+02  0.20000234542E+02 0.  0.
         12    1    1    2    0    0  0.27279467190E+02  0.29076374925E+02 -0.17146833518E+02  0.43400677514E+02  0.00000000000E+00 0. -1.
         11    1    3    3    0    0 -0.10632798461E+02 -0.16229476516E+02  0.83676638532E+01  0.21129839320E+02  0.51100000000E-03 0. -1.
        -11    1    3    3    0    0 -0.45563879297E+01 -0.12029980943E+02  0.28909382930E+01  0.13184788088E+02  0.51100000000E-03 0.  1.
         12    1    3    3    0    0 -0.12090280800E+02 -0.81691746656E+00  0.58882313714E+01  0.13472695078E+02  0.00000000000E+00 0. -1.
</event>
<event>
 7    1  0.2328615E-009  0.4778727E+02  0.7816164E-02  0.1312668E+00
        -11   -1    0    0    0    0  0.00000000000E+00  0.00000000000E+00  0.45593999997E+02  0.45594000000E+02  0.51100000000E-03 0. -1.
         11   -1    0    0    0    0 -0.00000000000E+00 -0.00000000000E+00 -0.45593999997E+02  0.45594000000E+02  0.51100000000E-03 0.  1.
    9900012    2    1    2    0    0 -0.25039603185E+02 -0.34623870757E+02 -0.76045405091E+01  0.47787272008E+02  0.20000004393E+02 0.  0.
         12    1    1    2    0    0  0.25039603185E+02  0.34623870757E+02  0.76045405091E+01  0.43400727992E+02  0.00000000000E+00 0. -1.
         11    1    3    3    0    0 -0.41933819559E+01  0.99648857091E-01  0.20789088465E+01  0.46814788664E+01  0.51100000000E-03 0.  1.
        -11    1    3    3    0    0 -0.11641375919E+02 -0.95725083199E+01 -0.17495682083E+01  0.15172855302E+02  0.51100000000E-03 0. -1.
        -12    1    3    3    0    0 -0.92048453099E+01 -0.25151011294E+02 -0.79338811473E+01  0.27932937840E+02  0.00000000000E+00 0.  1.
</event>
<event>
 7    1  0.2328615E-009  0.4778727E+02  0.7816164E-02  0.1312668E+00
        -11   -1    0    0    0    0  0.00000000000E+00  0.00000000000E+00  0.45593999997E+02  0.45594000000E+02  0.51100000000E-03 0. -1.
         11   -1    0    0    0    0 -0.00000000000E+00 -0.00000000000E+00 -0.45593999997E+02  0.45594000000E+02  0.51100000000E-03 0.  1.
    9900012    2    1    2    0    0 -0.25847530173E+02 -0.14623415088E+02 -0.31649393407E+02  0.47787272034E+02  0.20000004514E+02 0.  0.
         12    1    1    2    0    0  0.25847530173E+02  0.14623415088E+02  0.31649393407E+02  0.43400727966E+02  0.00000000000E+00 0. -1.
         11    1    3    3    0    0  0.13659384315E+01  0.44392140104E+00 -0.57305514626E+01  0.59077977569E+01  0.51100000000E-03 0. -1.
        -11    1    3    3    0    0 -0.11392432077E+02 -0.85331666952E+00 -0.11319450686E+02  0.16082463184E+02  0.51100000000E-03 0.  1.
         12    1    3    3    0    0 -0.15821036528E+02 -0.14214019820E+02 -0.14599391259E+02  0.25797011094E+02  0.00000000000E+00 0. -1.
</event>
<event>
 7    1  0.2328615E-009  0.4778727E+02  0.7816164E-02  0.1312668E+00
        -11   -1    0    0    0    0  0.00000000000E+00  0.00000000000E+00  0.45593999997E+02  0.45594000000E+02  0.51100000000E-03 0. -1.
         11   -1    0    0    0    0 -0.00000000000E+00 -0.00000000000E+00 -0.45593999997E+02  0.45594000000E+02  0.51100000000E-03 0.  1.
    9900012    2    1    2    0    0 -0.38853986917E+02 -0.16496261683E+02 -0.10092808913E+02  0.47787265667E+02  0.19999975482E+02 0.  0.
         12    1    1    2    0    0  0.38853986917E+02  0.16496261683E+02  0.10092808913E+02  0.43400734333E+02  0.00000000000E+00 0. -1.
         11    1    3    3    0    0 -0.93763084467E+01 -0.84002537995E+01 -0.26366997994E+01  0.12862022006E+02  0.51100000000E-03 0. -1.
        -11    1    3    3    0    0 -0.24886695182E+02 -0.12378151182E+02 -0.67865171081E+01  0.28611589234E+02  0.51100000000E-03 0.  1.
         12    1    3    3    0    0 -0.45909832886E+01  0.42821432977E+01 -0.66959200552E+00  0.63136544277E+01  0.00000000000E+00 0. -1.
</event>
<event>
 7    1  0.2328615E-009  0.4778726E+02  0.7816164E-02  0.1312668E+00
        -11   -1    0    0    0    0  0.00000000000E+00  0.00000000000E+00  0.45593999997E+02  0.45594000000E+02  0.51100000000E-03 0.  1.
         11   -1    0    0    0    0 -0.00000000000E+00 -0.00000000000E+00 -0.45593999997E+02  0.45594000000E+02  0.51100000000E-03 0. -1.
    9900012    2    1    2    0    0  0.86011989635E+00  0.20666092853E+02  0.38154911519E+02  0.47787257229E+02  0.19999937008E+02 0.  0.
         12    1    1    2    0    0 -0.86011989635E+00 -0.20666092853E+02 -0.38154911519E+02  0.43400742771E+02  0.00000000000E+00 0. -1.
         11    1    3    3    0    0 -0.30250157393E+01  0.72890945343E+01  0.18492873042E+02  0.20106416214E+02  0.51100000000E-03 0.  1.
        -11    1    3    3    0    0 -0.34606755582E+01 -0.69520807192E+00  0.45989725545E+01  0.57974251527E+01  0.51100000000E-03 0. -1.
        -12    1    3    3    0    0  0.73458111938E+01  0.14072206391E+02  0.15063065923E+02  0.21883415862E+02  0.00000000000E+00 0.  1.
</event>
<event>
 7    1  0.2328615E-009  0.4778727E+02  0.7816164E-02  0.1312668E+00
        -11   -1    0    0    0    0  0.00000000000E+00  0.00000000000E+00  0.45593999997E+02  0.45594000000E+02  0.51100000000E-03 0.  1.
         11   -1    0    0    0    0 -0.00000000000E+00 -0.00000000000E+00 -0.45593999997E+02  0.45594000000E+02  0.51100000000E-03 0. -1.
    9900012    2    1    2    0    0 -0.11587637079E+02  0.16342354904E+02  0.38500357154E+02  0.47787269616E+02  0.19999993489E+02 0.  0.
         12    1    1    2    0    0  0.11587637079E+02 -0.16342354904E+02 -0.38500357154E+02  0.43400730384E+02  0.00000000000E+00 0. -1.
         11    1    3    3    0    0 -0.85355159722E+01  0.19484413683E+01  0.75029077098E+01  0.11530181310E+02  0.51100000000E-03 0. -1.
        -11    1    3    3    0    0 -0.16371264994E+01  0.17757747036E+00  0.13807439930E+02  0.13905290886E+02  0.51100000000E-03 0.  1.
        -12    1    3    3    0    0 -0.14149946072E+01  0.14216336065E+02  0.17190009514E+02  0.22351797421E+02  0.00000000000E+00 0.  1.
</event>
<event>
 7    1  0.2328615E-009  0.4778727E+02  0.7816164E-02  0.1312668E+00
        -11   -1    0    0    0    0  0.00000000000E+00  0.00000000000E+00  0.45593999997E+02  0.45594000000E+02  0.51100000000E-03 0.  1.
         11   -1    0    0    0    0 -0.00000000000E+00 -0.00000000000E+00 -0.45593999997E+02  0.45594000000E+02  0.51100000000E-03 0. -1.
    9900012    2    1    2    0    0  0.25414034475E+02  0.56732733303E+01  0.34721237629E+02  0.47787268197E+02  0.19999987017E+02 0.  0.
         12    1    1    2    0    0 -0.25414034475E+02 -0.56732733303E+01 -0.34721237629E+02  0.43400731803E+02  0.00000000000E+00 0. -1.
         11    1    3    3    0    0  0.74727457813E+00  0.37299370049E+01  0.50909404535E+01  0.63551966388E+01  0.51100000000E-03 0. -1.
        -11    1    3    3    0    0  0.71511499362E+01 -0.48326210813E+01  0.36416284243E+01  0.93677441130E+01  0.51100000000E-03 0.  1.
        -12    1    3    3    0    0  0.17515609960E+02  0.67759574068E+01  0.25988668751E+02  0.32064327445E+02  0.00000000000E+00 0.  1.
</event>
<event>
 7    1  0.2328615E-009  0.4778727E+02  0.7816164E-02  0.1312668E+00
        -11   -1    0    0    0    0  0.00000000000E+00  0.00000000000E+00  0.45593999997E+02  0.45594000000E+02  0.51100000000E-03 0. -1.
         11   -1    0    0    0    0 -0.00000000000E+00 -0.00000000000E+00 -0.45593999997E+02  0.45594000000E+02  0.51100000000E-03 0.  1.
    9900012    2    1    2    0    0  0.34351050253E+02  0.24134540768E+02 -0.11006941475E+02  0.47787268760E+02  0.19999989584E+02 0.  0.
         12    1    1    2    0    0 -0.34351050253E+02 -0.24134540768E+02  0.11006941475E+02  0.43400731240E+02  0.00000000000E+00 0. -1.
         11    1    3    3    0    0  0.13727102504E+02  0.10461793978E+02 -0.10160496209E+02  0.20027934488E+02  0.51100000000E-03 0. -1.
        -11    1    3    3    0    0  0.10432263806E+02  0.32943467007E+01 -0.58135407434E+01  0.12388789470E+02  0.51100000000E-03 0.  1.
         12    1    3    3    0    0  0.10191683943E+02  0.10378400089E+02  0.49670954777E+01  0.15370544802E+02  0.00000000000E+00 0. -1.
</event>
<event>
 7    1  0.2328615E-009  0.4778727E+02  0.7816164E-02  0.1312668E+00
        -11   -1    0    0    0    0  0.00000000000E+00  0.00000000000E+00  0.45593999997E+02  0.45594000000E+02  0.51100000000E-03 0.  1.
         11   -1    0    0    0    0 -0.00000000000E+00 -0.00000000000E+00 -0.45593999997E+02  0.45594000000E+02  0.51100000000E-03 0. -1.
    9900012    2    1    2    0    0  0.13271157267E+02 -0.41052274166E+02  0.47127874021E+01  0.47787271959E+02  0.20000004168E+02 0.  0.
         12    1    1    2    0    0 -0.13271157267E+02  0.41052274166E+02 -0.47127874021E+01  0.43400728041E+02  0.00000000000E+00 0. -1.
         11    1    3    3    0    0  0.34551547840E+01 -0.18752524767E+01 -0.12558577077E+01  0.41269656257E+01  0.51100000000E-03 0. -1.
        -11    1    3    3    0    0  0.12128839487E+02 -0.37631042187E+02  0.30913497119E+01  0.39658044918E+02  0.51100000000E-03 0.  1.
        -12    1    3    3    0    0 -0.23128370039E+01 -0.15459795026E+01  0.28772953980E+01  0.40022614152E+01  0.00000000000E+00 0.  1.
</event>
<event>
 7    1  0.2328615E-009  0.4778727E+02  0.7816164E-02  0.1312668E+00
        -11   -1    0    0    0    0  0.00000000000E+00  0.00000000000E+00  0.45593999997E+02  0.45594000000E+02  0.51100000000E-03 0.  1.
         11   -1    0    0    0    0 -0.00000000000E+00 -0.00000000000E+00 -0.45593999997E+02  0.45594000000E+02  0.51100000000E-03 0. -1.
    9900012    2    1    2    0    0  0.34602911171E+02  0.40910720934E+01  0.25875180470E+02  0.47787270781E+02  0.19999998800E+02 0.  0.
         12    1    1    2    0    0 -0.34602911171E+02 -0.40910720934E+01 -0.25875180470E+02  0.43400729219E+02  0.00000000000E+00 0. -1.
         11    1    3    3    0    0  0.78554576908E+01 -0.31420795113E+01  0.27996528380E+01  0.89117302170E+01  0.51100000000E-03 0. -1.
        -11    1    3    3    0    0  0.20394543852E+02 -0.15324195044E+01  0.14654794522E+02  0.25160459678E+02  0.51100000000E-03 0.  1.
        -12    1    3    3    0    0  0.63529096284E+01  0.87655711091E+01  0.84207331094E+01  0.13715080886E+02  0.00000000000E+00 0.  1.
</event>
<event>
 7    1  0.2328615E-009  0.4778726E+02  0.7816164E-02  0.1312668E+00
        -11   -1    0    0    0    0  0.00000000000E+00  0.00000000000E+00  0.45593999997E+02  0.45594000000E+02  0.51100000000E-03 0.  1.
         11   -1    0    0    0    0 -0.00000000000E+00 -0.00000000000E+00 -0.45593999997E+02  0.45594000000E+02  0.51100000000E-03 0. -1.
    9900012    2    1    2    0    0 -0.23510933916E+02 -0.17210353355E+02  0.32166189897E+02  0.47787262118E+02  0.19999959302E+02 0.  0.
         12    1    1    2    0    0  0.23510933916E+02  0.17210353355E+02 -0.32166189897E+02  0.43400737882E+02  0.00000000000E+00 0. -1.
         11    1    3    3    0    0 -0.31652787717E+01 -0.32991358864E+01  0.98323849992E+00  0.46765420460E+01  0.51100000000E-03 0. -1.
        -11    1    3    3    0    0 -0.96244802629E+01 -0.11513248003E+02  0.70189800743E+01  0.16566580258E+02  0.51100000000E-03 0.  1.
        -12    1    3    3    0    0 -0.10721174881E+02 -0.23979694659E+01  0.24163971322E+02  0.26544139814E+02  0.00000000000E+00 0.  1.
</event>
<event>
 7    1  0.2328615E-009  0.4778727E+02  0.7816164E-02  0.1312668E+00
        -11   -1    0    0    0    0  0.00000000000E+00  0.00000000000E+00  0.45593999997E+02  0.45594000000E+02  0.51100000000E-03 0. -1.
         11   -1    0    0    0    0 -0.00000000000E+00 -0.00000000000E+00 -0.45593999997E+02  0.45594000000E+02  0.51100000000E-03 0.  1.
    9900012    2    1    2    0    0  0.38594001791E+02  0.18653339217E+02 -0.67955357901E+01  0.47787270226E+02  0.19999996271E+02 0.  0.
         12    1    1    2    0    0 -0.38594001791E+02 -0.18653339217E+02  0.67955357901E+01  0.43400729774E+02  0.00000000000E+00 0. -1.
         11    1    3    3    0    0  0.61990402499E+01  0.66468461993E+01 -0.23190554885E+00  0.90918889600E+01  0.51100000000E-03 0. -1.
        -11    1    3    3    0    0  0.13324771304E+02  0.72214130106E+00  0.42958250360E+01  0.14018742147E+02  0.51100000000E-03 0.  1.
        -12    1    3    3    0    0  0.19070190237E+02  0.11284351716E+02 -0.10859455277E+02  0.24676639120E+02  0.00000000000E+00 0.  1.
</event>
<event>
 7    1  0.2328615E-009  0.4778727E+02  0.7816164E-02  0.1312668E+00
        -11   -1    0    0    0    0  0.00000000000E+00  0.00000000000E+00  0.45593999997E+02  0.45594000000E+02  0.51100000000E-03 0. -1.
         11   -1    0    0    0    0 -0.00000000000E+00 -0.00000000000E+00 -0.45593999997E+02  0.45594000000E+02  0.51100000000E-03 0.  1.
    9900012    2    1    2    0    0 -0.37485643168E+02 -0.14635132728E+02 -0.16256150698E+02  0.47787274324E+02  0.20000014954E+02 0.  0.
         12    1    1    2    0    0  0.37485643168E+02  0.14635132728E+02  0.16256150698E+02  0.43400725676E+02  0.00000000000E+00 0. -1.
         11    1    3    3    0    0 -0.15255632052E+02 -0.84596380054E+01 -0.13217680490E+02  0.21886225401E+02  0.51100000000E-03 0.  1.
        -11    1    3    3    0    0 -0.98737731794E+01 -0.49761117531E+01 -0.67368885138E+01  0.12947538457E+02  0.51100000000E-03 0. -1.
         12    1    3    3    0    0 -0.12356237937E+02 -0.11993829690E+01  0.36984183061E+01  0.12953510467E+02  0.00000000000E+00 0. -1.
</event>
<event>
 7    1  0.2328615E-009  0.4778727E+02  0.7816164E-02  0.1312668E+00
        -11   -1    0    0    0    0  0.00000000000E+00  0.00000000000E+00  0.45593999997E+02  0.45594000000E+02  0.51100000000E-03 0.  1.
         11   -1    0    0    0    0 -0.00000000000E+00 -0.00000000000E+00 -0.45593999997E+02  0.45594000000E+02  0.51100000000E-03 0. -1.
    9900012    2    1    2    0    0 -0.87072020634E+01  0.42328176251E+02 -0.40166198944E+01  0.47787272956E+02  0.20000008717E+02 0.  0.
         12    1    1    2    0    0  0.87072020634E+01 -0.42328176251E+02  0.40166198944E+01  0.43400727044E+02  0.00000000000E+00 0. -1.
         11    1    3    3    0    0 -0.13442413709E+01  0.61430139745E+01  0.65212417022E+01  0.90592604088E+01  0.51100000000E-03 0. -1.
        -11    1    3    3    0    0 -0.26283507614E+00  0.10715785972E+02 -0.17215617974E+01  0.10856377230E+02  0.51100000000E-03 0.  1.
         12    1    3    3    0    0 -0.71001256163E+01  0.25469376304E+02 -0.88162997991E+01  0.27871635317E+02  0.00000000000E+00 0. -1.
</event>
<event>
 7    1  0.2328615E-009  0.4778727E+02  0.7816164E-02  0.1312668E+00
        -11   -1    0    0    0    0  0.00000000000E+00  0.00000000000E+00  0.45593999997E+02  0.45594000000E+02  0.51100000000E-03 0.  1.
         11   -1    0    0    0    0 -0.00000000000E+00 -0.00000000000E+00 -0.45593999997E+02  0.45594000000E+02  0.51100000000E-03 0. -1.
    9900012    2    1    2    0    0  0.30758747114E+02  0.15424947853E+02  0.26449831485E+02  0.47787272750E+02  0.20000007775E+02 0.  0.
         12    1    1    2    0    0 -0.30758747114E+02 -0.15424947853E+02 -0.26449831485E+02  0.43400727250E+02  0.00000000000E+00 0. -1.
         11    1    3    3    0    0  0.15706828582E+02  0.29274310258E+01  0.17259336893E+02  0.23519333042E+02  0.51100000000E-03 0. -1.
        -11    1    3    3    0    0  0.48566330214E+01  0.78967260867E+01  0.92308273773E+01  0.13082558677E+02  0.51100000000E-03 0.  1.
         12    1    3    3    0    0  0.10195285510E+02  0.46007907402E+01 -0.40332785032E-01  0.11185381031E+02  0.00000000000E+00 0. -1.
</event>
<event>
 7    1  0.2328615E-009  0.4778727E+02  0.7816164E-02  0.1312668E+00
        -11   -1    0    0    0    0  0.00000000000E+00  0.00000000000E+00  0.45593999997E+02  0.45594000000E+02  0.51100000000E-03 0.  1.
         11   -1    0    0    0    0 -0.00000000000E+00 -0.00000000000E+00 -0.45593999997E+02  0.45594000000E+02  0.51100000000E-03 0. -1.
    9900012    2    1    2    0    0  0.20791612040E+01 -0.43349571542E+02  0.33921763641E+00  0.47787270366E+02  0.19999996905E+02 0.  0.
         12    1    1    2    0    0 -0.20791612040E+01  0.43349571542E+02 -0.33921763641E+00  0.43400729634E+02  0.00000000000E+00 0. -1.
         11    1    3    3    0    0 -0.57090656212E+01 -0.15614091963E+02  0.45155318067E+01  0.17227400438E+02  0.51100000000E-03 0. -1.
        -11    1    3    3    0    0  0.42885341983E+01 -0.17618464134E+02  0.19303870855E+01  0.18235355729E+02  0.51100000000E-03 0.  1.
         12    1    3    3    0    0  0.34996926270E+01 -0.10117015445E+02 -0.61067012558E+01  0.12324514198E+02  0.00000000000E+00 0. -1.
</event>
<event>
 7    1  0.2328615E-009  0.4778728E+02  0.7816164E-02  0.1312668E+00
        -11   -1    0    0    0    0  0.00000000000E+00  0.00000000000E+00  0.45593999997E+02  0.45594000000E+02  0.51100000000E-03 0. -1.
         11   -1    0    0    0    0 -0.00000000000E+00 -0.00000000000E+00 -0.45593999997E+02  0.45594000000E+02  0.51100000000E-03 0.  1.
    9900012    2    1    2    0    0  0.13676417904E+02 -0.12921186190E+02 -0.39110374321E+02  0.47787276057E+02  0.20000022856E+02 0.  0.
         12    1    1    2    0    0 -0.13676417904E+02  0.12921186190E+02  0.39110374321E+02  0.43400723943E+02  0.00000000000E+00 0. -1.
         11    1    3    3    0    0  0.90665501785E+01 -0.43167482419E+01 -0.13236469476E+02  0.16614474772E+02  0.51100000000E-03 0.  1.
        -11    1    3    3    0    0  0.51901747956E+01 -0.86825042010E+01 -0.70268947503E+01  0.12316697760E+02  0.51100000000E-03 0. -1.
        -12    1    3    3    0    0 -0.58030706991E+00  0.78066253322E-01 -0.18847010095E+02  0.18856103525E+02  0.00000000000E+00 0.  1.
</event>
<event>
 7    1  0.2328615E-009  0.4778727E+02  0.7816164E-02  0.1312668E+00
        -11   -1    0    0    0    0  0.00000000000E+00  0.00000000000E+00  0.45593999997E+02  0.45594000000E+02  0.51100000000E-03 0.  1.
         11   -1    0    0    0    0 -0.00000000000E+00 -0.00000000000E+00 -0.45593999997E+02  0.45594000000E+02  0.51100000000E-03 0. -1.
    9900012    2    1    2    0    0 -0.39609075175E+02  0.45932210323E+01  0.17136131122E+02  0.47787268376E+02  0.19999987833E+02 0.  0.
         12    1    1    2    0    0  0.39609075175E+02 -0.45932210323E+01 -0.17136131122E+02  0.43400731624E+02  0.00000000000E+00 0. -1.
         11    1    3    3    0    0 -0.62835754809E+01  0.38242831522E+00 -0.13055825692E+01  0.64291615586E+01  0.51100000000E-03 0. -1.
        -11    1    3    3    0    0 -0.70401788084E+00 -0.28859288055E+01  0.40035561803E+01  0.49852470948E+01  0.51100000000E-03 0.  1.
         12    1    3    3    0    0 -0.32621481813E+02  0.70967215225E+01  0.14438157511E+02  0.36372859722E+02  0.00000000000E+00 0. -1.
</event>
<event>
 7    1  0.2328615E-009  0.4778726E+02  0.7816164E-02  0.1312668E+00
        -11   -1    0    0    0    0  0.00000000000E+00  0.00000000000E+00  0.45593999997E+02  0.45594000000E+02  0.51100000000E-03 0.  1.
         11   -1    0    0    0    0 -0.00000000000E+00 -0.00000000000E+00 -0.45593999997E+02  0.45594000000E+02  0.51100000000E-03 0. -1.
    9900012    2    1    2    0    0  0.31054790906E+02  0.94115278306E+01  0.28820953431E+02  0.47787259788E+02  0.19999948675E+02 0.  0.
         12    1    1    2    0    0 -0.31054790906E+02 -0.94115278306E+01 -0.28820953431E+02  0.43400740212E+02  0.00000000000E+00 0. -1.
         11    1    3    3    0    0  0.99324347390E+01  0.35713653775E+00  0.17351002937E+02  0.19995952329E+02  0.51100000000E-03 0. -1.
        -11    1    3    3    0    0  0.82140145654E+01 -0.15577077007E+01  0.20480494862E+01  0.86076126493E+01  0.51100000000E-03 0.  1.
        -12    1    3    3    0    0  0.12908341601E+02  0.10612098994E+02  0.94219010083E+01  0.19183694810E+02  0.00000000000E+00 0.  1.
</event>
<event>
 7    1  0.2328615E-009  0.4778727E+02  0.7816164E-02  0.1312668E+00
        -11   -1    0    0    0    0  0.00000000000E+00  0.00000000000E+00  0.45593999997E+02  0.45594000000E+02  0.51100000000E-03 0. -1.
         11   -1    0    0    0    0 -0.00000000000E+00 -0.00000000000E+00 -0.45593999997E+02  0.45594000000E+02  0.51100000000E-03 0.  1.
    9900012    2    1    2    0    0 -0.41458647782E+02 -0.12803917918E+02 -0.92922816408E+00  0.47787271263E+02  0.20000000996E+02 0.  0.
         12    1    1    2    0    0  0.41458647782E+02  0.12803917918E+02  0.92922816408E+00  0.43400728737E+02  0.00000000000E+00 0. -1.
         11    1    3    3    0    0 -0.13707299674E+02  0.11978279672E+01 -0.87662643771E+00  0.13787433785E+02  0.51100000000E-03 0. -1.
        -11    1    3    3    0    0 -0.26704303805E+02 -0.11138907627E+02  0.36947038278E+01  0.29169263642E+02  0.51100000000E-03 0.  1.
        -12    1    3    3    0    0 -0.10470443026E+01 -0.28628382580E+01 -0.37473055542E+01  0.48305738355E+01  0.00000000000E+00 0.  1.
</event>
<event>
 7    1  0.2328615E-009  0.4778727E+02  0.7816164E-02  0.1312668E+00
        -11   -1    0    0    0    0  0.00000000000E+00  0.00000000000E+00  0.45593999997E+02  0.45594000000E+02  0.51100000000E-03 0. -1.
         11   -1    0    0    0    0 -0.00000000000E+00 -0.00000000000E+00 -0.45593999997E+02  0.45594000000E+02  0.51100000000E-03 0.  1.
    9900012    2    1    2    0    0  0.35393309516E+02  0.21426399237E+02 -0.13109036294E+02  0.47787265268E+02  0.19999973663E+02 0.  0.
         12    1    1    2    0    0 -0.35393309516E+02 -0.21426399237E+02  0.13109036294E+02  0.43400734732E+02  0.00000000000E+00 0. -1.
         11    1    3    3    0    0  0.16249168818E+01  0.41260357265E+01  0.26050186315E+01  0.51430193486E+01  0.51100000000E-03 0. -1.
        -11    1    3    3    0    0  0.28673997793E+02  0.11072350778E+02 -0.15878140782E+02  0.34596393687E+02  0.51100000000E-03 0.  1.
        -12    1    3    3    0    0  0.50943948409E+01  0.62280127327E+01  0.16408585641E+00  0.80478522328E+01  0.00000000000E+00 0.  1.
</event>
<event>
 7    1  0.2328615E-009  0.4778727E+02  0.7816164E-02  0.1312668E+00
        -11   -1    0    0    0    0  0.00000000000E+00  0.00000000000E+00  0.45593999997E+02  0.45594000000E+02  0.51100000000E-03 0. -1.
         11   -1    0    0    0    0 -0.00000000000E+00 -0.00000000000E+00 -0.45593999997E+02  0.45594000000E+02  0.51100000000E-03 0.  1.
    9900012    2    1    2    0    0  0.28293645974E+02 -0.29232453257E+02 -0.15118081506E+02  0.47787272883E+02  0.20000008382E+02 0.  0.
         12    1    1    2    0    0 -0.28293645974E+02  0.29232453257E+02  0.15118081506E+02  0.43400727117E+02  0.00000000000E+00 0. -1.
         11    1    3    3    0    0  0.73608612620E+01 -0.28651829827E+01  0.12304539751E+01  0.79940959019E+01  0.51100000000E-03 0. -1.
        -11    1    3    3    0    0  0.18453180210E+02 -0.12915508211E+02 -0.89032893790E+01  0.24219801284E+02  0.51100000000E-03 0.  1.
         12    1    3    3    0    0  0.24796045020E+01 -0.13451762063E+02 -0.74452461017E+01  0.15573375697E+02  0.00000000000E+00 0. -1.
</event>
<event>
 7    1  0.2328615E-009  0.4778728E+02  0.7816164E-02  0.1312668E+00
        -11   -1    0    0    0    0  0.00000000000E+00  0.00000000000E+00  0.45593999997E+02  0.45594000000E+02  0.51100000000E-03 0.  1.
         11   -1    0    0    0    0 -0.00000000000E+00 -0.00000000000E+00 -0.45593999997E+02  0.45594000000E+02  0.51100000000E-03 0. -1.
    9900012    2    1    2    0    0 -0.10446383840E+02 -0.29892618090E+02  0.29680414119E+02  0.47787279569E+02  0.20000038867E+02 0.  0.
         12    1    1    2    0    0  0.10446383840E+02  0.29892618090E+02 -0.29680414119E+02  0.43400720431E+02  0.00000000000E+00 0. -1.
         11    1    3    3    0    0 -0.99850955703E+01 -0.11030737003E+02  0.14609666657E+02  0.20852377621E+02  0.51100000000E-03 0. -1.
        -11    1    3    3    0    0 -0.59797780088E+01 -0.76360657940E+01  0.79536556229E+01  0.12543041253E+02  0.51100000000E-03 0.  1.
         12    1    3    3    0    0  0.55184897386E+01 -0.11225815294E+02  0.71170918393E+01  0.14391860695E+02  0.00000000000E+00 0. -1.
</event>
<event>
 7    1  0.2328615E-009  0.4778727E+02  0.7816164E-02  0.1312668E+00
        -11   -1    0    0    0    0  0.00000000000E+00  0.00000000000E+00  0.45593999997E+02  0.45594000000E+02  0.51100000000E-03 0.  1.
         11   -1    0    0    0    0 -0.00000000000E+00 -0.00000000000E+00 -0.45593999997E+02  0.45594000000E+02  0.51100000000E-03 0. -1.
    9900012    2    1    2    0    0 -0.17580837401E+02 -0.99063526727E+01  0.38423969633E+02  0.47787272940E+02  0.20000008641E+02 0.  0.
         12    1    1    2    0    0  0.17580837401E+02  0.99063526727E+01 -0.38423969633E+02  0.43400727060E+02  0.00000000000E+00 0. -1.
         11    1    3    3    0    0 -0.28702326599E+01 -0.39025112287E+01 -0.83024730814E-01  0.48450720097E+01  0.51100000000E-03 0. -1.
        -11    1    3    3    0    0 -0.72371032164E+00 -0.49115197562E+01  0.93955473118E+01  0.10626527772E+02  0.51100000000E-03 0.  1.
        -12    1    3    3    0    0 -0.13986894419E+02 -0.10923216879E+01  0.29111447052E+02  0.32315673158E+02  0.00000000000E+00 0.  1.
</event>
<event>
 7    1  0.2328615E-009  0.4778732E+02  0.7816164E-02  0.1312668E+00
        -11   -1    0    0    0    0  0.00000000000E+00  0.00000000000E+00  0.45593999997E+02  0.45594000000E+02  0.51100000000E-03 0.  1.
         11   -1    0    0    0    0 -0.00000000000E+00 -0.00000000000E+00 -0.45593999997E+02  0.45594000000E+02  0.51100000000E-03 0. -1.
    9900012    2    1    2    0    0  0.39323485310E+02 -0.10232344387E+02  0.15250638112E+02  0.47787316464E+02  0.20000207083E+02 0.  0.
         12    1    1    2    0    0 -0.39323485310E+02  0.10232344387E+02 -0.15250638112E+02  0.43400683536E+02  0.00000000000E+00 0. -1.
         11    1    3    3    0    0  0.12826464633E+02 -0.66631191818E+01  0.16709357475E+01  0.14550167653E+02  0.51100000000E-03 0. -1.
        -11    1    3    3    0    0  0.74664086072E+01 -0.75225177581E+01  0.70641886027E+01  0.12737279607E+02  0.51100000000E-03 0.  1.
         12    1    3    3    0    0  0.19030612070E+02  0.39532925528E+01  0.65155137620E+01  0.20499869204E+02  0.00000000000E+00 0. -1.
</event>
<event>
 7    1  0.2328615E-009  0.4778727E+02  0.7816164E-02  0.1312668E+00
        -11   -1    0    0    0    0  0.00000000000E+00  0.00000000000E+00  0.45593999997E+02  0.45594000000E+02  0.51100000000E-03 0. -1.
         11   -1    0    0    0    0 -0.00000000000E+00 -0.00000000000E+00 -0.45593999997E+02  0.45594000000E+02  0.51100000000E-03 0.  1.
    9900012    2    1    2    0    0  0.13203664718E+02  0.31571675911E+02 -0.26692988430E+02  0.47787272897E+02  0.20000008445E+02 0.  0.
         12    1    1    2    0    0 -0.13203664718E+02 -0.31571675911E+02  0.26692988430E+02  0.43400727103E+02  0.00000000000E+00 0. -1.
         11    1    3    3    0    0 -0.10424923253E+00  0.12696463974E+01 -0.50544341333E+01  0.52125017550E+01  0.51100000000E-03 0. -1.
        -11    1    3    3    0    0  0.33902123501E+01 -0.11837991660E+01 -0.14028648338E+01  0.38552496997E+01  0.51100000000E-03 0.  1.
        -12    1    3    3    0    0  0.99177016000E+01  0.31485828679E+02 -0.20235689463E+02  0.38719521442E+02  0.00000000000E+00 0.  1.
</event>
<event>
 7    1  0.2328615E-009  0.4778728E+02  0.7816164E-02  0.1312668E+00
        -11   -1    0    0    0    0  0.00000000000E+00  0.00000000000E+00  0.45593999997E+02  0.45594000000E+02  0.51100000000E-03 0.  1.
         11   -1    0    0    0    0 -0.00000000000E+00 -0.00000000000E+00 -0.45593999997E+02  0.45594000000E+02  0.51100000000E-03 0. -1.
    9900012    2    1    2    0    0  0.34369246013E+01 -0.29032609335E+02  0.32076751152E+02  0.47787276273E+02  0.20000023840E+02 0.  0.
         12    1    1    2    0    0 -0.34369246013E+01  0.29032609335E+02 -0.32076751152E+02  0.43400723727E+02  0.00000000000E+00 0. -1.
         11    1    3    3    0    0  0.53908197283E+01 -0.76217484912E+01  0.12070182862E+02  0.15259138311E+02  0.51100000000E-03 0. -1.
        -11    1    3    3    0    0  0.55994065741E+01 -0.13819152645E+02  0.10886682699E+02  0.18461911988E+02  0.51100000000E-03 0.  1.
        -12    1    3    3    0    0 -0.75533017011E+01 -0.75917081994E+01  0.91198855917E+01  0.14066225975E+02  0.00000000000E+00 0.  1.
</event>
<event>
 7    1  0.2328615E-009  0.4778727E+02  0.7816164E-02  0.1312668E+00
        -11   -1    0    0    0    0  0.00000000000E+00  0.00000000000E+00  0.45593999997E+02  0.45594000000E+02  0.51100000000E-03 0.  1.
         11   -1    0    0    0    0 -0.00000000000E+00 -0.00000000000E+00 -0.45593999997E+02  0.45594000000E+02  0.51100000000E-03 0. -1.
    9900012    2    1    2    0    0  0.20012496171E+02  0.16002162448E+02  0.35029334751E+02  0.47787268450E+02  0.19999988169E+02 0.  0.
         12    1    1    2    0    0 -0.20012496171E+02 -0.16002162448E+02 -0.35029334751E+02  0.43400731550E+02  0.00000000000E+00 0. -1.
         11    1    3    3    0    0  0.71528255480E+01  0.96170419044E+01  0.15714631301E+02  0.19763604062E+02  0.51100000000E-03 0. -1.
        -11    1    3    3    0    0  0.77847990859E+01  0.16944606022E+01  0.19547901242E+02  0.21109115016E+02  0.51100000000E-03 0.  1.
         12    1    3    3    0    0  0.50748715370E+01  0.46906599418E+01 -0.23319779219E+00  0.69145493719E+01  0.00000000000E+00 0. -1.
</event>
<event>
 7    1  0.2328615E-009  0.4778725E+02  0.7816164E-02  0.1312668E+00
        -11   -1    0    0    0    0  0.00000000000E+00  0.00000000000E+00  0.45593999997E+02  0.45594000000E+02  0.51100000000E-03 0.  1.
         11   -1    0    0    0    0 -0.00000000000E+00 -0.00000000000E+00 -0.45593999997E+02  0.45594000000E+02  0.51100000000E-03 0. -1.
    9900012    2    1    2    0    0  0.21887027953E+02 -0.35632754722E+02  0.11614228461E+02  0.47787245347E+02  0.19999882834E+02 0.  0.
         12    1    1    2    0    0 -0.21887027953E+02  0.35632754722E+02 -0.11614228461E+02  0.43400754653E+02  0.00000000000E+00 0. -1.
         11    1    3    3    0    0  0.25508188290E+01 -0.17237526447E+02  0.47905226304E+01  0.18071748727E+02  0.51100000000E-03 0. -1.
        -11    1    3    3    0    0  0.15773665162E+01 -0.49468771608E+01 -0.22542146001E+01  0.56604913652E+01  0.51100000000E-03 0.  1.
        -12    1    3    3    0    0  0.17758842608E+02 -0.13448351115E+02  0.90779204312E+01  0.24055005255E+02  0.00000000000E+00 0.  1.
</event>
<event>
 7    1  0.2328615E-009  0.4778727E+02  0.7816164E-02  0.1312668E+00
        -11   -1    0    0    0    0  0.00000000000E+00  0.00000000000E+00  0.45593999997E+02  0.45594000000E+02  0.51100000000E-03 0.  1.
         11   -1    0    0    0    0 -0.00000000000E+00 -0.00000000000E+00 -0.45593999997E+02  0.45594000000E+02  0.51100000000E-03 0. -1.
    9900012    2    1    2    0    0 -0.25912792581E+02  0.15444726420E+02  0.31202743751E+02  0.47787267159E+02  0.19999982286E+02 0.  0.
         12    1    1    2    0    0  0.25912792581E+02 -0.15444726420E+02 -0.31202743751E+02  0.43400732841E+02  0.00000000000E+00 0. -1.
         11    1    3    3    0    0 -0.40770669906E+01  0.53531813307E+01  0.47905405822E+01  0.82600426716E+01  0.51100000000E-03 0. -1.
        -11    1    3    3    0    0 -0.14555637764E+02  0.23378699183E+01  0.49099212980E+01  0.15538325325E+02  0.51100000000E-03 0.  1.
        -12    1    3    3    0    0 -0.72800878257E+01  0.77536751708E+01  0.21502281871E+02  0.23988899163E+02  0.00000000000E+00 0.  1.
</event>
<event>
 7    1  0.2328615E-009  0.4778727E+02  0.7816164E-02  0.1312668E+00
        -11   -1    0    0    0    0  0.00000000000E+00  0.00000000000E+00  0.45593999997E+02  0.45594000000E+02  0.51100000000E-03 0.  1.
         11   -1    0    0    0    0 -0.00000000000E+00 -0.00000000000E+00 -0.45593999997E+02  0.45594000000E+02  0.51100000000E-03 0. -1.
    9900012    2    1    2    0    0  0.68526322496E+01 -0.83619888270E+01  0.42032633325E+02  0.47787266249E+02  0.19999978135E+02 0.  0.
         12    1    1    2    0    0 -0.68526322496E+01  0.83619888270E+01 -0.42032633325E+02  0.43400733751E+02  0.00000000000E+00 0. -1.
         11    1    3    3    0    0 -0.10403211697E+01  0.17846862716E+01  0.86321041917E+01  0.88758434113E+01  0.51100000000E-03 0. -1.
        -11    1    3    3    0    0  0.61244828564E+01  0.15513538057E+01  0.20294967422E+02  0.21255627298E+02  0.51100000000E-03 0.  1.
        -12    1    3    3    0    0  0.17684705629E+01 -0.11698028904E+02  0.13105561711E+02  0.17655795540E+02  0.00000000000E+00 0.  1.
</event>
<event>
 7    1  0.2328615E-009  0.4778727E+02  0.7816164E-02  0.1312668E+00
        -11   -1    0    0    0    0  0.00000000000E+00  0.00000000000E+00  0.45593999997E+02  0.45594000000E+02  0.51100000000E-03 0.  1.
         11   -1    0    0    0    0 -0.00000000000E+00 -0.00000000000E+00 -0.45593999997E+02  0.45594000000E+02  0.51100000000E-03 0. -1.
    9900012    2    1    2    0    0  0.75400500456E+00 -0.19425519631E+02  0.38803403953E+02  0.47787268499E+02  0.19999988395E+02 0.  0.
         12    1    1    2    0    0 -0.75400500456E+00  0.19425519631E+02 -0.38803403953E+02  0.43400731501E+02  0.00000000000E+00 0. -1.
         11    1    3    3    0    0 -0.27584059575E+01 -0.85665596352E+01  0.11381716378E+02  0.14509935058E+02  0.51100000000E-03 0. -1.
        -11    1    3    3    0    0  0.60763789337E+01 -0.13534126560E+02  0.24103902850E+02  0.28303588033E+02  0.51100000000E-03 0.  1.
         12    1    3    3    0    0 -0.25639679716E+01  0.26751665641E+01  0.33177847247E+01  0.49737454081E+01  0.00000000000E+00 0. -1.
</event>
<event>
 7    1  0.2328615E-009  0.4778727E+02  0.7816164E-02  0.1312668E+00
        -11   -1    0    0    0    0  0.00000000000E+00  0.00000000000E+00  0.45593999997E+02  0.45594000000E+02  0.51100000000E-03 0.  1.
         11   -1    0    0    0    0 -0.00000000000E+00 -0.00000000000E+00 -0.45593999997E+02  0.45594000000E+02  0.51100000000E-03 0. -1.
    9900012    2    1    2    0    0 -0.69579834899E+01  0.81902552693E+01  0.42049132491E+02  0.47787270065E+02  0.19999995535E+02 0.  0.
         12    1    1    2    0    0  0.69579834899E+01 -0.81902552693E+01 -0.42049132491E+02  0.43400729935E+02  0.00000000000E+00 0. -1.
         11    1    3    3    0    0 -0.73537366446E+01  0.21870953026E+01  0.11851313890E+02  0.14117877662E+02  0.51100000000E-03 0. -1.
        -11    1    3    3    0    0 -0.42108531799E+01 -0.22405252411E+01  0.58105227837E+01  0.75175403650E+01  0.51100000000E-03 0.  1.
         12    1    3    3    0    0  0.46066063346E+01  0.82436852078E+01  0.24387295817E+02  0.26151852038E+02  0.00000000000E+00 0. -1.
</event>
<event>
 7    1  0.2328615E-009  0.4778728E+02  0.7816164E-02  0.1312668E+00
        -11   -1    0    0    0    0  0.00000000000E+00  0.00000000000E+00  0.45593999997E+02  0.45594000000E+02  0.51100000000E-03 0.  1.
         11   -1    0    0    0    0 -0.00000000000E+00 -0.00000000000E+00 -0.45593999997E+02  0.45594000000E+02  0.51100000000E-03 0. -1.
    9900012    2    1    2    0    0 -0.51254987030E+01 -0.31686114254E+02  0.29212015730E+02  0.47787280691E+02  0.20000043983E+02 0.  0.
         12    1    1    2    0    0  0.51254987030E+01  0.31686114254E+02 -0.29212015730E+02  0.43400719309E+02  0.00000000000E+00 0. -1.
         11    1    3    3    0    0  0.24963422188E+01 -0.17663371113E+02  0.19572571366E+02  0.26482295099E+02  0.51100000000E-03 0. -1.
        -11    1    3    3    0    0 -0.19466449696E+01 -0.34202370906E+00  0.56210527542E+01  0.59584092829E+01  0.51100000000E-03 0.  1.
         12    1    3    3    0    0 -0.56751959522E+01 -0.13680719433E+02  0.40183916097E+01  0.15346576309E+02  0.00000000000E+00 0. -1.
</event>
<event>
 7    1  0.2328615E-009  0.4778727E+02  0.7816164E-02  0.1312668E+00
        -11   -1    0    0    0    0  0.00000000000E+00  0.00000000000E+00  0.45593999997E+02  0.45594000000E+02  0.51100000000E-03 0.  1.
         11   -1    0    0    0    0 -0.00000000000E+00 -0.00000000000E+00 -0.45593999997E+02  0.45594000000E+02  0.51100000000E-03 0. -1.
    9900012    2    1    2    0    0  0.22637747729E+02 -0.31629374385E+02  0.19254565374E+02  0.47787271504E+02  0.20000002097E+02 0.  0.
         12    1    1    2    0    0 -0.22637747729E+02  0.31629374385E+02 -0.19254565374E+02  0.43400728496E+02  0.00000000000E+00 0. -1.
         11    1    3    3    0    0  0.69866689785E+01 -0.81031419141E+01  0.71686613832E+01  0.12878825978E+02  0.51100000000E-03 0. -1.
        -11    1    3    3    0    0  0.16137789826E+02 -0.18575344854E+02  0.15309834089E+02  0.28980385039E+02  0.51100000000E-03 0.  1.
         12    1    3    3    0    0 -0.48671107506E+00 -0.49508876169E+01 -0.32239300981E+01  0.59280604875E+01  0.00000000000E+00 0. -1.
</event>
<event>
 7    1  0.2328615E-009  0.4778727E+02  0.7816164E-02  0.1312668E+00
        -11   -1    0    0    0    0  0.00000000000E+00  0.00000000000E+00  0.45593999997E+02  0.45594000000E+02  0.51100000000E-03 0. -1.
         11   -1    0    0    0    0 -0.00000000000E+00 -0.00000000000E+00 -0.45593999997E+02  0.45594000000E+02  0.51100000000E-03 0.  1.
    9900012    2    1    2    0    0  0.28901286536E+02  0.25645416937E+02 -0.19764904869E+02  0.47787271461E+02  0.20000001897E+02 0.  0.
         12    1    1    2    0    0 -0.28901286536E+02 -0.25645416937E+02  0.19764904869E+02  0.43400728539E+02  0.00000000000E+00 0. -1.
         11    1    3    3    0    0  0.66976233737E+01  0.29892617225E+01  0.10091294397E+01  0.74035253082E+01  0.51100000000E-03 0. -1.
        -11    1    3    3    0    0  0.20182561948E+02  0.15136357142E+02 -0.10107278504E+02  0.27177236676E+02  0.51100000000E-03 0.  1.
        -12    1    3    3    0    0  0.20211012140E+01  0.75197980719E+01 -0.10666755804E+02  0.13206509476E+02  0.00000000000E+00 0.  1.
</event>
<event>
 7    1  0.2328615E-009  0.4778727E+02  0.7816164E-02  0.1312668E+00
        -11   -1    0    0    0    0  0.00000000000E+00  0.00000000000E+00  0.45593999997E+02  0.45594000000E+02  0.51100000000E-03 0. -1.
         11   -1    0    0    0    0 -0.00000000000E+00 -0.00000000000E+00 -0.45593999997E+02  0.45594000000E+02  0.51100000000E-03 0.  1.
    9900012    2    1    2    0    0  0.97881068753E+01  0.58467964798E+01 -0.41876384118E+02  0.47787267148E+02  0.19999982236E+02 0.  0.
         12    1    1    2    0    0 -0.97881068753E+01 -0.58467964798E+01  0.41876384118E+02  0.43400732852E+02  0.00000000000E+00 0. -1.
         11    1    3    3    0    0  0.21205705484E+01  0.10948742796E+01 -0.15646593887E+01  0.28537218510E+01  0.51100000000E-03 0. -1.
        -11    1    3    3    0    0  0.10514480066E+02  0.95342961775E+01 -0.26953293546E+02  0.30462060467E+02  0.51100000000E-03 0.  1.
         12    1    3    3    0    0 -0.28469437395E+01 -0.47823739773E+01 -0.13358431183E+02  0.14471484830E+02  0.00000000000E+00 0. -1.
</event>
<event>
 7    1  0.2393425E-009  0.4778728E+02  0.7816164E-02  0.1312668E+00
        -11   -1    0    0    0    0  0.00000000000E+00  0.00000000000E+00  0.45593999997E+02  0.45594000000E+02  0.51100000000E-03 0. -1.
         11   -1    0    0    0    0 -0.00000000000E+00 -0.00000000000E+00 -0.45593999997E+02  0.45594000000E+02  0.51100000000E-03 0.  1.
    9900012    2    1    2    0    0  0.84231612209E+00  0.20683883651E+02 -0.38145645717E+02  0.47787276198E+02  0.20000023499E+02 0.  0.
         12    1    1    2    0    0 -0.84231612209E+00 -0.20683883651E+02  0.38145645717E+02  0.43400723802E+02  0.00000000000E+00 0. -1.
         11    1    3    3    0    0 -0.30508331069E+01  0.78461577107E+00  0.39581357720E+00  0.31748816046E+01  0.51100000000E-03 0. -1.
        -11    1    3    3    0    0  0.28696776998E+01  0.49918580897E+01 -0.40979668926E+01  0.70673212890E+01  0.51100000000E-03 0.  1.
        -12    1    3    3    0    0  0.10234715292E+01  0.14907409790E+02 -0.34443492402E+02  0.37545073305E+02  0.00000000000E+00 0.  1.
</event>
<event>
 7    1  0.2328615E-009  0.4778726E+02  0.7816164E-02  0.1312668E+00
        -11   -1    0    0    0    0  0.00000000000E+00  0.00000000000E+00  0.45593999997E+02  0.45594000000E+02  0.51100000000E-03 0.  1.
         11   -1    0    0    0    0 -0.00000000000E+00 -0.00000000000E+00 -0.45593999997E+02  0.45594000000E+02  0.51100000000E-03 0. -1.
    9900012    2    1    2    0    0  0.10615297691E+02  0.38939268728E+02  0.15958478402E+02  0.47787260063E+02  0.19999949930E+02 0.  0.
         12    1    1    2    0    0 -0.10615297691E+02 -0.38939268728E+02 -0.15958478402E+02  0.43400739937E+02  0.00000000000E+00 0. -1.
         11    1    3    3    0    0  0.31290984571E+01  0.21486114682E+02  0.17929803723E+01  0.21786673913E+02  0.51100000000E-03 0. -1.
        -11    1    3    3    0    0  0.16452428957E+01  0.15555004026E+02  0.96706924845E+01  0.18389868619E+02  0.51100000000E-03 0.  1.
         12    1    3    3    0    0  0.58409563385E+01  0.18981500200E+01  0.44948055456E+01  0.76107175312E+01  0.00000000000E+00 0. -1.
</event>
<event>
 7    1  0.2328615E-009  0.4778725E+02  0.7816164E-02  0.1312668E+00
        -11   -1    0    0    0    0  0.00000000000E+00  0.00000000000E+00  0.45593999997E+02  0.45594000000E+02  0.51100000000E-03 0.  1.
         11   -1    0    0    0    0 -0.00000000000E+00 -0.00000000000E+00 -0.45593999997E+02  0.45594000000E+02  0.51100000000E-03 0. -1.
    9900012    2    1    2    0    0 -0.32743158016E+02  0.98856785120E+01  0.26716736907E+02  0.47787250381E+02  0.19999905789E+02 0.  0.
         12    1    1    2    0    0  0.32743158016E+02 -0.98856785120E+01 -0.26716736907E+02  0.43400749619E+02  0.00000000000E+00 0. -1.
         11    1    3    3    0    0 -0.99856591446E+01  0.75268608199E+01  0.55192818756E+01  0.13668558631E+02  0.51100000000E-03 0. -1.
        -11    1    3    3    0    0 -0.83415583164E+01  0.50428784540E+01  0.15656933725E+02  0.18443204498E+02  0.51100000000E-03 0.  1.
        -12    1    3    3    0    0 -0.14415940555E+02 -0.26840607619E+01  0.55405213069E+01  0.15675487252E+02  0.00000000000E+00 0.  1.
</event>
<event>
 7    1  0.2328615E-009  0.4778727E+02  0.7816164E-02  0.1312668E+00
        -11   -1    0    0    0    0  0.00000000000E+00  0.00000000000E+00  0.45593999997E+02  0.45594000000E+02  0.51100000000E-03 0. -1.
         11   -1    0    0    0    0 -0.00000000000E+00 -0.00000000000E+00 -0.45593999997E+02  0.45594000000E+02  0.51100000000E-03 0.  1.
    9900012    2    1    2    0    0 -0.29965442638E+02 -0.24405073727E+02  0.19750639707E+02  0.47787272530E+02  0.20000006772E+02 0.  0.
         12    1    1    2    0    0  0.29965442638E+02  0.24405073727E+02 -0.19750639707E+02  0.43400727470E+02  0.00000000000E+00 0. -1.
         11    1    3    3    0    0 -0.13819827133E+02 -0.58976526069E+01  0.11874276115E+02  0.19151197398E+02  0.51100000000E-03 0. -1.
        -11    1    3    3    0    0 -0.16416424856E+02 -0.19984320964E+02  0.66669489089E+01  0.26708056789E+02  0.51100000000E-03 0.  1.
         12    1    3    3    0    0  0.27080935063E+00  0.14768998440E+01  0.12094146827E+01  0.19280183424E+01  0.00000000000E+00 0. -1.
</event>
<event>
 7    1  0.2328615E-009  0.4778727E+02  0.7816164E-02  0.1312668E+00
        -11   -1    0    0    0    0  0.00000000000E+00  0.00000000000E+00  0.45593999997E+02  0.45594000000E+02  0.51100000000E-03 0.  1.
         11   -1    0    0    0    0 -0.00000000000E+00 -0.00000000000E+00 -0.45593999997E+02  0.45594000000E+02  0.51100000000E-03 0. -1.
    9900012    2    1    2    0    0 -0.37607061217E+02  0.54672150330E+01  0.20962866900E+02  0.47787270947E+02  0.19999999557E+02 0.  0.
         12    1    1    2    0    0  0.37607061217E+02 -0.54672150330E+01 -0.20962866900E+02  0.43400729053E+02  0.00000000000E+00 0. -1.
         11    1    3    3    0    0 -0.11345539489E+02  0.59251275409E+00  0.21099037719E+00  0.11362959775E+02  0.51100000000E-03 0. -1.
        -11    1    3    3    0    0 -0.26725022564E+02  0.23293169338E+01  0.16645850462E+02  0.31571140085E+02  0.51100000000E-03 0.  1.
        -12    1    3    3    0    0  0.46350083523E+00  0.25453853452E+01  0.41060260614E+01  0.48531710866E+01  0.00000000000E+00 0.  1.
</event>
<event>
 7    1  0.2328615E-009  0.4778727E+02  0.7816164E-02  0.1312668E+00
        -11   -1    0    0    0    0  0.00000000000E+00  0.00000000000E+00  0.45593999997E+02  0.45594000000E+02  0.51100000000E-03 0. -1.
         11   -1    0    0    0    0 -0.00000000000E+00 -0.00000000000E+00 -0.45593999997E+02  0.45594000000E+02  0.51100000000E-03 0.  1.
    9900012    2    1    2    0    0 -0.20648120164E+02 -0.96503679535E+01 -0.36934389871E+02  0.47787267021E+02  0.19999981657E+02 0.  0.
         12    1    1    2    0    0  0.20648120164E+02  0.96503679535E+01  0.36934389871E+02  0.43400732979E+02  0.00000000000E+00 0. -1.
         11    1    3    3    0    0 -0.21754801113E+01  0.25250327545E+01 -0.75076978434E+01  0.82142578055E+01  0.51100000000E-03 0. -1.
        -11    1    3    3    0    0 -0.80619202787E+00  0.19424601063E+01  0.40162999531E+00  0.21411220807E+01  0.51100000000E-03 0.  1.
        -12    1    3    3    0    0 -0.17666448025E+02 -0.14117860814E+02 -0.29828322023E+02  0.37431887135E+02  0.00000000000E+00 0.  1.
</event>
<event>
 7    1  0.2328615E-009  0.4778728E+02  0.7816164E-02  0.1312668E+00
        -11   -1    0    0    0    0  0.00000000000E+00  0.00000000000E+00  0.45593999997E+02  0.45594000000E+02  0.51100000000E-03 0.  1.
         11   -1    0    0    0    0 -0.00000000000E+00 -0.00000000000E+00 -0.45593999997E+02  0.45594000000E+02  0.51100000000E-03 0. -1.
    9900012    2    1    2    0    0  0.36298384319E+02  0.29388426780E+01  0.23609586498E+02  0.47787284856E+02  0.20000062972E+02 0.  0.
         12    1    1    2    0    0 -0.36298384319E+02 -0.29388426780E+01 -0.23609586498E+02  0.43400715144E+02  0.00000000000E+00 0. -1.
         11    1    3    3    0    0  0.10568261778E+02  0.54379568458E+01  0.20127577812E+01  0.12054489861E+02  0.51100000000E-03 0. -1.
        -11    1    3    3    0    0  0.19508282303E+02  0.33562280083E+01  0.13486090194E+02  0.23952285357E+02  0.51100000000E-03 0.  1.
         12    1    3    3    0    0  0.62218402379E+01 -0.58553421760E+01  0.81107385228E+01  0.11780509638E+02  0.00000000000E+00 0. -1.
</event>
<event>
 7    1  0.2328615E-009  0.4778727E+02  0.7816164E-02  0.1312668E+00
        -11   -1    0    0    0    0  0.00000000000E+00  0.00000000000E+00  0.45593999997E+02  0.45594000000E+02  0.51100000000E-03 0.  1.
         11   -1    0    0    0    0 -0.00000000000E+00 -0.00000000000E+00 -0.45593999997E+02  0.45594000000E+02  0.51100000000E-03 0. -1.
    9900012    2    1    2    0    0 -0.10687892995E+02 -0.35550896476E+02  0.22483903310E+02  0.47787271838E+02  0.20000003618E+02 0.  0.
         12    1    1    2    0    0  0.10687892995E+02  0.35550896476E+02 -0.22483903310E+02  0.43400728162E+02  0.00000000000E+00 0. -1.
         11    1    3    3    0    0 -0.35154426519E+01 -0.12783462511E+02  0.15013838702E+02  0.20029742975E+02  0.51100000000E-03 0. -1.
        -11    1    3    3    0    0 -0.42736586779E+01 -0.15015896307E+02  0.10642419035E+02  0.18894506703E+02  0.51100000000E-03 0.  1.
         12    1    3    3    0    0 -0.28987916652E+01 -0.77515376590E+01 -0.31723544270E+01  0.88630221600E+01  0.00000000000E+00 0. -1.
</event>
<event>
 7    1  0.2328615E-009  0.4778727E+02  0.7816164E-02  0.1312668E+00
        -11   -1    0    0    0    0  0.00000000000E+00  0.00000000000E+00  0.45593999997E+02  0.45594000000E+02  0.51100000000E-03 0.  1.
         11   -1    0    0    0    0 -0.00000000000E+00 -0.00000000000E+00 -0.45593999997E+02  0.45594000000E+02  0.51100000000E-03 0. -1.
    9900012    2    1    2    0    0 -0.18393973263E+02 -0.32365440077E+02  0.22310614992E+02  0.47787268381E+02  0.19999987854E+02 0.  0.
         12    1    1    2    0    0  0.18393973263E+02  0.32365440077E+02 -0.22310614992E+02  0.43400731619E+02  0.00000000000E+00 0. -1.
         11    1    3    3    0    0  0.13835135773E+01 -0.34850296932E+00 -0.24940748320E+00  0.14483675266E+01  0.51100000000E-03 0. -1.
        -11    1    3    3    0    0 -0.89135798123E+01 -0.32333220662E+01  0.32891164687E+01  0.10036162816E+02  0.51100000000E-03 0.  1.
         12    1    3    3    0    0 -0.10863907028E+02 -0.28783615041E+02  0.19270906007E+02  0.36302738038E+02  0.00000000000E+00 0. -1.
</event>
<event>
 7    1  0.2328615E-009  0.4778730E+02  0.7816164E-02  0.1312668E+00
        -11   -1    0    0    0    0  0.00000000000E+00  0.00000000000E+00  0.45593999997E+02  0.45594000000E+02  0.51100000000E-03 0. -1.
         11   -1    0    0    0    0 -0.00000000000E+00 -0.00000000000E+00 -0.45593999997E+02  0.45594000000E+02  0.51100000000E-03 0.  1.
    9900012    2    1    2    0    0  0.13284739791E+02  0.40678374705E+02  0.72392461440E+01  0.47787295344E+02  0.20000110789E+02 0.  0.
         12    1    1    2    0    0 -0.13284739791E+02 -0.40678374705E+02 -0.72392461440E+01  0.43400704656E+02  0.00000000000E+00 0. -1.
         11    1    3    3    0    0  0.34115480851E+01  0.23700601339E+02  0.75481686149E+01  0.25106413799E+02  0.51100000000E-03 0. -1.
        -11    1    3    3    0    0  0.95949786150E+01  0.15997904975E+02  0.32882624850E+01  0.18942260917E+02  0.51100000000E-03 0.  1.
         12    1    3    3    0    0  0.27821309063E+00  0.97986839083E+00 -0.35971849560E+01  0.37386206273E+01  0.00000000000E+00 0. -1.
</event>
<event>
 7    1  0.2328615E-009  0.4778727E+02  0.7816164E-02  0.1312668E+00
        -11   -1    0    0    0    0  0.00000000000E+00  0.00000000000E+00  0.45593999997E+02  0.45594000000E+02  0.51100000000E-03 0.  1.
         11   -1    0    0    0    0 -0.00000000000E+00 -0.00000000000E+00 -0.45593999997E+02  0.45594000000E+02  0.51100000000E-03 0. -1.
    9900012    2    1    2    0    0  0.21669077083E+02  0.33477923702E+02 -0.17126091007E+02  0.47787271087E+02  0.20000000192E+02 0.  0.
         12    1    1    2    0    0 -0.21669077083E+02 -0.33477923702E+02  0.17126091007E+02  0.43400728913E+02  0.00000000000E+00 0. -1.
         11    1    3    3    0    0  0.73424137109E+01  0.10935609021E+02  0.15169997791E+01  0.13258954422E+02  0.51100000000E-03 0. -1.
        -11    1    3    3    0    0  0.76971440195E+01  0.12345411556E+02 -0.32444837736E+01  0.14905766930E+02  0.51100000000E-03 0.  1.
        -12    1    3    3    0    0  0.66295193523E+01  0.10196903125E+02 -0.15398607013E+02  0.19622549735E+02  0.00000000000E+00 0.  1.
</event>
<event>
 7    1  0.2328615E-009  0.4778727E+02  0.7816164E-02  0.1312668E+00
        -11   -1    0    0    0    0  0.00000000000E+00  0.00000000000E+00  0.45593999997E+02  0.45594000000E+02  0.51100000000E-03 0. -1.
         11   -1    0    0    0    0 -0.00000000000E+00 -0.00000000000E+00 -0.45593999997E+02  0.45594000000E+02  0.51100000000E-03 0.  1.
    9900012    2    1    2    0    0  0.19385550467E+00  0.41956288355E+02 -0.11102047576E+02  0.47787272208E+02  0.20000005304E+02 0.  0.
         12    1    1    2    0    0 -0.19385550467E+00 -0.41956288355E+02  0.11102047576E+02  0.43400727792E+02  0.00000000000E+00 0. -1.
         11    1    3    3    0    0  0.16807855209E+01  0.26214788942E+01 -0.43718120255E+01  0.53674884450E+01  0.51100000000E-03 0. -1.
        -11    1    3    3    0    0 -0.23180174966E+01  0.26938799864E+02 -0.11130524816E+02  0.29239711458E+02  0.51100000000E-03 0.  1.
         12    1    3    3    0    0  0.83108748040E+00  0.12396009597E+02  0.44002892652E+01  0.13180072304E+02  0.00000000000E+00 0. -1.
</event>
<event>
 7    1  0.2936712E-009  0.4778727E+02  0.7816164E-02  0.1312668E+00
        -11   -1    0    0    0    0  0.00000000000E+00  0.00000000000E+00  0.45593999997E+02  0.45594000000E+02  0.51100000000E-03 0. -1.
         11   -1    0    0    0    0 -0.00000000000E+00 -0.00000000000E+00 -0.45593999997E+02  0.45594000000E+02  0.51100000000E-03 0.  1.
    9900012    2    1    2    0    0  0.19957306614E+02 -0.31703868539E+02 -0.21913331015E+02  0.47787269087E+02  0.19999991073E+02 0.  0.
         12    1    1    2    0    0 -0.19957306614E+02  0.31703868539E+02  0.21913331015E+02  0.43400730913E+02  0.00000000000E+00 0. -1.
         11    1    3    3    0    0 -0.11362974221E+01 -0.70896478867E+01 -0.69489710668E+00  0.72136787591E+01  0.51100000000E-03 0. -1.
        -11    1    3    3    0    0  0.78116245856E+01 -0.64497337853E+01 -0.75555869867E+00  0.10158317468E+02  0.51100000000E-03 0.  1.
        -12    1    3    3    0    0  0.13281979450E+02 -0.18164486867E+02 -0.20462875210E+02  0.30415272860E+02  0.00000000000E+00 0.  1.
</event>
<event>
 7    1  0.2328615E-009  0.4778727E+02  0.7816164E-02  0.1312668E+00
        -11   -1    0    0    0    0  0.00000000000E+00  0.00000000000E+00  0.45593999997E+02  0.45594000000E+02  0.51100000000E-03 0.  1.
         11   -1    0    0    0    0 -0.00000000000E+00 -0.00000000000E+00 -0.45593999997E+02  0.45594000000E+02  0.51100000000E-03 0. -1.
    9900012    2    1    2    0    0 -0.86734929879E+01  0.94410723245E+01  0.41463958616E+02  0.47787271995E+02  0.20000004334E+02 0.  0.
         12    1    1    2    0    0  0.86734929879E+01 -0.94410723245E+01 -0.41463958616E+02  0.43400728005E+02  0.00000000000E+00 0. -1.
         11    1    3    3    0    0 -0.14852724182E+01 -0.37167891470E+01  0.37881515572E+01  0.55109571039E+01  0.51100000000E-03 0. -1.
        -11    1    3    3    0    0 -0.12511002094E+01 -0.22930249675E+01  0.57139656623E+01  0.62827238589E+01  0.51100000000E-03 0.  1.
         12    1    3    3    0    0 -0.59371203604E+01  0.15450886439E+02  0.31961841397E+02  0.35993591032E+02  0.00000000000E+00 0. -1.
</event>
<event>
 7    1  0.2328615E-009  0.4778726E+02  0.7816164E-02  0.1312668E+00
        -11   -1    0    0    0    0  0.00000000000E+00  0.00000000000E+00  0.45593999997E+02  0.45594000000E+02  0.51100000000E-03 0. -1.
         11   -1    0    0    0    0 -0.00000000000E+00 -0.00000000000E+00 -0.45593999997E+02  0.45594000000E+02  0.51100000000E-03 0.  1.
    9900012    2    1    2    0    0 -0.35611682588E+02 -0.24218835690E+02 -0.53740122456E+01  0.47787263295E+02  0.19999964665E+02 0.  0.
         12    1    1    2    0    0  0.35611682588E+02  0.24218835690E+02  0.53740122456E+01  0.43400736705E+02  0.00000000000E+00 0. -1.
         11    1    3    3    0    0 -0.15765083377E+02 -0.73304669274E+01 -0.60991473679E+01  0.18424798455E+02  0.51100000000E-03 0. -1.
        -11    1    3    3    0    0 -0.20582943625E+02 -0.17244768368E+02 -0.15978156856E+01  0.26899676942E+02  0.51100000000E-03 0.  1.
         12    1    3    3    0    0  0.73634441313E+00  0.35639960535E+00  0.23229508078E+01  0.24627878977E+01  0.00000000000E+00 0. -1.
</event>
<event>
 7    1  0.2328615E-009  0.4778727E+02  0.7816164E-02  0.1312668E+00
        -11   -1    0    0    0    0  0.00000000000E+00  0.00000000000E+00  0.45593999997E+02  0.45594000000E+02  0.51100000000E-03 0.  1.
         11   -1    0    0    0    0 -0.00000000000E+00 -0.00000000000E+00 -0.45593999997E+02  0.45594000000E+02  0.51100000000E-03 0. -1.
    9900012    2    1    2    0    0 -0.27995934351E+02 -0.77060890027E+01  0.32256274447E+02  0.47787269717E+02  0.19999993947E+02 0.  0.
         12    1    1    2    0    0  0.27995934351E+02  0.77060890027E+01 -0.32256274447E+02  0.43400730283E+02  0.00000000000E+00 0. -1.
         11    1    3    3    0    0 -0.26112167367E+02 -0.83439302232E+01  0.32370738700E+02  0.42418524025E+02  0.51100000000E-03 0. -1.
        -11    1    3    3    0    0  0.52857080179E+00  0.89212988313E+00  0.19335738781E+01  0.21940809064E+01  0.51100000000E-03 0.  1.
         12    1    3    3    0    0 -0.24123377853E+01 -0.25428866269E+00 -0.20480381310E+01  0.31746647855E+01  0.00000000000E+00 0. -1.
</event>
<event>
 7    1  0.2328615E-009  0.4778726E+02  0.7816164E-02  0.1312668E+00
        -11   -1    0    0    0    0  0.00000000000E+00  0.00000000000E+00  0.45593999997E+02  0.45594000000E+02  0.51100000000E-03 0. -1.
         11   -1    0    0    0    0 -0.00000000000E+00 -0.00000000000E+00 -0.45593999997E+02  0.45594000000E+02  0.51100000000E-03 0.  1.
    9900012    2    1    2    0    0  0.22842251121E+02 -0.26953086950E+02 -0.25206874285E+02  0.47787264480E+02  0.19999970072E+02 0.  0.
         12    1    1    2    0    0 -0.22842251121E+02  0.26953086950E+02  0.25206874285E+02  0.43400735520E+02  0.00000000000E+00 0. -1.
         11    1    3    3    0    0 -0.67521104772E+00  0.12724443924E+01 -0.83643142096E+00  0.16657258099E+01  0.51100000000E-03 0. -1.
        -11    1    3    3    0    0  0.38675958302E+01 -0.74135075292E+01 -0.12712088404E+02  0.15215636143E+02  0.51100000000E-03 0.  1.
        -12    1    3    3    0    0  0.19649866338E+02 -0.20812023813E+02 -0.11658354461E+02  0.30905902528E+02  0.00000000000E+00 0.  1.
</event>
<event>
 7    1  0.2328615E-009  0.4778727E+02  0.7816164E-02  0.1312668E+00
        -11   -1    0    0    0    0  0.00000000000E+00  0.00000000000E+00  0.45593999997E+02  0.45594000000E+02  0.51100000000E-03 0.  1.
         11   -1    0    0    0    0 -0.00000000000E+00 -0.00000000000E+00 -0.45593999997E+02  0.45594000000E+02  0.51100000000E-03 0. -1.
    9900012    2    1    2    0    0  0.32726272200E+02 -0.81830900691E+01  0.27306619566E+02  0.47787270429E+02  0.19999997194E+02 0.  0.
         12    1    1    2    0    0 -0.32726272200E+02  0.81830900691E+01 -0.27306619566E+02  0.43400729571E+02  0.00000000000E+00 0. -1.
         11    1    3    3    0    0  0.10009761001E+01  0.10416680139E+00 -0.10985529830E+00  0.10123597795E+01  0.51100000000E-03 0. -1.
        -11    1    3    3    0    0  0.25472308744E+02  0.51385328909E+00  0.12547279300E+02  0.28399591125E+02  0.51100000000E-03 0.  1.
         12    1    3    3    0    0  0.62529873557E+01 -0.88011101595E+01  0.14869195564E+02  0.18375319525E+02  0.00000000000E+00 0. -1.
</event>
<event>
 7    1  0.2328615E-009  0.4778727E+02  0.7816164E-02  0.1312668E+00
        -11   -1    0    0    0    0  0.00000000000E+00  0.00000000000E+00  0.45593999997E+02  0.45594000000E+02  0.51100000000E-03 0.  1.
         11   -1    0    0    0    0 -0.00000000000E+00 -0.00000000000E+00 -0.45593999997E+02  0.45594000000E+02  0.51100000000E-03 0. -1.
    9900012    2    1    2    0    0  0.60861077822E+00 -0.11082512734E+02  0.41957487825E+02  0.47787270972E+02  0.19999999671E+02 0.  0.
         12    1    1    2    0    0 -0.60861077822E+00  0.11082512734E+02 -0.41957487825E+02  0.43400729028E+02  0.00000000000E+00 0. -1.
         11    1    3    3    0    0  0.44649839530E+01 -0.39706006978E+01  0.61745143766E+01  0.85922278631E+01  0.51100000000E-03 0. -1.
        -11    1    3    3    0    0  0.33222729090E+00 -0.37045049975E+00 -0.12372699689E+01  0.13335838116E+01  0.51100000000E-03 0.  1.
        -12    1    3    3    0    0 -0.41886004657E+01 -0.67414615361E+01  0.37020243417E+02  0.37861459298E+02  0.00000000000E+00 0.  1.
</event>
<event>
 7    1  0.2328615E-009  0.4778728E+02  0.7816164E-02  0.1312668E+00
        -11   -1    0    0    0    0  0.00000000000E+00  0.00000000000E+00  0.45593999997E+02  0.45594000000E+02  0.51100000000E-03 0. -1.
         11   -1    0    0    0    0 -0.00000000000E+00 -0.00000000000E+00 -0.45593999997E+02  0.45594000000E+02  0.51100000000E-03 0.  1.
    9900012    2    1    2    0    0  0.32670458798E+02 -0.21360361624E+02 -0.18973625167E+02  0.47787281357E+02  0.20000047018E+02 0.  0.
         12    1    1    2    0    0 -0.32670458798E+02  0.21360361624E+02  0.18973625167E+02  0.43400718643E+02  0.00000000000E+00 0. -1.
         11    1    3    3    0    0  0.14060975025E+02 -0.14595659571E+02 -0.92901307505E+01  0.22294636722E+02  0.51100000000E-03 0. -1.
        -11    1    3    3    0    0  0.40155601293E+01 -0.74547838267E+01 -0.61385415938E+01  0.10458499807E+02  0.51100000000E-03 0.  1.
        -12    1    3    3    0    0  0.14593923644E+02  0.69008177330E+00 -0.35449528225E+01  0.15034144827E+02  0.00000000000E+00 0.  1.
</event>
<event>
 7    1  0.2788172E-009  0.4778727E+02  0.7816164E-02  0.1312668E+00
        -11   -1    0    0    0    0  0.00000000000E+00  0.00000000000E+00  0.45593999997E+02  0.45594000000E+02  0.51100000000E-03 0. -1.
         11   -1    0    0    0    0 -0.00000000000E+00 -0.00000000000E+00 -0.45593999997E+02  0.45594000000E+02  0.51100000000E-03 0.  1.
    9900012    2    1    2    0    0  0.36833977352E+02 -0.18148931049E+02 -0.14053392384E+02  0.47787269323E+02  0.19999992152E+02 0.  0.
         12    1    1    2    0    0 -0.36833977352E+02  0.18148931049E+02  0.14053392384E+02  0.43400730677E+02  0.00000000000E+00 0. -1.
         11    1    3    3    0    0  0.63478980565E+01 -0.84074839434E+01 -0.63466765582E+00  0.10553880769E+02  0.51100000000E-03 0. -1.
        -11    1    3    3    0    0  0.29804287262E+01 -0.15792109151E+01 -0.70915784264E+01  0.78528559993E+01  0.51100000000E-03 0.  1.
        -12    1    3    3    0    0  0.27505650569E+02 -0.81622361904E+01 -0.63271463017E+01  0.29380532555E+02  0.00000000000E+00 0.  1.
</event>
<event>
 7    1  0.2328615E-009  0.4778727E+02  0.7816164E-02  0.1312668E+00
        -11   -1    0    0    0    0  0.00000000000E+00  0.00000000000E+00  0.45593999997E+02  0.45594000000E+02  0.51100000000E-03 0. -1.
         11   -1    0    0    0    0 -0.00000000000E+00 -0.00000000000E+00 -0.45593999997E+02  0.45594000000E+02  0.51100000000E-03 0.  1.
    9900012    2    1    2    0    0 -0.29632200483E+02  0.21612679261E+02 -0.23204483798E+02  0.47787270990E+02  0.19999999751E+02 0.  0.
         12    1    1    2    0    0  0.29632200483E+02 -0.21612679261E+02  0.23204483798E+02  0.43400729010E+02  0.00000000000E+00 0. -1.
         11    1    3    3    0    0 -0.69975022948E+00 -0.17914341900E+01  0.94373382145E+00  0.21423166497E+01  0.51100000000E-03 0. -1.
        -11    1    3    3    0    0 -0.40690981647E+01  0.84362563079E+00  0.21829075026E+00  0.41613597768E+01  0.51100000000E-03 0.  1.
        -12    1    3    3    0    0 -0.24863352089E+02  0.22560487820E+02 -0.24366508369E+02  0.41483594563E+02  0.00000000000E+00 0.  1.
</event>
<event>
 7    1  0.2328615E-009  0.4778724E+02  0.7816164E-02  0.1312668E+00
        -11   -1    0    0    0    0  0.00000000000E+00  0.00000000000E+00  0.45593999997E+02  0.45594000000E+02  0.51100000000E-03 0. -1.
         11   -1    0    0    0    0 -0.00000000000E+00 -0.00000000000E+00 -0.45593999997E+02  0.45594000000E+02  0.51100000000E-03 0.  1.
    9900012    2    1    2    0    0  0.10355543474E+01 -0.21756328682E+02 -0.37539517288E+02  0.47787244606E+02  0.19999879458E+02 0.  0.
         12    1    1    2    0    0 -0.10355543474E+01  0.21756328682E+02  0.37539517288E+02  0.43400755394E+02  0.00000000000E+00 0. -1.
         11    1    3    3    0    0  0.45940909157E+01 -0.30980628153E+01 -0.98909158272E+01  0.11337278364E+02  0.51100000000E-03 0. -1.
        -11    1    3    3    0    0  0.46906309536E+01 -0.69950495249E+01 -0.53827525480E+01  0.99953370055E+01  0.51100000000E-03 0.  1.
         12    1    3    3    0    0 -0.82491675219E+01 -0.11663216342E+02 -0.22265848913E+02  0.26454629237E+02  0.00000000000E+00 0. -1.
</event>
<event>
 7    1  0.2328615E-009  0.4778727E+02  0.7816164E-02  0.1312668E+00
        -11   -1    0    0    0    0  0.00000000000E+00  0.00000000000E+00  0.45593999997E+02  0.45594000000E+02  0.51100000000E-03 0.  1.
         11   -1    0    0    0    0 -0.00000000000E+00 -0.00000000000E+00 -0.45593999997E+02  0.45594000000E+02  0.51100000000E-03 0. -1.
    9900012    2    1    2    0    0  0.41222991099E+02  0.12521046644E+02 -0.52451467877E+01  0.47787272253E+02  0.20000005508E+02 0.  0.
         12    1    1    2    0    0 -0.41222991099E+02 -0.12521046644E+02  0.52451467877E+01  0.43400727747E+02  0.00000000000E+00 0. -1.
         11    1    3    3    0    0  0.91870861253E+01  0.51366946535E+01 -0.65345322555E+01  0.12389039329E+02  0.51100000000E-03 0. -1.
        -11    1    3    3    0    0  0.23210080014E+02  0.10360589048E+02 -0.20583947233E+01  0.25500717809E+02  0.51100000000E-03 0.  1.
        -12    1    3    3    0    0  0.88258249592E+01 -0.29762370573E+01  0.33477801910E+01  0.98975151144E+01  0.00000000000E+00 0.  1.
</event>
<event>
 7    1  0.2328615E-009  0.4778727E+02  0.7816164E-02  0.1312668E+00
        -11   -1    0    0    0    0  0.00000000000E+00  0.00000000000E+00  0.45593999997E+02  0.45594000000E+02  0.51100000000E-03 0.  1.
         11   -1    0    0    0    0 -0.00000000000E+00 -0.00000000000E+00 -0.45593999997E+02  0.45594000000E+02  0.51100000000E-03 0. -1.
    9900012    2    1    2    0    0 -0.28522866948E+02  0.31989483082E+02  0.68368217234E+01  0.47787273070E+02  0.20000009234E+02 0.  0.
         12    1    1    2    0    0  0.28522866948E+02 -0.31989483082E+02 -0.68368217234E+01  0.43400726930E+02  0.00000000000E+00 0. -1.
         11    1    3    3    0    0 -0.80981395869E+01  0.50328394700E+01 -0.36415327385E+01  0.10206375402E+02  0.51100000000E-03 0.  1.
        -11    1    3    3    0    0 -0.94734183398E+00 -0.58503633936E+00  0.27600936283E+01  0.29762125541E+01  0.51100000000E-03 0. -1.
        -12    1    3    3    0    0 -0.19477385527E+02  0.27541679952E+02  0.77182608335E+01  0.34604685114E+02  0.00000000000E+00 0.  1.
</event>
<event>
 7    1  0.2328615E-009  0.4778727E+02  0.7816164E-02  0.1312668E+00
        -11   -1    0    0    0    0  0.00000000000E+00  0.00000000000E+00  0.45593999997E+02  0.45594000000E+02  0.51100000000E-03 0.  1.
         11   -1    0    0    0    0 -0.00000000000E+00 -0.00000000000E+00 -0.45593999997E+02  0.45594000000E+02  0.51100000000E-03 0. -1.
    9900012    2    1    2    0    0 -0.66265173364E+01  0.32108257794E+00  0.42890665980E+02  0.47787273575E+02  0.20000011536E+02 0.  0.
         12    1    1    2    0    0  0.66265173364E+01 -0.32108257794E+00 -0.42890665980E+02  0.43400726425E+02  0.00000000000E+00 0. -1.
         11    1    3    3    0    0 -0.31961132530E+01  0.10863558589E+01  0.82129770662E+01  0.88796566110E+01  0.51100000000E-03 0. -1.
        -11    1    3    3    0    0 -0.10509001482E+02 -0.40293841187E+00  0.21953044066E+02  0.24342095545E+02  0.51100000000E-03 0.  1.
         12    1    3    3    0    0  0.70785973981E+01 -0.36233486910E+00  0.12724644848E+02  0.14565521418E+02  0.00000000000E+00 0. -1.
</event>
<event>
 7    1  0.2328615E-009  0.4778727E+02  0.7816164E-02  0.1312668E+00
        -11   -1    0    0    0    0  0.00000000000E+00  0.00000000000E+00  0.45593999997E+02  0.45594000000E+02  0.51100000000E-03 0. -1.
         11   -1    0    0    0    0 -0.00000000000E+00 -0.00000000000E+00 -0.45593999997E+02  0.45594000000E+02  0.51100000000E-03 0.  1.
    9900012    2    1    2    0    0  0.62309226547E+01 -0.15035309634E+02 -0.40233545096E+02  0.47787273233E+02  0.20000009977E+02 0.  0.
         12    1    1    2    0    0 -0.62309226547E+01  0.15035309634E+02  0.40233545096E+02  0.43400726767E+02  0.00000000000E+00 0. -1.
         11    1    3    3    0    0  0.44169541347E+01 -0.72017729787E+01 -0.23160729478E+02  0.24653486733E+02  0.51100000000E-03 0. -1.
        -11    1    3    3    0    0 -0.10208985340E+01 -0.24620428286E+01 -0.16846360144E+02  0.17055900418E+02  0.51100000000E-03 0.  1.
         12    1    3    3    0    0  0.28348670540E+01 -0.53714938271E+01 -0.22645547445E+00  0.60778860824E+01  0.00000000000E+00 0. -1.
</event>
<event>
 7    1  0.2328615E-009  0.4778727E+02  0.7816164E-02  0.1312668E+00
        -11   -1    0    0    0    0  0.00000000000E+00  0.00000000000E+00  0.45593999997E+02  0.45594000000E+02  0.51100000000E-03 0. -1.
         11   -1    0    0    0    0 -0.00000000000E+00 -0.00000000000E+00 -0.45593999997E+02  0.45594000000E+02  0.51100000000E-03 0.  1.
    9900012    2    1    2    0    0 -0.39904658184E+02  0.12706450857E+01 -0.17018432427E+02  0.47787270444E+02  0.19999997264E+02 0.  0.
         12    1    1    2    0    0  0.39904658184E+02 -0.12706450857E+01  0.17018432427E+02  0.43400729556E+02  0.00000000000E+00 0. -1.
         11    1    3    3    0    0 -0.12374132694E+01  0.34479838569E+00 -0.68287443568E+01  0.69485125946E+01  0.51100000000E-03 0. -1.
        -11    1    3    3    0    0 -0.10127806701E+02  0.36363695796E+01 -0.42026210545E+01  0.11552388337E+02  0.51100000000E-03 0.  1.
        -12    1    3    3    0    0 -0.28539438213E+02 -0.27105228796E+01 -0.59870670153E+01  0.29286369513E+02  0.00000000000E+00 0.  1.
</event>
<event>
 7    1  0.2328615E-009  0.4778727E+02  0.7816164E-02  0.1312668E+00
        -11   -1    0    0    0    0  0.00000000000E+00  0.00000000000E+00  0.45593999997E+02  0.45594000000E+02  0.51100000000E-03 0.  1.
         11   -1    0    0    0    0 -0.00000000000E+00 -0.00000000000E+00 -0.45593999997E+02  0.45594000000E+02  0.51100000000E-03 0. -1.
    9900012    2    1    2    0    0  0.36949119595E+02  0.21425579212E+02  0.77026181588E+01  0.47787271782E+02  0.20000003361E+02 0.  0.
         12    1    1    2    0    0 -0.36949119595E+02 -0.21425579212E+02 -0.77026181588E+01  0.43400728218E+02  0.00000000000E+00 0. -1.
         11    1    3    3    0    0  0.14848651956E+02  0.40647424878E+01  0.19817198936E+00  0.15396229045E+02  0.51100000000E-03 0. -1.
        -11    1    3    3    0    0  0.22000673584E+02  0.12410414886E+02  0.95893369477E+01  0.27018575446E+02  0.51100000000E-03 0.  1.
        -12    1    3    3    0    0  0.99794054380E-01  0.49504218378E+01 -0.20848907782E+01  0.53724672901E+01  0.00000000000E+00 0.  1.
</event>
<event>
 7    1  0.2328615E-009  0.4778727E+02  0.7816164E-02  0.1312668E+00
        -11   -1    0    0    0    0  0.00000000000E+00  0.00000000000E+00  0.45593999997E+02  0.45594000000E+02  0.51100000000E-03 0.  1.
         11   -1    0    0    0    0 -0.00000000000E+00 -0.00000000000E+00 -0.45593999997E+02  0.45594000000E+02  0.51100000000E-03 0. -1.
    9900012    2    1    2    0    0 -0.37426767055E+02  0.21100288078E+02  0.61350291156E+01  0.47787266926E+02  0.19999981221E+02 0.  0.
         12    1    1    2    0    0  0.37426767055E+02 -0.21100288078E+02 -0.61350291156E+01  0.43400733074E+02  0.00000000000E+00 0. -1.
         11    1    3    3    0    0 -0.82627089669E+01  0.83630544835E+01 -0.41276526677E+01  0.12459958129E+02  0.51100000000E-03 0. -1.
        -11    1    3    3    0    0 -0.28246405519E+02  0.13289846912E+02  0.71355536565E+01  0.32021798543E+02  0.51100000000E-03 0.  1.
         12    1    3    3    0    0 -0.91765256840E+00 -0.55261331733E+00  0.31271281269E+01  0.33055102536E+01  0.00000000000E+00 0. -1.
</event>
<event>
 7    1  0.2328615E-009  0.4778727E+02  0.7816164E-02  0.1312668E+00
        -11   -1    0    0    0    0  0.00000000000E+00  0.00000000000E+00  0.45593999997E+02  0.45594000000E+02  0.51100000000E-03 0. -1.
         11   -1    0    0    0    0 -0.00000000000E+00 -0.00000000000E+00 -0.45593999997E+02  0.45594000000E+02  0.51100000000E-03 0.  1.
    9900012    2    1    2    0    0 -0.58287127798E+01  0.22603943916E+02 -0.36588402465E+02  0.47787269958E+02  0.19999995048E+02 0.  0.
         12    1    1    2    0    0  0.58287127798E+01 -0.22603943916E+02  0.36588402465E+02  0.43400730042E+02  0.00000000000E+00 0. -1.
         11    1    3    3    0    0 -0.21334023629E+01  0.18544971383E+02 -0.21384128405E+02  0.28385706211E+02  0.51100000000E-03 0. -1.
        -11    1    3    3    0    0  0.34728991370E+01  0.30877257131E+01 -0.75852164948E+01  0.88955375345E+01  0.51100000000E-03 0.  1.
        -12    1    3    3    0    0 -0.71682095538E+01  0.97124682030E+00 -0.76190575653E+01  0.10506026212E+02  0.00000000000E+00 0.  1.
</event>
<event>
 7    1  0.2328615E-009  0.4778727E+02  0.7816164E-02  0.1312668E+00
        -11   -1    0    0    0    0  0.00000000000E+00  0.00000000000E+00  0.45593999997E+02  0.45594000000E+02  0.51100000000E-03 0. -1.
         11   -1    0    0    0    0 -0.00000000000E+00 -0.00000000000E+00 -0.45593999997E+02  0.45594000000E+02  0.51100000000E-03 0.  1.
    9900012    2    1    2    0    0  0.30655827835E+02  0.19923931951E+02  0.23385479664E+02  0.47787268396E+02  0.19999987927E+02 0.  0.
         12    1    1    2    0    0 -0.30655827835E+02 -0.19923931951E+02 -0.23385479664E+02  0.43400731604E+02  0.00000000000E+00 0. -1.
         11    1    3    3    0    0  0.11220509136E+02  0.53216053673E+00  0.52486707193E+01  0.12398853362E+02  0.51100000000E-03 0. -1.
        -11    1    3    3    0    0  0.80014428114E+01  0.72588317294E+01  0.68328839139E-01  0.10803628753E+02  0.51100000000E-03 0.  1.
        -12    1    3    3    0    0  0.11433875888E+02  0.12132939685E+02  0.18068480106E+02  0.24584786282E+02  0.00000000000E+00 0.  1.
</event>
<event>
 7    1  0.2328615E-009  0.4778727E+02  0.7816164E-02  0.1312668E+00
        -11   -1    0    0    0    0  0.00000000000E+00  0.00000000000E+00  0.45593999997E+02  0.45594000000E+02  0.51100000000E-03 0. -1.
         11   -1    0    0    0    0 -0.00000000000E+00 -0.00000000000E+00 -0.45593999997E+02  0.45594000000E+02  0.51100000000E-03 0.  1.
    9900012    2    1    2    0    0  0.35253557226E+02 -0.80049053029E+01 -0.24015236469E+02  0.47787269722E+02  0.19999993969E+02 0.  0.
         12    1    1    2    0    0 -0.35253557226E+02  0.80049053029E+01  0.24015236469E+02  0.43400730278E+02  0.00000000000E+00 0. -1.
         11    1    3    3    0    0  0.58570401603E+01 -0.32590846305E+01  0.41366722684E+00  0.67154800948E+01  0.51100000000E-03 0. -1.
        -11    1    3    3    0    0  0.22766055022E+02  0.17777005039E+01 -0.12791851453E+02  0.26174127381E+02  0.51100000000E-03 0.  1.
         12    1    3    3    0    0  0.66304620444E+01 -0.65235211762E+01 -0.11637052244E+02  0.14897662245E+02  0.00000000000E+00 0. -1.
</event>
<event>
 7    1  0.2328615E-009  0.4778727E+02  0.7816164E-02  0.1312668E+00
        -11   -1    0    0    0    0  0.00000000000E+00  0.00000000000E+00  0.45593999997E+02  0.45594000000E+02  0.51100000000E-03 0. -1.
         11   -1    0    0    0    0 -0.00000000000E+00 -0.00000000000E+00 -0.45593999997E+02  0.45594000000E+02  0.51100000000E-03 0.  1.
    9900012    2    1    2    0    0 -0.43249582482E+02 -0.34061810222E+01  0.12226017452E+01  0.47787271791E+02  0.20000003403E+02 0.  0.
         12    1    1    2    0    0  0.43249582482E+02  0.34061810222E+01 -0.12226017452E+01  0.43400728209E+02  0.00000000000E+00 0. -1.
         11    1    3    3    0    0 -0.75558759949E+00 -0.35802543490E+01  0.14025740743E+00  0.36618036848E+01  0.51100000000E-03 0. -1.
        -11    1    3    3    0    0 -0.41612849634E+02 -0.19618768569E+01  0.18234549994E+01  0.41698959266E+02  0.51100000000E-03 0.  1.
         12    1    3    3    0    0 -0.88114524867E+00  0.21359501838E+01 -0.74111066163E+00  0.24265088398E+01  0.00000000000E+00 0. -1.
</event>
<event>
 7    1  0.2328615E-009  0.4778727E+02  0.7816164E-02  0.1312668E+00
        -11   -1    0    0    0    0  0.00000000000E+00  0.00000000000E+00  0.45593999997E+02  0.45594000000E+02  0.51100000000E-03 0. -1.
         11   -1    0    0    0    0 -0.00000000000E+00 -0.00000000000E+00 -0.45593999997E+02  0.45594000000E+02  0.51100000000E-03 0.  1.
    9900012    2    1    2    0    0  0.38108852604E+02  0.15755712285E+02 -0.13531301050E+02  0.47787271614E+02  0.20000002595E+02 0.  0.
         12    1    1    2    0    0 -0.38108852604E+02 -0.15755712285E+02  0.13531301050E+02  0.43400728386E+02  0.00000000000E+00 0. -1.
         11    1    3    3    0    0  0.23502354481E+02  0.97937597896E+01 -0.13843758421E+02  0.28981512115E+02  0.51100000000E-03 0. -1.
        -11    1    3    3    0    0  0.13572802292E+02  0.70609016309E+01 -0.26064324593E+01  0.15520012381E+02  0.51100000000E-03 0.  1.
         12    1    3    3    0    0  0.10336958305E+01 -0.10989491358E+01  0.29188898310E+01  0.32857471172E+01  0.00000000000E+00 0. -1.
</event>
<event>
 7    1  0.2328615E-009  0.4778727E+02  0.7816164E-02  0.1312668E+00
        -11   -1    0    0    0    0  0.00000000000E+00  0.00000000000E+00  0.45593999997E+02  0.45594000000E+02  0.51100000000E-03 0.  1.
         11   -1    0    0    0    0 -0.00000000000E+00 -0.00000000000E+00 -0.45593999997E+02  0.45594000000E+02  0.51100000000E-03 0. -1.
    9900012    2    1    2    0    0 -0.15793035674E+02  0.35879170003E+02  0.18624942526E+02  0.47787270743E+02  0.19999998627E+02 0.  0.
         12    1    1    2    0    0  0.15793035674E+02 -0.35879170003E+02 -0.18624942526E+02  0.43400729257E+02  0.00000000000E+00 0. -1.
         11    1    3    3    0    0 -0.10721141021E+01  0.17541612861E+01  0.36353146247E+01  0.41763648245E+01  0.51100000000E-03 0. -1.
        -11    1    3    3    0    0  0.32388814255E+01  0.14152280803E+01  0.45310501842E+00  0.35634993793E+01  0.51100000000E-03 0.  1.
         12    1    3    3    0    0 -0.17959802998E+02  0.32709780637E+02  0.14536522883E+02  0.40047406540E+02  0.00000000000E+00 0. -1.
</event>
<event>
 7    1  0.2328615E-009  0.4778727E+02  0.7816164E-02  0.1312668E+00
        -11   -1    0    0    0    0  0.00000000000E+00  0.00000000000E+00  0.45593999997E+02  0.45594000000E+02  0.51100000000E-03 0. -1.
         11   -1    0    0    0    0 -0.00000000000E+00 -0.00000000000E+00 -0.45593999997E+02  0.45594000000E+02  0.51100000000E-03 0.  1.
    9900012    2    1    2    0    0 -0.30887893722E+02 -0.87773847804E+01 -0.29197925493E+02  0.47787270568E+02  0.19999997827E+02 0.  0.
         12    1    1    2    0    0  0.30887893722E+02  0.87773847804E+01  0.29197925493E+02  0.43400729432E+02  0.00000000000E+00 0. -1.
         11    1    3    3    0    0 -0.21269442145E+02 -0.54706333466E+01 -0.16212762724E+02  0.27297814451E+02  0.51100000000E-03 0. -1.
        -11    1    3    3    0    0 -0.11483040895E+02 -0.54587004727E+01 -0.89409765799E+01  0.15543445612E+02  0.51100000000E-03 0.  1.
        -12    1    3    3    0    0  0.18645893175E+01  0.21519490389E+01 -0.40441861884E+01  0.49460105049E+01  0.00000000000E+00 0.  1.
</event>
<event>
 7    1  0.2328615E-009  0.4778728E+02  0.7816164E-02  0.1312668E+00
        -11   -1    0    0    0    0  0.00000000000E+00  0.00000000000E+00  0.45593999997E+02  0.45594000000E+02  0.51100000000E-03 0.  1.
         11   -1    0    0    0    0 -0.00000000000E+00 -0.00000000000E+00 -0.45593999997E+02  0.45594000000E+02  0.51100000000E-03 0. -1.
    9900012    2    1    2    0    0  0.70597012672E+01  0.24234533968E+02  0.35305394219E+02  0.47787275587E+02  0.20000020710E+02 0.  0.
         12    1    1    2    0    0 -0.70597012672E+01 -0.24234533968E+02 -0.35305394219E+02  0.43400724413E+02  0.00000000000E+00 0. -1.
         11    1    3    3    0    0  0.63738808775E+01 -0.28783213648E+00  0.69836495970E+01  0.94594168284E+01  0.51100000000E-03 0. -1.
        -11    1    3    3    0    0  0.29691011219E+00  0.15034749781E+01  0.62479036238E+01  0.64331090911E+01  0.51100000000E-03 0.  1.
        -12    1    3    3    0    0  0.38891027754E+00  0.23018891127E+02  0.22073840998E+02  0.31894749667E+02  0.00000000000E+00 0.  1.
</event>
<event>
 7    1  0.2328615E-009  0.4778728E+02  0.7816164E-02  0.1312668E+00
        -11   -1    0    0    0    0  0.00000000000E+00  0.00000000000E+00  0.45593999997E+02  0.45594000000E+02  0.51100000000E-03 0.  1.
         11   -1    0    0    0    0 -0.00000000000E+00 -0.00000000000E+00 -0.45593999997E+02  0.45594000000E+02  0.51100000000E-03 0. -1.
    9900012    2    1    2    0    0  0.43373548705E+02  0.14509799356E+01  0.50223020536E+00  0.47787282204E+02  0.20000050879E+02 0.  0.
         12    1    1    2    0    0 -0.43373548705E+02 -0.14509799356E+01 -0.50223020536E+00  0.43400717796E+02  0.00000000000E+00 0. -1.
         11    1    3    3    0    0  0.31773995260E+02  0.58190519369E+00 -0.17083977973E+01  0.31825210318E+02  0.51100000000E-03 0. -1.
        -11    1    3    3    0    0  0.74786766592E+01  0.21517953662E+01 -0.37214270112E+01  0.86261142545E+01  0.51100000000E-03 0.  1.
        -12    1    3    3    0    0  0.41208767857E+01 -0.12827206244E+01  0.59320550138E+01  0.73359576315E+01  0.00000000000E+00 0.  1.
</event>
<event>
 7    1  0.2328615E-009  0.4778732E+02  0.7816164E-02  0.1312668E+00
        -11   -1    0    0    0    0  0.00000000000E+00  0.00000000000E+00  0.45593999997E+02  0.45594000000E+02  0.51100000000E-03 0. -1.
         11   -1    0    0    0    0 -0.00000000000E+00 -0.00000000000E+00 -0.45593999997E+02  0.45594000000E+02  0.51100000000E-03 0.  1.
    9900012    2    1    2    0    0 -0.31081792345E+02 -0.29919440243E+02 -0.47295107889E+01  0.47787320372E+02  0.20000224902E+02 0.  0.
         12    1    1    2    0    0  0.31081792345E+02  0.29919440243E+02  0.47295107889E+01  0.43400679628E+02  0.00000000000E+00 0. -1.
         11    1    3    3    0    0 -0.41587453359E+01 -0.10820986166E+00 -0.32413774039E+01  0.52738410934E+01  0.51100000000E-03 0. -1.
        -11    1    3    3    0    0 -0.22217890428E+02 -0.16950815062E+02 -0.49685662892E+01  0.28383999675E+02  0.51100000000E-03 0.  1.
         12    1    3    3    0    0 -0.47051565817E+01 -0.12860415320E+02  0.34804329042E+01  0.14129479603E+02  0.00000000000E+00 0. -1.
</event>
<event>
 7    1  0.2328615E-009  0.4778727E+02  0.7816164E-02  0.1312668E+00
        -11   -1    0    0    0    0  0.00000000000E+00  0.00000000000E+00  0.45593999997E+02  0.45594000000E+02  0.51100000000E-03 0.  1.
         11   -1    0    0    0    0 -0.00000000000E+00 -0.00000000000E+00 -0.45593999997E+02  0.45594000000E+02  0.51100000000E-03 0. -1.
    9900012    2    1    2    0    0 -0.14049651952E+02 -0.36103168263E+02  0.19565063344E+02  0.47787272100E+02  0.20000004812E+02 0.  0.
         12    1    1    2    0    0  0.14049651952E+02  0.36103168263E+02 -0.19565063344E+02  0.43400727900E+02  0.00000000000E+00 0. -1.
         11    1    3    3    0    0 -0.51381354602E+01 -0.18940741793E+01 -0.63928843623E+00  0.55133150618E+01  0.51100000000E-03 0. -1.
        -11    1    3    3    0    0 -0.43768150081E+01 -0.37926026745E+01  0.64272421802E+00  0.58269579836E+01  0.51100000000E-03 0.  1.
        -12    1    3    3    0    0 -0.45347014841E+01 -0.30416491409E+02  0.19561627563E+02  0.36446999055E+02  0.00000000000E+00 0.  1.
</event>
<event>
 7    1  0.2328615E-009  0.4778727E+02  0.7816164E-02  0.1312668E+00
        -11   -1    0    0    0    0  0.00000000000E+00  0.00000000000E+00  0.45593999997E+02  0.45594000000E+02  0.51100000000E-03 0.  1.
         11   -1    0    0    0    0 -0.00000000000E+00 -0.00000000000E+00 -0.45593999997E+02  0.45594000000E+02  0.51100000000E-03 0. -1.
    9900012    2    1    2    0    0 -0.34502562525E+02 -0.81290681568E+01  0.25042268726E+02  0.47787265066E+02  0.19999972741E+02 0.  0.
         12    1    1    2    0    0  0.34502562525E+02  0.81290681568E+01 -0.25042268726E+02  0.43400734934E+02  0.00000000000E+00 0. -1.
         11    1    3    3    0    0 -0.23322415110E+02 -0.34678012915E+01  0.97036540417E+01  0.25497482118E+02  0.51100000000E-03 0. -1.
        -11    1    3    3    0    0 -0.42139624374E+01 -0.58227291723E+01  0.24511061351E+01  0.75940487215E+01  0.51100000000E-03 0.  1.
         12    1    3    3    0    0 -0.69661849779E+01  0.11614623070E+01  0.12887508549E+02  0.14695734226E+02  0.00000000000E+00 0. -1.
</event>
<event>
 7    1  0.2328615E-009  0.4778727E+02  0.7816164E-02  0.1312668E+00
        -11   -1    0    0    0    0  0.00000000000E+00  0.00000000000E+00  0.45593999997E+02  0.45594000000E+02  0.51100000000E-03 0.  1.
         11   -1    0    0    0    0 -0.00000000000E+00 -0.00000000000E+00 -0.45593999997E+02  0.45594000000E+02  0.51100000000E-03 0. -1.
    9900012    2    1    2    0    0 -0.12897322509E+02  0.17125866398E+01  0.41404702545E+02  0.47787271046E+02  0.20000000008E+02 0.  0.
         12    1    1    2    0    0  0.12897322509E+02 -0.17125866398E+01 -0.41404702545E+02  0.43400728954E+02  0.00000000000E+00 0. -1.
         11    1    3    3    0    0 -0.20083624143E+01 -0.10959282882E+01  0.19039288851E+01  0.29764952311E+01  0.51100000000E-03 0. -1.
        -11    1    3    3    0    0 -0.77549436662E+01  0.11040725906E+00  0.39908644340E+02  0.40655273143E+02  0.51100000000E-03 0.  1.
        -12    1    3    3    0    0 -0.31340164282E+01  0.26981076690E+01 -0.40787068021E+00  0.41555026720E+01  0.00000000000E+00 0.  1.
</event>
<event>
 7    1  0.2328615E-009  0.4778727E+02  0.7816164E-02  0.1312668E+00
        -11   -1    0    0    0    0  0.00000000000E+00  0.00000000000E+00  0.45593999997E+02  0.45594000000E+02  0.51100000000E-03 0.  1.
         11   -1    0    0    0    0 -0.00000000000E+00 -0.00000000000E+00 -0.45593999997E+02  0.45594000000E+02  0.51100000000E-03 0. -1.
    9900012    2    1    2    0    0  0.20821568885E+02  0.23967636572E+02  0.29591180763E+02  0.47787270598E+02  0.19999997966E+02 0.  0.
         12    1    1    2    0    0 -0.20821568885E+02 -0.23967636572E+02 -0.29591180763E+02  0.43400729402E+02  0.00000000000E+00 0. -1.
         11    1    3    3    0    0  0.87554106613E+01  0.15308177122E+02  0.11492691704E+02  0.21049452856E+02  0.51100000000E-03 0. -1.
        -11    1    3    3    0    0  0.65418007958E+01  0.72215166349E+01  0.24022088529E+01  0.10035739524E+02  0.51100000000E-03 0.  1.
        -12    1    3    3    0    0  0.55243574275E+01  0.14379428146E+01  0.15696280206E+02  0.16702078219E+02  0.00000000000E+00 0.  1.
</event>
<event>
 7    1  0.2328615E-009  0.4778727E+02  0.7816164E-02  0.1312668E+00
        -11   -1    0    0    0    0  0.00000000000E+00  0.00000000000E+00  0.45593999997E+02  0.45594000000E+02  0.51100000000E-03 0.  1.
         11   -1    0    0    0    0 -0.00000000000E+00 -0.00000000000E+00 -0.45593999997E+02  0.45594000000E+02  0.51100000000E-03 0. -1.
    9900012    2    1    2    0    0 -0.20337404559E+02  0.61417299144E+01  0.37845639133E+02  0.47787271067E+02  0.20000000103E+02 0.  0.
         12    1    1    2    0    0  0.20337404559E+02 -0.61417299144E+01 -0.37845639133E+02  0.43400728933E+02  0.00000000000E+00 0. -1.
         11    1    3    3    0    0 -0.12225853031E+02  0.21402712722E+01  0.18462319583E+02  0.22246561264E+02  0.51100000000E-03 0. -1.
        -11    1    3    3    0    0 -0.62551591932E+01  0.87791674678E+01  0.16352998589E+02  0.19586254391E+02  0.51100000000E-03 0.  1.
         12    1    3    3    0    0 -0.18563923346E+01 -0.47777088256E+01  0.30303209616E+01  0.59544554119E+01  0.00000000000E+00 0. -1.
</event>
<event>
 7    1  0.2328615E-009  0.4778726E+02  0.7816164E-02  0.1312668E+00
        -11   -1    0    0    0    0  0.00000000000E+00  0.00000000000E+00  0.45593999997E+02  0.45594000000E+02  0.51100000000E-03 0. -1.
         11   -1    0    0    0    0 -0.00000000000E+00 -0.00000000000E+00 -0.45593999997E+02  0.45594000000E+02  0.51100000000E-03 0.  1.
    9900012    2    1    2    0    0  0.40379212012E+02 -0.15639952240E+02 -0.29215982521E+01  0.47787255708E+02  0.19999930073E+02 0.  0.
         12    1    1    2    0    0 -0.40379212012E+02  0.15639952240E+02  0.29215982521E+01  0.43400744292E+02  0.00000000000E+00 0. -1.
         11    1    3    3    0    0  0.38187584801E+01 -0.61942772390E+01  0.47982475377E+01  0.87163734739E+01  0.51100000000E-03 0. -1.
        -11    1    3    3    0    0  0.26604224796E+01  0.54126026391E+00 -0.17490420305E+01  0.32295446628E+01  0.51100000000E-03 0.  1.
         12    1    3    3    0    0  0.33900031052E+02 -0.99869352649E+01 -0.59708037594E+01  0.35841337571E+02  0.00000000000E+00 0. -1.
</event>
<event>
 7    1  0.2328615E-009  0.4778727E+02  0.7816164E-02  0.1312668E+00
        -11   -1    0    0    0    0  0.00000000000E+00  0.00000000000E+00  0.45593999997E+02  0.45594000000E+02  0.51100000000E-03 0.  1.
         11   -1    0    0    0    0 -0.00000000000E+00 -0.00000000000E+00 -0.45593999997E+02  0.45594000000E+02  0.51100000000E-03 0. -1.
    9900012    2    1    2    0    0 -0.30536537192E+02 -0.20380449091E+01  0.30773196086E+02  0.47787270420E+02  0.19999997152E+02 0.  0.
         12    1    1    2    0    0  0.30536537192E+02  0.20380449091E+01 -0.30773196086E+02  0.43400729580E+02  0.00000000000E+00 0. -1.
         11    1    3    3    0    0  0.12688694386E+01  0.12842040286E+01  0.32564637494E+00  0.18344632626E+01  0.51100000000E-03 0. -1.
        -11    1    3    3    0    0 -0.63817684029E+00 -0.30798780685E+01  0.39059134630E+01  0.50148857253E+01  0.51100000000E-03 0.  1.
        -12    1    3    3    0    0 -0.31167229791E+02 -0.24237086922E+00  0.26541636248E+02  0.40937921432E+02  0.00000000000E+00 0.  1.
</event>
<event>
 7    1  0.2328615E-009  0.4778727E+02  0.7816164E-02  0.1312668E+00
        -11   -1    0    0    0    0  0.00000000000E+00  0.00000000000E+00  0.45593999997E+02  0.45594000000E+02  0.51100000000E-03 0. -1.
         11   -1    0    0    0    0 -0.00000000000E+00 -0.00000000000E+00 -0.45593999997E+02  0.45594000000E+02  0.51100000000E-03 0.  1.
    9900012    2    1    2    0    0  0.25698772573E+02  0.24097599332E+02 -0.25347626182E+02  0.47787270071E+02  0.19999995564E+02 0.  0.
         12    1    1    2    0    0 -0.25698772573E+02 -0.24097599332E+02  0.25347626182E+02  0.43400729929E+02  0.00000000000E+00 0. -1.
         11    1    3    3    0    0  0.52181386867E+01  0.15230036612E+02 -0.14475296269E+02  0.21649877341E+02  0.51100000000E-03 0. -1.
        -11    1    3    3    0    0  0.10123662221E+02  0.87173805733E+01 -0.69704012238E+01  0.15068767511E+02  0.51100000000E-03 0.  1.
        -12    1    3    3    0    0  0.10356971665E+02  0.15018214603E+00 -0.39019286889E+01  0.11068625219E+02  0.00000000000E+00 0.  1.
</event>
<event>
 7    1  0.2328615E-009  0.4778727E+02  0.7816164E-02  0.1312668E+00
        -11   -1    0    0    0    0  0.00000000000E+00  0.00000000000E+00  0.45593999997E+02  0.45594000000E+02  0.51100000000E-03 0.  1.
         11   -1    0    0    0    0 -0.00000000000E+00 -0.00000000000E+00 -0.45593999997E+02  0.45594000000E+02  0.51100000000E-03 0. -1.
    9900012    2    1    2    0    0 -0.42299730940E+02 -0.21644312100E+01  0.94695015674E+01  0.47787268900E+02  0.19999990224E+02 0.  0.
         12    1    1    2    0    0  0.42299730940E+02  0.21644312100E+01 -0.94695015674E+01  0.43400731100E+02  0.00000000000E+00 0. -1.
         11    1    3    3    0    0 -0.72685047454E+01  0.28143304411E+01 -0.18172897260E+01  0.80033842389E+01  0.51100000000E-03 0.  1.
        -11    1    3    3    0    0 -0.34446820625E+01 -0.33355631343E+01 -0.23503042627E+01  0.53400137006E+01  0.51100000000E-03 0. -1.
        -12    1    3    3    0    0 -0.31586544132E+02 -0.16431985168E+01  0.13637095556E+02  0.34443870961E+02  0.00000000000E+00 0.  1.
</event>
<event>
 7    1  0.2328615E-009  0.4778727E+02  0.7816164E-02  0.1312668E+00
        -11   -1    0    0    0    0  0.00000000000E+00  0.00000000000E+00  0.45593999997E+02  0.45594000000E+02  0.51100000000E-03 0.  1.
         11   -1    0    0    0    0 -0.00000000000E+00 -0.00000000000E+00 -0.45593999997E+02  0.45594000000E+02  0.51100000000E-03 0. -1.
    9900012    2    1    2    0    0 -0.27177243935E+01 -0.16000807250E+02  0.40251850691E+02  0.47787270253E+02  0.19999996391E+02 0.  0.
         12    1    1    2    0    0  0.27177243935E+01  0.16000807250E+02 -0.40251850691E+02  0.43400729747E+02  0.00000000000E+00 0. -1.
         11    1    3    3    0    0 -0.34421099143E+01 -0.79139073096E+01  0.11330522507E+02  0.14242850491E+02  0.51100000000E-03 0. -1.
        -11    1    3    3    0    0 -0.30079893830E+01 -0.17619708815E+01  0.24955823992E+02  0.25198128758E+02  0.51100000000E-03 0.  1.
         12    1    3    3    0    0  0.37323749038E+01 -0.63249290590E+01  0.39655041918E+01  0.83462910037E+01  0.00000000000E+00 0. -1.
</event>
<event>
 7    1  0.2328615E-009  0.4778727E+02  0.7816164E-02  0.1312668E+00
        -11   -1    0    0    0    0  0.00000000000E+00  0.00000000000E+00  0.45593999997E+02  0.45594000000E+02  0.51100000000E-03 0.  1.
         11   -1    0    0    0    0 -0.00000000000E+00 -0.00000000000E+00 -0.45593999997E+02  0.45594000000E+02  0.51100000000E-03 0. -1.
    9900012    2    1    2    0    0  0.89066444296E+01 -0.13719824647E+02  0.40200268120E+02  0.47787268898E+02  0.19999990211E+02 0.  0.
         12    1    1    2    0    0 -0.89066444296E+01  0.13719824647E+02 -0.40200268120E+02  0.43400731102E+02  0.00000000000E+00 0. -1.
         11    1    3    3    0    0  0.25038067913E+01  0.27402515049E+01  0.31427777884E+01  0.48636487586E+01  0.51100000000E-03 0. -1.
        -11    1    3    3    0    0 -0.31685947696E+01 -0.77291174137E+00  0.49127206618E+01  0.58967965825E+01  0.51100000000E-03 0.  1.
        -12    1    3    3    0    0  0.95714324079E+01 -0.15687164410E+02  0.32144769670E+02  0.37026823556E+02  0.00000000000E+00 0.  1.
</event>
<event>
 7    1  0.2328615E-009  0.4778727E+02  0.7816164E-02  0.1312668E+00
        -11   -1    0    0    0    0  0.00000000000E+00  0.00000000000E+00  0.45593999997E+02  0.45594000000E+02  0.51100000000E-03 0. -1.
         11   -1    0    0    0    0 -0.00000000000E+00 -0.00000000000E+00 -0.45593999997E+02  0.45594000000E+02  0.51100000000E-03 0.  1.
    9900012    2    1    2    0    0 -0.11622834927E+02 -0.16995488187E+02 -0.38205843138E+02  0.47787270048E+02  0.19999995457E+02 0.  0.
         12    1    1    2    0    0  0.11622834927E+02  0.16995488187E+02  0.38205843138E+02  0.43400729952E+02  0.00000000000E+00 0. -1.
         11    1    3    3    0    0 -0.73755277653E+00 -0.48491830564E+01 -0.20258756733E+02  0.20844082735E+02  0.51100000000E-03 0. -1.
        -11    1    3    3    0    0 -0.82396981056E+01 -0.96244284118E+01 -0.19265033449E+02  0.23057835137E+02  0.51100000000E-03 0.  1.
         12    1    3    3    0    0 -0.26455840446E+01 -0.25218767193E+01  0.13179470445E+01  0.38853521767E+01  0.00000000000E+00 0. -1.
</event>
<event>
 7    1  0.2328615E-009  0.4778727E+02  0.7816164E-02  0.1312668E+00
        -11   -1    0    0    0    0  0.00000000000E+00  0.00000000000E+00  0.45593999997E+02  0.45594000000E+02  0.51100000000E-03 0.  1.
         11   -1    0    0    0    0 -0.00000000000E+00 -0.00000000000E+00 -0.45593999997E+02  0.45594000000E+02  0.51100000000E-03 0. -1.
    9900012    2    1    2    0    0  0.20951765158E+02 -0.37979315382E+02 -0.14894503637E+01  0.47787270484E+02  0.19999997443E+02 0.  0.
         12    1    1    2    0    0 -0.20951765158E+02  0.37979315382E+02  0.14894503637E+01  0.43400729516E+02  0.00000000000E+00 0. -1.
         11    1    3    3    0    0  0.14053260768E+01 -0.48690080892E+01  0.99948485197E+00  0.51653800814E+01  0.51100000000E-03 0.  1.
        -11    1    3    3    0    0  0.12123633322E+02 -0.67099176874E+01  0.40357497062E+01  0.14432351030E+02  0.51100000000E-03 0. -1.
         12    1    3    3    0    0  0.74228057590E+01 -0.26400389606E+02 -0.65246849219E+01  0.28189539372E+02  0.00000000000E+00 0. -1.
</event>
<event>
 7    1  0.2328615E-009  0.4778727E+02  0.7816164E-02  0.1312668E+00
        -11   -1    0    0    0    0  0.00000000000E+00  0.00000000000E+00  0.45593999997E+02  0.45594000000E+02  0.51100000000E-03 0.  1.
         11   -1    0    0    0    0 -0.00000000000E+00 -0.00000000000E+00 -0.45593999997E+02  0.45594000000E+02  0.51100000000E-03 0. -1.
    9900012    2    1    2    0    0  0.26702638084E+02 -0.21319634776E+02  0.26759402106E+02  0.47787270643E+02  0.19999998171E+02 0.  0.
         12    1    1    2    0    0 -0.26702638084E+02  0.21319634776E+02 -0.26759402106E+02  0.43400729357E+02  0.00000000000E+00 0. -1.
         11    1    3    3    0    0 -0.20977597415E+01 -0.39994164200E+01  0.63966393976E+01  0.78302569229E+01  0.51100000000E-03 0. -1.
        -11    1    3    3    0    0  0.55578552579E+01 -0.56311435415E+01  0.21488607318E+01  0.81986056960E+01  0.51100000000E-03 0.  1.
        -12    1    3    3    0    0  0.23242542568E+02 -0.11689074814E+02  0.18213901977E+02  0.31758408024E+02  0.00000000000E+00 0.  1.
</event>
<event>
 7    1  0.2328615E-009  0.4778727E+02  0.7816164E-02  0.1312668E+00
        -11   -1    0    0    0    0  0.00000000000E+00  0.00000000000E+00  0.45593999997E+02  0.45594000000E+02  0.51100000000E-03 0.  1.
         11   -1    0    0    0    0 -0.00000000000E+00 -0.00000000000E+00 -0.45593999997E+02  0.45594000000E+02  0.51100000000E-03 0. -1.
    9900012    2    1    2    0    0 -0.32004141880E+02  0.29271839431E+02 -0.15867352689E+01  0.47787269476E+02  0.19999992850E+02 0.  0.
         12    1    1    2    0    0  0.32004141880E+02 -0.29271839431E+02  0.15867352689E+01  0.43400730524E+02  0.00000000000E+00 0. -1.
         11    1    3    3    0    0 -0.42159497692E+01  0.14038325304E+02  0.30718977025E+01  0.14976159906E+02  0.51100000000E-03 0. -1.
        -11    1    3    3    0    0 -0.35620241001E+01 -0.41334507902E+00 -0.11103337123E+01  0.37538927872E+01  0.51100000000E-03 0.  1.
        -12    1    3    3    0    0 -0.24226168011E+02  0.15646859207E+02 -0.35482992591E+01  0.29057216783E+02  0.00000000000E+00 0.  1.
</event>
<event>
 7    1  0.2328615E-009  0.4778726E+02  0.7816164E-02  0.1312668E+00
        -11   -1    0    0    0    0  0.00000000000E+00  0.00000000000E+00  0.45593999997E+02  0.45594000000E+02  0.51100000000E-03 0. -1.
         11   -1    0    0    0    0 -0.00000000000E+00 -0.00000000000E+00 -0.45593999997E+02  0.45594000000E+02  0.51100000000E-03 0.  1.
    9900012    2    1    2    0    0 -0.38935087451E+02  0.99512302680E+01 -0.16390747120E+02  0.47787255653E+02  0.19999929825E+02 0.  0.
         12    1    1    2    0    0  0.38935087451E+02 -0.99512302680E+01  0.16390747120E+02  0.43400744347E+02  0.00000000000E+00 0. -1.
         11    1    3    3    0    0 -0.35369196766E+01  0.80754572148E+01 -0.18086372570E+01  0.89996654946E+01  0.51100000000E-03 0. -1.
        -11    1    3    3    0    0 -0.51231565275E+01 -0.17614766728E+01 -0.27944347250E+01  0.60957689070E+01  0.51100000000E-03 0.  1.
         12    1    3    3    0    0 -0.30275011247E+02  0.36372497260E+01 -0.11787675138E+02  0.32691821252E+02  0.00000000000E+00 0. -1.
</event>
<event>
 7    1  0.2328615E-009  0.4778727E+02  0.7816164E-02  0.1312668E+00
        -11   -1    0    0    0    0  0.00000000000E+00  0.00000000000E+00  0.45593999997E+02  0.45594000000E+02  0.51100000000E-03 0.  1.
         11   -1    0    0    0    0 -0.00000000000E+00 -0.00000000000E+00 -0.45593999997E+02  0.45594000000E+02  0.51100000000E-03 0. -1.
    9900012    2    1    2    0    0  0.27017381106E+02 -0.26262917199E+02  0.21539352009E+02  0.47787269746E+02  0.19999994081E+02 0.  0.
         12    1    1    2    0    0 -0.27017381106E+02  0.26262917199E+02 -0.21539352009E+02  0.43400730254E+02  0.00000000000E+00 0. -1.
         11    1    3    3    0    0 -0.50562510228E+00  0.10617021685E+01  0.25386900373E+01  0.27978233692E+01  0.51100000000E-03 0. -1.
        -11    1    3    3    0    0  0.16052626642E+02 -0.86387974524E+01  0.12559956329E+02  0.22137482846E+02  0.51100000000E-03 0.  1.
        -12    1    3    3    0    0  0.11470379566E+02 -0.18685821915E+02  0.64407056427E+01  0.22851963531E+02  0.00000000000E+00 0.  1.
</event>
<event>
 7    1  0.2328615E-009  0.4778727E+02  0.7816164E-02  0.1312668E+00
        -11   -1    0    0    0    0  0.00000000000E+00  0.00000000000E+00  0.45593999997E+02  0.45594000000E+02  0.51100000000E-03 0.  1.
         11   -1    0    0    0    0 -0.00000000000E+00 -0.00000000000E+00 -0.45593999997E+02  0.45594000000E+02  0.51100000000E-03 0. -1.
    9900012    2    1    2    0    0  0.16164453229E+02  0.33340053773E+02  0.22600329124E+02  0.47787267168E+02  0.19999982328E+02 0.  0.
         12    1    1    2    0    0 -0.16164453229E+02 -0.33340053773E+02 -0.22600329124E+02  0.43400732832E+02  0.00000000000E+00 0. -1.
         11    1    3    3    0    0  0.34307652642E+01  0.15715374773E+02  0.19576652083E+01  0.16204184888E+02  0.51100000000E-03 0. -1.
        -11    1    3    3    0    0  0.25177782516E+01  0.95369609280E+01  0.45104617232E+01  0.10846063631E+02  0.51100000000E-03 0.  1.
        -12    1    3    3    0    0  0.10215909713E+02  0.80877180723E+01  0.16132202193E+02  0.20737018650E+02  0.00000000000E+00 0.  1.
</event>
<event>
 7    1  0.2328615E-009  0.4778727E+02  0.7816164E-02  0.1312668E+00
        -11   -1    0    0    0    0  0.00000000000E+00  0.00000000000E+00  0.45593999997E+02  0.45594000000E+02  0.51100000000E-03 0.  1.
         11   -1    0    0    0    0 -0.00000000000E+00 -0.00000000000E+00 -0.45593999997E+02  0.45594000000E+02  0.51100000000E-03 0. -1.
    9900012    2    1    2    0    0 -0.57663679048E+01  0.24372026512E+02  0.35445400630E+02  0.47787273037E+02  0.20000009085E+02 0.  0.
         12    1    1    2    0    0  0.57663679048E+01 -0.24372026512E+02 -0.35445400630E+02  0.43400726963E+02  0.00000000000E+00 0. -1.
         11    1    3    3    0    0 -0.32271285626E+00  0.33909652762E+00  0.10699129639E+02  0.10709365310E+02  0.51100000000E-03 0. -1.
        -11    1    3    3    0    0  0.18588499926E+01 -0.12916155116E+00  0.20820885375E+00  0.18749285824E+01  0.51100000000E-03 0.  1.
        -12    1    3    3    0    0 -0.73025050412E+01  0.24162091535E+02  0.24538062137E+02  0.35202979145E+02  0.00000000000E+00 0.  1.
</event>
<event>
 7    1  0.2328615E-009  0.4778727E+02  0.7816164E-02  0.1312668E+00
        -11   -1    0    0    0    0  0.00000000000E+00  0.00000000000E+00  0.45593999997E+02  0.45594000000E+02  0.51100000000E-03 0. -1.
         11   -1    0    0    0    0 -0.00000000000E+00 -0.00000000000E+00 -0.45593999997E+02  0.45594000000E+02  0.51100000000E-03 0.  1.
    9900012    2    1    2    0    0  0.29257358313E+02 -0.22399389860E+02  0.22932451458E+02  0.47787274068E+02  0.20000013787E+02 0.  0.
         12    1    1    2    0    0 -0.29257358313E+02  0.22399389860E+02 -0.22932451458E+02  0.43400725932E+02  0.00000000000E+00 0. -1.
         11    1    3    3    0    0  0.25001481318E+01 -0.42332814459E+01  0.70582686715E+01  0.86017771060E+01  0.51100000000E-03 0. -1.
        -11    1    3    3    0    0  0.17419313734E+02 -0.10095425037E+02  0.17576848673E+02  0.26726311141E+02  0.51100000000E-03 0.  1.
         12    1    3    3    0    0  0.93378964469E+01 -0.80706833765E+01 -0.17026658864E+01  0.12459185822E+02  0.00000000000E+00 0. -1.
</event>
<event>
 7    1  0.2328615E-009  0.4778727E+02  0.7816164E-02  0.1312668E+00
        -11   -1    0    0    0    0  0.00000000000E+00  0.00000000000E+00  0.45593999997E+02  0.45594000000E+02  0.51100000000E-03 0.  1.
         11   -1    0    0    0    0 -0.00000000000E+00 -0.00000000000E+00 -0.45593999997E+02  0.45594000000E+02  0.51100000000E-03 0. -1.
    9900012    2    1    2    0    0  0.23871404846E+02  0.35908723130E+02  0.49338550970E+01  0.47787270833E+02  0.19999999034E+02 0.  0.
         12    1    1    2    0    0 -0.23871404846E+02 -0.35908723130E+02 -0.49338550970E+01  0.43400729167E+02  0.00000000000E+00 0. -1.
         11    1    3    3    0    0  0.59393502783E+01  0.82833931334E+01  0.14533896819E+01  0.10295767352E+02  0.51100000000E-03 0. -1.
        -11    1    3    3    0    0  0.19016065814E+02  0.15476192520E+02  0.55023562421E+01  0.25127658435E+02  0.51100000000E-03 0.  1.
         12    1    3    3    0    0 -0.10840112458E+01  0.12149137477E+02 -0.20218908270E+01  0.12363845046E+02  0.00000000000E+00 0. -1.
</event>
<event>
 7    1  0.2328615E-009  0.4778727E+02  0.7816164E-02  0.1312668E+00
        -11   -1    0    0    0    0  0.00000000000E+00  0.00000000000E+00  0.45593999997E+02  0.45594000000E+02  0.51100000000E-03 0.  1.
         11   -1    0    0    0    0 -0.00000000000E+00 -0.00000000000E+00 -0.45593999997E+02  0.45594000000E+02  0.51100000000E-03 0. -1.
    9900012    2    1    2    0    0 -0.26526828687E+02 -0.93780324927E+01  0.33045471415E+02  0.47787270574E+02  0.19999997856E+02 0.  0.
         12    1    1    2    0    0  0.26526828687E+02  0.93780324927E+01 -0.33045471415E+02  0.43400729426E+02  0.00000000000E+00 0. -1.
         11    1    3    3    0    0 -0.15991380642E+02 -0.10960394273E+01  0.19436417732E+02  0.25193250918E+02  0.51100000000E-03 0. -1.
        -11    1    3    3    0    0 -0.10066674895E+02 -0.23392711506E+01  0.12991581331E+02  0.16600943307E+02  0.51100000000E-03 0.  1.
         12    1    3    3    0    0 -0.46877315020E+00 -0.59427219148E+01  0.61747235184E+00  0.59930763493E+01  0.00000000000E+00 0. -1.
</event>
<event>
 7    1  0.2328615E-009  0.4778727E+02  0.7816164E-02  0.1312668E+00
        -11   -1    0    0    0    0  0.00000000000E+00  0.00000000000E+00  0.45593999997E+02  0.45594000000E+02  0.51100000000E-03 0.  1.
         11   -1    0    0    0    0 -0.00000000000E+00 -0.00000000000E+00 -0.45593999997E+02  0.45594000000E+02  0.51100000000E-03 0. -1.
    9900012    2    1    2    0    0  0.23197076076E+01 -0.38263647637E+02  0.20350322714E+02  0.47787269494E+02  0.19999992931E+02 0.  0.
         12    1    1    2    0    0 -0.23197076076E+01  0.38263647637E+02 -0.20350322714E+02  0.43400730506E+02  0.00000000000E+00 0. -1.
         11    1    3    3    0    0  0.26176094631E+00 -0.27907351569E+01 -0.16059031341E+01  0.32304251495E+01  0.51100000000E-03 0. -1.
        -11    1    3    3    0    0  0.16398087663E+01 -0.21933728916E+02  0.44814512241E+01  0.22446844818E+02  0.51100000000E-03 0.  1.
        -12    1    3    3    0    0  0.41813789495E+00 -0.13539183564E+02  0.17474774624E+02  0.22109999526E+02  0.00000000000E+00 0.  1.
</event>
<event>
 7    1  0.2328615E-009  0.4778727E+02  0.7816164E-02  0.1312668E+00
        -11   -1    0    0    0    0  0.00000000000E+00  0.00000000000E+00  0.45593999997E+02  0.45594000000E+02  0.51100000000E-03 0. -1.
         11   -1    0    0    0    0 -0.00000000000E+00 -0.00000000000E+00 -0.45593999997E+02  0.45594000000E+02  0.51100000000E-03 0.  1.
    9900012    2    1    2    0    0 -0.48538979895E+01 -0.41080570801E+02 -0.13132005163E+02  0.47787272095E+02  0.20000004792E+02 0.  0.
         12    1    1    2    0    0  0.48538979895E+01  0.41080570801E+02  0.13132005163E+02  0.43400727905E+02  0.00000000000E+00 0. -1.
         11    1    3    3    0    0  0.25102820098E+01  0.90883169767E+00  0.59547687207E+00  0.27353397942E+01  0.51100000000E-03 0. -1.
        -11    1    3    3    0    0 -0.26570167988E+01 -0.61984718877E+01 -0.12610515131E+01  0.68608340012E+01  0.51100000000E-03 0.  1.
         12    1    3    3    0    0 -0.47071632005E+01 -0.35790930611E+02 -0.12466430522E+02  0.38191098300E+02  0.00000000000E+00 0. -1.
</event>
<event>
 7    1  0.2328615E-009  0.4778727E+02  0.7816164E-02  0.1312668E+00
        -11   -1    0    0    0    0  0.00000000000E+00  0.00000000000E+00  0.45593999997E+02  0.45594000000E+02  0.51100000000E-03 0.  1.
         11   -1    0    0    0    0 -0.00000000000E+00 -0.00000000000E+00 -0.45593999997E+02  0.45594000000E+02  0.51100000000E-03 0. -1.
    9900012    2    1    2    0    0  0.14592311661E+02 -0.35886050235E+02  0.19567293636E+02  0.47787272572E+02  0.20000006964E+02 0.  0.
         12    1    1    2    0    0 -0.14592311661E+02  0.35886050235E+02 -0.19567293636E+02  0.43400727428E+02  0.00000000000E+00 0. -1.
         11    1    3    3    0    0  0.11761026648E+02 -0.12049944508E+02  0.57992434878E+01  0.17808821852E+02  0.51100000000E-03 0. -1.
        -11    1    3    3    0    0  0.22716882818E+01 -0.36337886816E+01  0.78099349265E+01  0.89084270020E+01  0.51100000000E-03 0.  1.
         12    1    3    3    0    0  0.55959673149E+00 -0.20202317045E+02  0.59581152213E+01  0.21070023718E+02  0.00000000000E+00 0. -1.
</event>
<event>
 7    1  0.2328615E-009  0.4778727E+02  0.7816164E-02  0.1312668E+00
        -11   -1    0    0    0    0  0.00000000000E+00  0.00000000000E+00  0.45593999997E+02  0.45594000000E+02  0.51100000000E-03 0.  1.
         11   -1    0    0    0    0 -0.00000000000E+00 -0.00000000000E+00 -0.45593999997E+02  0.45594000000E+02  0.51100000000E-03 0. -1.
    9900012    2    1    2    0    0 -0.22888626668E+02 -0.36861572723E+02  0.97905330754E+00  0.47787270516E+02  0.19999997591E+02 0.  0.
         12    1    1    2    0    0  0.22888626668E+02  0.36861572723E+02 -0.97905330754E+00  0.43400729484E+02  0.00000000000E+00 0. -1.
         11    1    3    3    0    0 -0.18579893835E+02 -0.14350164281E+02 -0.24328702262E+01  0.23602087357E+02  0.51100000000E-03 0. -1.
        -11    1    3    3    0    0 -0.20808385188E+01 -0.58852539174E+01 -0.20068078013E+01  0.65569337671E+01  0.51100000000E-03 0.  1.
        -12    1    3    3    0    0 -0.22278943144E+01 -0.16626154525E+02  0.54187313351E+01  0.17628249392E+02  0.00000000000E+00 0.  1.
</event>
<event>
 7    1  0.2328615E-009  0.4778727E+02  0.7816164E-02  0.1312668E+00
        -11   -1    0    0    0    0  0.00000000000E+00  0.00000000000E+00  0.45593999997E+02  0.45594000000E+02  0.51100000000E-03 0.  1.
         11   -1    0    0    0    0 -0.00000000000E+00 -0.00000000000E+00 -0.45593999997E+02  0.45594000000E+02  0.51100000000E-03 0. -1.
    9900012    2    1    2    0    0  0.38913559715E+02 -0.69352802724E+01  0.17923726194E+02  0.47787271863E+02  0.20000003732E+02 0.  0.
         12    1    1    2    0    0 -0.38913559715E+02  0.69352802724E+01 -0.17923726194E+02  0.43400728137E+02  0.00000000000E+00 0. -1.
         11    1    3    3    0    0  0.46413403103E+01  0.39331276920E+01  0.20442207838E+00  0.60871439908E+01  0.51100000000E-03 0. -1.
        -11    1    3    3    0    0  0.19688938121E-01  0.93916588672E+00 -0.58662506771E+00  0.11074969292E+01  0.51100000000E-03 0.  1.
        -12    1    3    3    0    0  0.34252530466E+02 -0.11807573851E+02  0.18305929183E+02  0.40592630943E+02  0.00000000000E+00 0.  1.
</event>
<event>
 7    1  0.2328615E-009  0.4778727E+02  0.7816164E-02  0.1312668E+00
        -11   -1    0    0    0    0  0.00000000000E+00  0.00000000000E+00  0.45593999997E+02  0.45594000000E+02  0.51100000000E-03 0.  1.
         11   -1    0    0    0    0 -0.00000000000E+00 -0.00000000000E+00 -0.45593999997E+02  0.45594000000E+02  0.51100000000E-03 0. -1.
    9900012    2    1    2    0    0  0.11767983418E+02 -0.32543713774E+02  0.26192447105E+02  0.47787273908E+02  0.20000013058E+02 0.  0.
         12    1    1    2    0    0 -0.11767983418E+02  0.32543713774E+02 -0.26192447105E+02  0.43400726092E+02  0.00000000000E+00 0. -1.
         11    1    3    3    0    0  0.69925281667E+00  0.67665664918E+00  0.36256344325E+00  0.10383983985E+01  0.51100000000E-03 0. -1.
        -11    1    3    3    0    0 -0.37379853267E+01 -0.13434928093E+02  0.12190537738E+02  0.18522392874E+02  0.51100000000E-03 0.  1.
        -12    1    3    3    0    0  0.14806715928E+02 -0.19785442330E+02  0.13639345924E+02  0.28226482636E+02  0.00000000000E+00 0.  1.
</event>
<event>
 7    1  0.2328615E-009  0.4778727E+02  0.7816164E-02  0.1312668E+00
        -11   -1    0    0    0    0  0.00000000000E+00  0.00000000000E+00  0.45593999997E+02  0.45594000000E+02  0.51100000000E-03 0.  1.
         11   -1    0    0    0    0 -0.00000000000E+00 -0.00000000000E+00 -0.45593999997E+02  0.45594000000E+02  0.51100000000E-03 0. -1.
    9900012    2    1    2    0    0 -0.78275663644E+01 -0.42300473145E+02 -0.57465246977E+01  0.47787269942E+02  0.19999994973E+02 0.  0.
         12    1    1    2    0    0  0.78275663644E+01  0.42300473145E+02  0.57465246977E+01  0.43400730058E+02  0.00000000000E+00 0. -1.
         11    1    3    3    0    0 -0.33024576286E+01 -0.10087406394E+02  0.45810919667E+01  0.11560640035E+02  0.51100000000E-03 0. -1.
        -11    1    3    3    0    0  0.21699587074E+01 -0.14177971532E+02  0.10242131375E+00  0.14343433617E+02  0.51100000000E-03 0.  1.
         12    1    3    3    0    0 -0.66950674431E+01 -0.18035095219E+02 -0.10430037978E+02  0.21883196290E+02  0.00000000000E+00 0. -1.
</event>
<event>
 7    1  0.2328615E-009  0.4778728E+02  0.7816164E-02  0.1312668E+00
        -11   -1    0    0    0    0  0.00000000000E+00  0.00000000000E+00  0.45593999997E+02  0.45594000000E+02  0.51100000000E-03 0. -1.
         11   -1    0    0    0    0 -0.00000000000E+00 -0.00000000000E+00 -0.45593999997E+02  0.45594000000E+02  0.51100000000E-03 0.  1.
    9900012    2    1    2    0    0  0.28425028964E+02  0.46586809226E+01 -0.32464401005E+02  0.47787275212E+02  0.20000019002E+02 0.  0.
         12    1    1    2    0    0 -0.28425028964E+02 -0.46586809226E+01  0.32464401005E+02  0.43400724788E+02  0.00000000000E+00 0. -1.
         11    1    3    3    0    0  0.14929351153E+01  0.12152658796E+01  0.68775088480E+00  0.20441937181E+01  0.51100000000E-03 0. -1.
        -11    1    3    3    0    0 -0.39888709493E+00 -0.98234669697E+00  0.12137586625E+01  0.16116222570E+01  0.51100000000E-03 0.  1.
        -12    1    3    3    0    0  0.27330980943E+02  0.44257617400E+01 -0.34365910552E+02  0.44131459237E+02  0.00000000000E+00 0.  1.
</event>
<event>
 7    1  0.2328615E-009  0.4778727E+02  0.7816164E-02  0.1312668E+00
        -11   -1    0    0    0    0  0.00000000000E+00  0.00000000000E+00  0.45593999997E+02  0.45594000000E+02  0.51100000000E-03 0. -1.
         11   -1    0    0    0    0 -0.00000000000E+00 -0.00000000000E+00 -0.45593999997E+02  0.45594000000E+02  0.51100000000E-03 0.  1.
    9900012    2    1    2    0    0 -0.17530639542E+02  0.10893190465E+02 -0.38179031224E+02  0.47787270208E+02  0.19999996185E+02 0.  0.
         12    1    1    2    0    0  0.17530639542E+02 -0.10893190465E+02  0.38179031224E+02  0.43400729792E+02  0.00000000000E+00 0. -1.
         11    1    3    3    0    0 -0.96759757766E+01  0.62123331648E+01 -0.14557723180E+02  0.18551142688E+02  0.51100000000E-03 0. -1.
        -11    1    3    3    0    0 -0.63013967989E+01  0.98771097286E+01 -0.17476304833E+02  0.21040107630E+02  0.51100000000E-03 0.  1.
         12    1    3    3    0    0 -0.15532669667E+01 -0.51962524282E+01 -0.61450032117E+01  0.81960198901E+01  0.00000000000E+00 0. -1.
</event>
<event>
 7    1  0.2328615E-009  0.4778726E+02  0.7816164E-02  0.1312668E+00
        -11   -1    0    0    0    0  0.00000000000E+00  0.00000000000E+00  0.45593999997E+02  0.45594000000E+02  0.51100000000E-03 0.  1.
         11   -1    0    0    0    0 -0.00000000000E+00 -0.00000000000E+00 -0.45593999997E+02  0.45594000000E+02  0.51100000000E-03 0. -1.
    9900012    2    1    2    0    0 -0.24789382710E+02  0.73909627232E+00  0.35616909488E+02  0.47787262680E+02  0.19999961864E+02 0.  0.
         12    1    1    2    0    0  0.24789382710E+02 -0.73909627232E+00 -0.35616909488E+02  0.43400737320E+02  0.00000000000E+00 0. -1.
         11    1    3    3    0    0 -0.60109295449E+01 -0.14943993129E+01 -0.81880505000E+00  0.62477952328E+01  0.51100000000E-03 0. -1.
        -11    1    3    3    0    0 -0.36062686594E+01 -0.19131365922E+01  0.96369718456E+01  0.10465968272E+02  0.51100000000E-03 0.  1.
         12    1    3    3    0    0 -0.15172184506E+02  0.41466321775E+01  0.26798742692E+02  0.31073499175E+02  0.00000000000E+00 0. -1.
</event>
<event>
 7    1  0.2328615E-009  0.4778727E+02  0.7816164E-02  0.1312668E+00
        -11   -1    0    0    0    0  0.00000000000E+00  0.00000000000E+00  0.45593999997E+02  0.45594000000E+02  0.51100000000E-03 0.  1.
         11   -1    0    0    0    0 -0.00000000000E+00 -0.00000000000E+00 -0.45593999997E+02  0.45594000000E+02  0.51100000000E-03 0. -1.
    9900012    2    1    2    0    0  0.23765617229E+02 -0.65744564262E+01  0.35715475622E+02  0.47787271452E+02  0.20000001858E+02 0.  0.
         12    1    1    2    0    0 -0.23765617229E+02  0.65744564262E+01 -0.35715475622E+02  0.43400728548E+02  0.00000000000E+00 0. -1.
         11    1    3    3    0    0  0.19058695258E+01 -0.16091365043E+01  0.42871444242E+00  0.25309000915E+01  0.51100000000E-03 0. -1.
        -11    1    3    3    0    0  0.59461779404E+01  0.59936159673E+01  0.15184028223E+02  0.17373404324E+02  0.51100000000E-03 0.  1.
        -12    1    3    3    0    0  0.15913569763E+02 -0.10958935889E+02  0.20102732957E+02  0.27882967037E+02  0.00000000000E+00 0.  1.
</event>
<event>
 7    1  0.2328615E-009  0.4778728E+02  0.7816164E-02  0.1312668E+00
        -11   -1    0    0    0    0  0.00000000000E+00  0.00000000000E+00  0.45593999997E+02  0.45594000000E+02  0.51100000000E-03 0.  1.
         11   -1    0    0    0    0 -0.00000000000E+00 -0.00000000000E+00 -0.45593999997E+02  0.45594000000E+02  0.51100000000E-03 0. -1.
    9900012    2    1    2    0    0 -0.14490637704E+02 -0.37455873131E+02  0.16453020642E+02  0.47787275336E+02  0.20000019569E+02 0.  0.
         12    1    1    2    0    0  0.14490637704E+02  0.37455873131E+02 -0.16453020642E+02  0.43400724664E+02  0.00000000000E+00 0. -1.
         11    1    3    3    0    0  0.31171085148E+01 -0.21003818494E+01  0.11857272569E+01  0.39413092742E+01  0.51100000000E-03 0. -1.
        -11    1    3    3    0    0 -0.14007849008E+01  0.59296264270E+00  0.13358209955E+01  0.20244063395E+01  0.51100000000E-03 0.  1.
        -12    1    3    3    0    0 -0.16206961318E+02 -0.35948453924E+02  0.13931472390E+02  0.41821559723E+02  0.00000000000E+00 0.  1.
</event>
<event>
 7    1  0.2328615E-009  0.4778727E+02  0.7816164E-02  0.1312668E+00
        -11   -1    0    0    0    0  0.00000000000E+00  0.00000000000E+00  0.45593999997E+02  0.45594000000E+02  0.51100000000E-03 0.  1.
         11   -1    0    0    0    0 -0.00000000000E+00 -0.00000000000E+00 -0.45593999997E+02  0.45594000000E+02  0.51100000000E-03 0. -1.
    9900012    2    1    2    0    0  0.15921912569E+02  0.20516155134E+02  0.34773598536E+02  0.47787273319E+02  0.20000010369E+02 0.  0.
         12    1    1    2    0    0 -0.15921912569E+02 -0.20516155134E+02 -0.34773598536E+02  0.43400726681E+02  0.00000000000E+00 0. -1.
         11    1    3    3    0    0 -0.15980242362E+01 -0.10150281942E+01  0.52942148823E+01  0.56225150222E+01  0.51100000000E-03 0. -1.
        -11    1    3    3    0    0  0.26807570421E+01  0.26576545429E+01  0.11688320112E+02  0.12282768958E+02  0.51100000000E-03 0.  1.
         12    1    3    3    0    0  0.14839179763E+02  0.18873528785E+02  0.17791063542E+02  0.29881989338E+02  0.00000000000E+00 0. -1.
</event>
<event>
 7    1  0.2328615E-009  0.4778727E+02  0.7816164E-02  0.1312668E+00
        -11   -1    0    0    0    0  0.00000000000E+00  0.00000000000E+00  0.45593999997E+02  0.45594000000E+02  0.51100000000E-03 0.  1.
         11   -1    0    0    0    0 -0.00000000000E+00 -0.00000000000E+00 -0.45593999997E+02  0.45594000000E+02  0.51100000000E-03 0. -1.
    9900012    2    1    2    0    0 -0.31119804038E+02 -0.29759548491E+02 -0.54360147674E+01  0.47787272053E+02  0.20000004600E+02 0.  0.
         12    1    1    2    0    0  0.31119804038E+02  0.29759548491E+02  0.54360147674E+01  0.43400727947E+02  0.00000000000E+00 0. -1.
         11    1    3    3    0    0  0.12836597271E+00 -0.13495758411E+01  0.20020279726E+01  0.24178397462E+01  0.51100000000E-03 0. -1.
        -11    1    3    3    0    0 -0.12957764935E+02 -0.47099281187E+01  0.21074532175E+01  0.13947345781E+02  0.51100000000E-03 0.  1.
        -12    1    3    3    0    0 -0.18290405075E+02 -0.23700044532E+02 -0.95454959575E+01  0.31422086526E+02  0.00000000000E+00 0.  1.
</event>
<event>
 7    1  0.2328615E-009  0.4778727E+02  0.7816164E-02  0.1312668E+00
        -11   -1    0    0    0    0  0.00000000000E+00  0.00000000000E+00  0.45593999997E+02  0.45594000000E+02  0.51100000000E-03 0.  1.
         11   -1    0    0    0    0 -0.00000000000E+00 -0.00000000000E+00 -0.45593999997E+02  0.45594000000E+02  0.51100000000E-03 0. -1.
    9900012    2    1    2    0    0 -0.30593637011E+02 -0.92641951752E+01  0.29356894549E+02  0.47787271949E+02  0.20000004127E+02 0.  0.
         12    1    1    2    0    0  0.30593637011E+02  0.92641951752E+01 -0.29356894549E+02  0.43400728051E+02  0.00000000000E+00 0. -1.
         11    1    3    3    0    0 -0.40197937541E+01 -0.34392775847E+01  0.15987252307E+02  0.16839822111E+02  0.51100000000E-03 0. -1.
        -11    1    3    3    0    0 -0.62684845144E+01  0.78479191038E+00  0.48167548256E+01  0.79442384003E+01  0.51100000000E-03 0.  1.
        -12    1    3    3    0    0 -0.20305358742E+02 -0.66097095008E+01  0.85528874158E+01  0.23003211438E+02  0.00000000000E+00 0.  1.
</event>
<event>
 7    1  0.2328615E-009  0.4778728E+02  0.7816164E-02  0.1312668E+00
        -11   -1    0    0    0    0  0.00000000000E+00  0.00000000000E+00  0.45593999997E+02  0.45594000000E+02  0.51100000000E-03 0. -1.
         11   -1    0    0    0    0 -0.00000000000E+00 -0.00000000000E+00 -0.45593999997E+02  0.45594000000E+02  0.51100000000E-03 0.  1.
    9900012    2    1    2    0    0 -0.96126560593E+01 -0.37301498354E+02  0.19995447430E+02  0.47787275883E+02  0.20000022059E+02 0.  0.
         12    1    1    2    0    0  0.96126560593E+01  0.37301498354E+02 -0.19995447430E+02  0.43400724117E+02  0.00000000000E+00 0. -1.
         11    1    3    3    0    0 -0.75422757371E+01 -0.20144945120E+01  0.26823439113E+01  0.82546399408E+01  0.51100000000E-03 0. -1.
        -11    1    3    3    0    0  0.27985489666E+00 -0.28741653809E+01  0.45832130734E+00  0.29239022011E+01  0.51100000000E-03 0.  1.
        -12    1    3    3    0    0 -0.23502352189E+01 -0.32412838462E+02  0.16854782211E+02  0.36608733741E+02  0.00000000000E+00 0.  1.
</event>
<event>
 7    1  0.2328615E-009  0.4778727E+02  0.7816164E-02  0.1312668E+00
        -11   -1    0    0    0    0  0.00000000000E+00  0.00000000000E+00  0.45593999997E+02  0.45594000000E+02  0.51100000000E-03 0. -1.
         11   -1    0    0    0    0 -0.00000000000E+00 -0.00000000000E+00 -0.45593999997E+02  0.45594000000E+02  0.51100000000E-03 0.  1.
    9900012    2    1    2    0    0 -0.76622694942E+01  0.42155088786E+02 -0.69181878562E+01  0.47787271808E+02  0.20000003483E+02 0.  0.
         12    1    1    2    0    0  0.76622694942E+01 -0.42155088786E+02  0.69181878562E+01  0.43400728192E+02  0.00000000000E+00 0. -1.
         11    1    3    3    0    0 -0.76686910482E+01  0.29590427504E+02 -0.76919138710E+01  0.31520909909E+02  0.51100000000E-03 0. -1.
        -11    1    3    3    0    0 -0.49240567220E+01  0.40219279139E+01 -0.15103510100E+00  0.63596423334E+01  0.51100000000E-03 0.  1.
         12    1    3    3    0    0  0.49304782761E+01  0.85427333685E+01  0.92476111580E+00  0.99067195659E+01  0.00000000000E+00 0. -1.
</event>
<event>
 7    1  0.2328615E-009  0.4778727E+02  0.7816164E-02  0.1312668E+00
        -11   -1    0    0    0    0  0.00000000000E+00  0.00000000000E+00  0.45593999997E+02  0.45594000000E+02  0.51100000000E-03 0. -1.
         11   -1    0    0    0    0 -0.00000000000E+00 -0.00000000000E+00 -0.45593999997E+02  0.45594000000E+02  0.51100000000E-03 0.  1.
    9900012    2    1    2    0    0 -0.40083466557E+02  0.76954289862E+01  0.14755324415E+02  0.47787268242E+02  0.19999987223E+02 0.  0.
         12    1    1    2    0    0  0.40083466557E+02 -0.76954289862E+01 -0.14755324415E+02  0.43400731758E+02  0.00000000000E+00 0. -1.
         11    1    3    3    0    0 -0.97407530219E+01  0.60746374967E+01  0.33213023930E+01  0.11950503755E+02  0.51100000000E-03 0. -1.
        -11    1    3    3    0    0 -0.21273011759E+02  0.67839220170E+01  0.32280636020E+01  0.22560652077E+02  0.51100000000E-03 0.  1.
         12    1    3    3    0    0 -0.90697017760E+01 -0.51631305275E+01  0.82059584197E+01  0.13276112410E+02  0.00000000000E+00 0. -1.
</event>
<event>
 7    1  0.2328615E-009  0.4778728E+02  0.7816164E-02  0.1312668E+00
        -11   -1    0    0    0    0  0.00000000000E+00  0.00000000000E+00  0.45593999997E+02  0.45594000000E+02  0.51100000000E-03 0.  1.
         11   -1    0    0    0    0 -0.00000000000E+00 -0.00000000000E+00 -0.45593999997E+02  0.45594000000E+02  0.51100000000E-03 0. -1.
    9900012    2    1    2    0    0 -0.53443282389E+01  0.10862350719E+02  0.41678171940E+02  0.47787279687E+02  0.20000039404E+02 0.  0.
         12    1    1    2    0    0  0.53443282389E+01 -0.10862350719E+02 -0.41678171940E+02  0.43400720313E+02  0.00000000000E+00 0. -1.
         11    1    3    3    0    0  0.20671232224E+01 -0.32442747489E+01  0.51580833077E+01  0.64346049399E+01  0.51100000000E-03 0. -1.
        -11    1    3    3    0    0  0.24612943975E+01  0.24933527573E+01  0.33474108327E+01  0.48456101399E+01  0.51100000000E-03 0.  1.
        -12    1    3    3    0    0 -0.98727458588E+01  0.11613272710E+02  0.33172677799E+02  0.36507064607E+02  0.00000000000E+00 0.  1.
</event>
<event>
 7    1  0.2328615E-009  0.4778728E+02  0.7816164E-02  0.1312668E+00
        -11   -1    0    0    0    0  0.00000000000E+00  0.00000000000E+00  0.45593999997E+02  0.45594000000E+02  0.51100000000E-03 0.  1.
         11   -1    0    0    0    0 -0.00000000000E+00 -0.00000000000E+00 -0.45593999997E+02  0.45594000000E+02  0.51100000000E-03 0. -1.
    9900012    2    1    2    0    0  0.58950883829E+01 -0.24509182231E+02  0.35329459424E+02  0.47787276690E+02  0.20000025739E+02 0.  0.
         12    1    1    2    0    0 -0.58950883829E+01  0.24509182231E+02 -0.35329459424E+02  0.43400723310E+02  0.00000000000E+00 0. -1.
         11    1    3    3    0    0  0.21522013177E+01 -0.11927690588E+02  0.53925663080E+01  0.13265803591E+02  0.51100000000E-03 0. -1.
        -11    1    3    3    0    0  0.37680739872E+00 -0.15443302172E+01 -0.73463615546E+00  0.17511796531E+01  0.51100000000E-03 0.  1.
        -12    1    3    3    0    0  0.33660796665E+01 -0.11037161426E+02  0.30671529271E+02  0.32770293445E+02  0.00000000000E+00 0.  1.
</event>
<event>
 7    1  0.2328615E-009  0.4778728E+02  0.7816164E-02  0.1312668E+00
        -11   -1    0    0    0    0  0.00000000000E+00  0.00000000000E+00  0.45593999997E+02  0.45594000000E+02  0.51100000000E-03 0.  1.
         11   -1    0    0    0    0 -0.00000000000E+00 -0.00000000000E+00 -0.45593999997E+02  0.45594000000E+02  0.51100000000E-03 0. -1.
    9900012    2    1    2    0    0 -0.13512637124E+02  0.39257308639E+02 -0.12644970377E+02  0.47787275127E+02  0.20000018616E+02 0.  0.
         12    1    1    2    0    0  0.13512637124E+02 -0.39257308639E+02  0.12644970377E+02  0.43400724873E+02  0.00000000000E+00 0. -1.
         11    1    3    3    0    0 -0.84417774726E+01  0.10437565761E+02 -0.44536995989E+01  0.14143614329E+02  0.51100000000E-03 0. -1.
        -11    1    3    3    0    0 -0.78259316570E+01  0.69208983687E+01 -0.39462492065E+01  0.11167673150E+02  0.51100000000E-03 0.  1.
        -12    1    3    3    0    0  0.27550720061E+01  0.21898844510E+02 -0.42450215713E+01  0.22475987648E+02  0.00000000000E+00 0.  1.
</event>
<event>
 7    1  0.2328615E-009  0.4778727E+02  0.7816164E-02  0.1312668E+00
        -11   -1    0    0    0    0  0.00000000000E+00  0.00000000000E+00  0.45593999997E+02  0.45594000000E+02  0.51100000000E-03 0.  1.
         11   -1    0    0    0    0 -0.00000000000E+00 -0.00000000000E+00 -0.45593999997E+02  0.45594000000E+02  0.51100000000E-03 0. -1.
    9900012    2    1    2    0    0  0.14376131605E+02 -0.26702494083E+02  0.31047175628E+02  0.47787268847E+02  0.19999989980E+02 0.  0.
         12    1    1    2    0    0 -0.14376131605E+02  0.26702494083E+02 -0.31047175628E+02  0.43400731153E+02  0.00000000000E+00 0. -1.
         11    1    3    3    0    0 -0.85249780528E-01 -0.72032064178E+01  0.10262693200E+02  0.12538593310E+02  0.51100000000E-03 0. -1.
        -11    1    3    3    0    0  0.12655700363E+02 -0.20247951233E+02  0.22379355970E+02  0.32725859113E+02  0.51100000000E-03 0.  1.
        -12    1    3    3    0    0  0.18056810223E+01  0.74866356814E+00 -0.15948735415E+01  0.25228164233E+01  0.00000000000E+00 0.  1.
</event>
<event>
 7    1  0.2328615E-009  0.4778727E+02  0.7816164E-02  0.1312668E+00
        -11   -1    0    0    0    0  0.00000000000E+00  0.00000000000E+00  0.45593999997E+02  0.45594000000E+02  0.51100000000E-03 0. -1.
         11   -1    0    0    0    0 -0.00000000000E+00 -0.00000000000E+00 -0.45593999997E+02  0.45594000000E+02  0.51100000000E-03 0.  1.
    9900012    2    1    2    0    0 -0.28885085860E+02  0.31399726403E+02  0.79581646092E+01  0.47787269738E+02  0.19999994045E+02 0.  0.
         12    1    1    2    0    0  0.28885085860E+02 -0.31399726403E+02 -0.79581646092E+01  0.43400730262E+02  0.00000000000E+00 0. -1.
         11    1    3    3    0    0 -0.10390108968E+02  0.79250947047E+01  0.25671186631E+01  0.13317341662E+02  0.51100000000E-03 0. -1.
        -11    1    3    3    0    0 -0.17596259323E+02  0.25283653282E+02  0.24491190454E+01  0.30901288805E+02  0.51100000000E-03 0.  1.
         12    1    3    3    0    0 -0.89871756871E+00 -0.18090215840E+01  0.29419269007E+01  0.35686392713E+01  0.00000000000E+00 0. -1.
</event>
<event>
 7    1  0.2328615E-009  0.4778727E+02  0.7816164E-02  0.1312668E+00
        -11   -1    0    0    0    0  0.00000000000E+00  0.00000000000E+00  0.45593999997E+02  0.45594000000E+02  0.51100000000E-03 0.  1.
         11   -1    0    0    0    0 -0.00000000000E+00 -0.00000000000E+00 -0.45593999997E+02  0.45594000000E+02  0.51100000000E-03 0. -1.
    9900012    2    1    2    0    0  0.50762379784E+01  0.24983304044E+02  0.35123914723E+02  0.47787273527E+02  0.20000011318E+02 0.  0.
         12    1    1    2    0    0 -0.50762379784E+01 -0.24983304044E+02 -0.35123914723E+02  0.43400726473E+02  0.00000000000E+00 0. -1.
         11    1    3    3    0    0  0.49860101235E+01  0.89159924070E+01  0.40484364433E+01  0.10988405501E+02  0.51100000000E-03 0. -1.
        -11    1    3    3    0    0  0.35997881312E+01  0.32825759556E+01  0.29241707451E+01  0.56819498679E+01  0.51100000000E-03 0.  1.
        -12    1    3    3    0    0 -0.35095602763E+01  0.12784735681E+02  0.28151307534E+02  0.31116918158E+02  0.00000000000E+00 0.  1.
</event>
<event>
 7    1  0.2328615E-009  0.4778727E+02  0.7816164E-02  0.1312668E+00
        -11   -1    0    0    0    0  0.00000000000E+00  0.00000000000E+00  0.45593999997E+02  0.45594000000E+02  0.51100000000E-03 0. -1.
         11   -1    0    0    0    0 -0.00000000000E+00 -0.00000000000E+00 -0.45593999997E+02  0.45594000000E+02  0.51100000000E-03 0.  1.
    9900012    2    1    2    0    0 -0.23430489595E+02 -0.13584845987E+02 -0.33912937042E+02  0.47787272103E+02  0.20000004827E+02 0.  0.
         12    1    1    2    0    0  0.23430489595E+02  0.13584845987E+02  0.33912937042E+02  0.43400727897E+02  0.00000000000E+00 0. -1.
         11    1    3    3    0    0 -0.53332253237E+01  0.41318777421E+01 -0.38685109073E+01  0.77769584626E+01  0.51100000000E-03 0. -1.
        -11    1    3    3    0    0 -0.58499881718E+01 -0.45990123261E+01 -0.41963754145E+01  0.85429996410E+01  0.51100000000E-03 0.  1.
        -12    1    3    3    0    0 -0.12247276100E+02 -0.13117711403E+02 -0.25848050720E+02  0.31467314000E+02  0.00000000000E+00 0.  1.
</event>
<event>
 7    1  0.2328615E-009  0.4778727E+02  0.7816164E-02  0.1312668E+00
        -11   -1    0    0    0    0  0.00000000000E+00  0.00000000000E+00  0.45593999997E+02  0.45594000000E+02  0.51100000000E-03 0.  1.
         11   -1    0    0    0    0 -0.00000000000E+00 -0.00000000000E+00 -0.45593999997E+02  0.45594000000E+02  0.51100000000E-03 0. -1.
    9900012    2    1    2    0    0 -0.13725310873E+02  0.35382016218E+02  0.21055923132E+02  0.47787272712E+02  0.20000007601E+02 0.  0.
         12    1    1    2    0    0  0.13725310873E+02 -0.35382016218E+02 -0.21055923132E+02  0.43400727288E+02  0.00000000000E+00 0. -1.
         11    1    3    3    0    0 -0.11252598942E+02  0.10284590802E+02  0.76969511955E+01  0.17077378279E+02  0.51100000000E-03 0. -1.
        -11    1    3    3    0    0 -0.63195178184E+01  0.85051748098E+01  0.57447843485E+01  0.12053084729E+02  0.51100000000E-03 0.  1.
         12    1    3    3    0    0  0.38468058873E+01  0.16592250606E+02  0.76141875881E+01  0.18656809704E+02  0.00000000000E+00 0. -1.
</event>
<event>
 7    1  0.2328615E-009  0.4778727E+02  0.7816164E-02  0.1312668E+00
        -11   -1    0    0    0    0  0.00000000000E+00  0.00000000000E+00  0.45593999997E+02  0.45594000000E+02  0.51100000000E-03 0. -1.
         11   -1    0    0    0    0 -0.00000000000E+00 -0.00000000000E+00 -0.45593999997E+02  0.45594000000E+02  0.51100000000E-03 0.  1.
    9900012    2    1    2    0    0 -0.14015898275E+01  0.33041849973E+02 -0.28105075893E+02  0.47787267349E+02  0.19999983153E+02 0.  0.
         12    1    1    2    0    0  0.14015898275E+01 -0.33041849973E+02  0.28105075893E+02  0.43400732651E+02  0.00000000000E+00 0. -1.
         11    1    3    3    0    0 -0.29295082682E+01  0.86625495967E+01 -0.15990446539E+01  0.92832498768E+01  0.51100000000E-03 0. -1.
        -11    1    3    3    0    0 -0.57410539978E+01  0.83779950886E+01 -0.11958129931E+02  0.15689084563E+02  0.51100000000E-03 0.  1.
         12    1    3    3    0    0  0.72689724384E+01  0.16001305287E+02 -0.14547901308E+02  0.22814932910E+02  0.00000000000E+00 0. -1.
</event>
<event>
 7    1  0.2328615E-009  0.4778727E+02  0.7816164E-02  0.1312668E+00
        -11   -1    0    0    0    0  0.00000000000E+00  0.00000000000E+00  0.45593999997E+02  0.45594000000E+02  0.51100000000E-03 0. -1.
         11   -1    0    0    0    0 -0.00000000000E+00 -0.00000000000E+00 -0.45593999997E+02  0.45594000000E+02  0.51100000000E-03 0.  1.
    9900012    2    1    2    0    0 -0.27464948306E+01 -0.37632906267E+02  0.21443994769E+02  0.47787265218E+02  0.19999973434E+02 0.  0.
         12    1    1    2    0    0  0.27464948306E+01  0.37632906267E+02 -0.21443994769E+02  0.43400734782E+02  0.00000000000E+00 0. -1.
         11    1    3    3    0    0 -0.25872391686E+01 -0.23915076843E+02  0.18869156851E+02  0.30572369673E+02  0.51100000000E-03 0. -1.
        -11    1    3    3    0    0 -0.39443206592E+01 -0.96449106325E+01  0.44728876446E+01  0.11339695354E+02  0.51100000000E-03 0.  1.
        -12    1    3    3    0    0  0.37850649972E+01 -0.40729187923E+01 -0.18980497266E+01  0.58752001911E+01  0.00000000000E+00 0.  1.
</event>
<event>
 7    1  0.2328615E-009  0.4778727E+02  0.7816164E-02  0.1312668E+00
        -11   -1    0    0    0    0  0.00000000000E+00  0.00000000000E+00  0.45593999997E+02  0.45594000000E+02  0.51100000000E-03 0.  1.
         11   -1    0    0    0    0 -0.00000000000E+00 -0.00000000000E+00 -0.45593999997E+02  0.45594000000E+02  0.51100000000E-03 0. -1.
    9900012    2    1    2    0    0 -0.59779221119E+01  0.32579642525E+02  0.28043798498E+02  0.47787270812E+02  0.19999998940E+02 0.  0.
         12    1    1    2    0    0  0.59779221119E+01 -0.32579642525E+02 -0.28043798498E+02  0.43400729188E+02  0.00000000000E+00 0. -1.
         11    1    3    3    0    0  0.41435172619E+01  0.51509622946E+01  0.20160121564E+01  0.69112555398E+01  0.51100000000E-03 0. -1.
        -11    1    3    3    0    0 -0.60450810792E+00  0.13554124831E+02  0.17101809098E+02  0.21830061948E+02  0.51100000000E-03 0.  1.
         12    1    3    3    0    0 -0.95169312659E+01  0.13874555400E+02  0.89259772438E+01  0.19045953324E+02  0.00000000000E+00 0. -1.
</event>
<event>
 7    1  0.2328615E-009  0.4778727E+02  0.7816164E-02  0.1312668E+00
        -11   -1    0    0    0    0  0.00000000000E+00  0.00000000000E+00  0.45593999997E+02  0.45594000000E+02  0.51100000000E-03 0. -1.
         11   -1    0    0    0    0 -0.00000000000E+00 -0.00000000000E+00 -0.45593999997E+02  0.45594000000E+02  0.51100000000E-03 0.  1.
    9900012    2    1    2    0    0 -0.29632459494E+02  0.26967126523E+02 -0.16682769723E+02  0.47787269888E+02  0.19999994729E+02 0.  0.
         12    1    1    2    0    0  0.29632459494E+02 -0.26967126523E+02  0.16682769723E+02  0.43400730112E+02  0.00000000000E+00 0. -1.
         11    1    3    3    0    0  0.12064696591E+01  0.15252832643E+01 -0.13588272663E+01  0.23724396464E+01  0.51100000000E-03 0. -1.
        -11    1    3    3    0    0 -0.19612390448E+01  0.96063432619E+01 -0.39771518609E+01  0.10580454936E+02  0.51100000000E-03 0.  1.
        -12    1    3    3    0    0 -0.28877690109E+02  0.15835499997E+02 -0.11346790596E+02  0.34834375306E+02  0.00000000000E+00 0.  1.
</event>
<event>
 7    1  0.2328615E-009  0.4778727E+02  0.7816164E-02  0.1312668E+00
        -11   -1    0    0    0    0  0.00000000000E+00  0.00000000000E+00  0.45593999997E+02  0.45594000000E+02  0.51100000000E-03 0.  1.
         11   -1    0    0    0    0 -0.00000000000E+00 -0.00000000000E+00 -0.45593999997E+02  0.45594000000E+02  0.51100000000E-03 0. -1.
    9900012    2    1    2    0    0 -0.14658202243E+02  0.65898643593E+01  0.40315438564E+02  0.47787265077E+02  0.19999972790E+02 0.  0.
         12    1    1    2    0    0  0.14658202243E+02 -0.65898643593E+01 -0.40315438564E+02  0.43400734923E+02  0.00000000000E+00 0. -1.
         11    1    3    3    0    0 -0.51880842068E+01  0.65360014201E+01  0.16618688784E+02  0.18596138026E+02  0.51100000000E-03 0. -1.
        -11    1    3    3    0    0  0.12932638831E+01 -0.65711648612E+00  0.15691310435E+02  0.15758221885E+02  0.51100000000E-03 0.  1.
        -12    1    3    3    0    0 -0.10763381920E+02  0.71097942526E+00  0.80054393450E+01  0.13432905166E+02  0.00000000000E+00 0.  1.
</event>
<event>
 7    1  0.2328615E-009  0.4778730E+02  0.7816164E-02  0.1312668E+00
        -11   -1    0    0    0    0  0.00000000000E+00  0.00000000000E+00  0.45593999997E+02  0.45594000000E+02  0.51100000000E-03 0. -1.
         11   -1    0    0    0    0 -0.00000000000E+00 -0.00000000000E+00 -0.45593999997E+02  0.45594000000E+02  0.51100000000E-03 0.  1.
    9900012    2    1    2    0    0 -0.42122988992E+02 -0.74717097906E+01 -0.73108117458E+01  0.47787301651E+02  0.20000139546E+02 0.  0.
         12    1    1    2    0    0  0.42122988992E+02  0.74717097906E+01  0.73108117458E+01  0.43400698349E+02  0.00000000000E+00 0. -1.
         11    1    3    3    0    0 -0.20402553430E+02 -0.95224439368E+01 -0.71375252383E+01  0.23619597621E+02  0.51100000000E-03 0. -1.
        -11    1    3    3    0    0 -0.18276799188E+02 -0.12130327009E+01 -0.31224749673E+01  0.18581245574E+02  0.51100000000E-03 0.  1.
         12    1    3    3    0    0 -0.34436363740E+01  0.32637668471E+01  0.29491884598E+01  0.55864584559E+01  0.00000000000E+00 0. -1.
</event>
<event>
 7    1  0.2328615E-009  0.4778724E+02  0.7816164E-02  0.1312668E+00
        -11   -1    0    0    0    0  0.00000000000E+00  0.00000000000E+00  0.45593999997E+02  0.45594000000E+02  0.51100000000E-03 0. -1.
         11   -1    0    0    0    0 -0.00000000000E+00 -0.00000000000E+00 -0.45593999997E+02  0.45594000000E+02  0.51100000000E-03 0.  1.
    9900012    2    1    2    0    0 -0.33310987325E+02  0.19111713344E+02 -0.20217481679E+02  0.47787239305E+02  0.19999855286E+02 0.  0.
         12    1    1    2    0    0  0.33310987325E+02 -0.19111713344E+02  0.20217481679E+02  0.43400760695E+02  0.00000000000E+00 0. -1.
         11    1    3    3    0    0 -0.13316350531E+02  0.76950606205E+01  0.18531802025E+01  0.15491075707E+02  0.51100000000E-03 0. -1.
        -11    1    3    3    0    0 -0.68229121619E+01  0.66722501493E+01 -0.98145846429E+01  0.13689306936E+02  0.51100000000E-03 0.  1.
        -12    1    3    3    0    0 -0.13171724631E+02  0.47444025738E+01 -0.12256077239E+02  0.18606856662E+02  0.00000000000E+00 0.  1.
</event>
<event>
 7    1  0.2328615E-009  0.4778727E+02  0.7816164E-02  0.1312668E+00
        -11   -1    0    0    0    0  0.00000000000E+00  0.00000000000E+00  0.45593999997E+02  0.45594000000E+02  0.51100000000E-03 0.  1.
         11   -1    0    0    0    0 -0.00000000000E+00 -0.00000000000E+00 -0.45593999997E+02  0.45594000000E+02  0.51100000000E-03 0. -1.
    9900012    2    1    2    0    0  0.18790730925E+02 -0.37298132686E+02 -0.11805978245E+02  0.47787269673E+02  0.19999993748E+02 0.  0.
         12    1    1    2    0    0 -0.18790730925E+02  0.37298132686E+02  0.11805978245E+02  0.43400730327E+02  0.00000000000E+00 0. -1.
         11    1    3    3    0    0  0.22785552825E+01 -0.14282878737E+01  0.43827307410E+00  0.27246841971E+01  0.51100000000E-03 0. -1.
        -11    1    3    3    0    0  0.17154901943E+02 -0.15965905245E+02 -0.72634235330E+01  0.24534834678E+02  0.51100000000E-03 0.  1.
         12    1    3    3    0    0 -0.64272630067E+00 -0.19903939568E+02 -0.49808277862E+01  0.20527750798E+02  0.00000000000E+00 0. -1.
</event>
<event>
 7    1  0.2328615E-009  0.4778727E+02  0.7816164E-02  0.1312668E+00
        -11   -1    0    0    0    0  0.00000000000E+00  0.00000000000E+00  0.45593999997E+02  0.45594000000E+02  0.51100000000E-03 0.  1.
         11   -1    0    0    0    0 -0.00000000000E+00 -0.00000000000E+00 -0.45593999997E+02  0.45594000000E+02  0.51100000000E-03 0. -1.
    9900012    2    1    2    0    0 -0.29259229450E+02 -0.24773006671E+02  0.20342539937E+02  0.47787270759E+02  0.19999998700E+02 0.  0.
         12    1    1    2    0    0  0.29259229450E+02  0.24773006671E+02 -0.20342539937E+02  0.43400729241E+02  0.00000000000E+00 0. -1.
         11    1    3    3    0    0 -0.51302254149E+01  0.23417920822E+00 -0.15832058664E+01  0.53740667827E+01  0.51100000000E-03 0. -1.
        -11    1    3    3    0    0 -0.65371712340E+01 -0.65216096891E+01  0.77049119089E+00  0.92660486517E+01  0.51100000000E-03 0.  1.
        -12    1    3    3    0    0 -0.17591832801E+02 -0.18485576191E+02  0.21155254613E+02  0.33147155325E+02  0.00000000000E+00 0.  1.
</event>
<event>
 7    1  0.2328615E-009  0.4778727E+02  0.7816164E-02  0.1312668E+00
        -11   -1    0    0    0    0  0.00000000000E+00  0.00000000000E+00  0.45593999997E+02  0.45594000000E+02  0.51100000000E-03 0.  1.
         11   -1    0    0    0    0 -0.00000000000E+00 -0.00000000000E+00 -0.45593999997E+02  0.45594000000E+02  0.51100000000E-03 0. -1.
    9900012    2    1    2    0    0 -0.26258793048E+02  0.21147558407E+02  0.27329106507E+02  0.47787268423E+02  0.19999988049E+02 0.  0.
         12    1    1    2    0    0  0.26258793048E+02 -0.21147558407E+02 -0.27329106507E+02  0.43400731577E+02  0.00000000000E+00 0. -1.
         11    1    3    3    0    0 -0.13356089647E+02  0.10057073593E+02  0.18400436293E+02  0.24861735980E+02  0.51100000000E-03 0.  1.
        -11    1    3    3    0    0 -0.10588835050E+01  0.37893678457E+01  0.80790955116E+01  0.89862298820E+01  0.51100000000E-03 0. -1.
         12    1    3    3    0    0 -0.11843819896E+02  0.73011169685E+01  0.84957470272E+00  0.13939302561E+02  0.00000000000E+00 0. -1.
</event>
<event>
 7    1  0.2328615E-009  0.4778727E+02  0.7816164E-02  0.1312668E+00
        -11   -1    0    0    0    0  0.00000000000E+00  0.00000000000E+00  0.45593999997E+02  0.45594000000E+02  0.51100000000E-03 0. -1.
         11   -1    0    0    0    0 -0.00000000000E+00 -0.00000000000E+00 -0.45593999997E+02  0.45594000000E+02  0.51100000000E-03 0.  1.
    9900012    2    1    2    0    0 -0.27578322566E+02  0.67014339479E+01 -0.32835196458E+02  0.47787271677E+02  0.20000002884E+02 0.  0.
         12    1    1    2    0    0  0.27578322566E+02 -0.67014339479E+01  0.32835196458E+02  0.43400728323E+02  0.00000000000E+00 0. -1.
         11    1    3    3    0    0 -0.11263896773E+02  0.13503245082E+01 -0.15824178379E+02  0.19470576992E+02  0.51100000000E-03 0.  1.
        -11    1    3    3    0    0 -0.54745837172E+01 -0.49405802776E+01 -0.79214862713E+01  0.10822677366E+02  0.51100000000E-03 0. -1.
         12    1    3    3    0    0 -0.10839842075E+02  0.10291689717E+02 -0.90895318085E+01  0.17494017319E+02  0.00000000000E+00 0. -1.
</event>
<event>
 7    1  0.2328615E-009  0.4778727E+02  0.7816164E-02  0.1312668E+00
        -11   -1    0    0    0    0  0.00000000000E+00  0.00000000000E+00  0.45593999997E+02  0.45594000000E+02  0.51100000000E-03 0.  1.
         11   -1    0    0    0    0 -0.00000000000E+00 -0.00000000000E+00 -0.45593999997E+02  0.45594000000E+02  0.51100000000E-03 0. -1.
    9900012    2    1    2    0    0 -0.27604315867E+02  0.23071051540E+02  0.24276570753E+02  0.47787267735E+02  0.19999984911E+02 0.  0.
         12    1    1    2    0    0  0.27604315867E+02 -0.23071051540E+02 -0.24276570753E+02  0.43400732265E+02  0.00000000000E+00 0. -1.
         11    1    3    3    0    0 -0.25301117818E+01  0.12444275592E+01 -0.11225124325E+01  0.30348146567E+01  0.51100000000E-03 0. -1.
        -11    1    3    3    0    0 -0.44834343335E+01  0.14033547337E+02  0.11794896334E+02  0.18872233944E+02  0.51100000000E-03 0.  1.
        -12    1    3    3    0    0 -0.20590769751E+02  0.77930766441E+01  0.13604186852E+02  0.25880219134E+02  0.00000000000E+00 0.  1.
</event>
<event>
 7    1  0.2328615E-009  0.4778727E+02  0.7816164E-02  0.1312668E+00
        -11   -1    0    0    0    0  0.00000000000E+00  0.00000000000E+00  0.45593999997E+02  0.45594000000E+02  0.51100000000E-03 0. -1.
         11   -1    0    0    0    0 -0.00000000000E+00 -0.00000000000E+00 -0.45593999997E+02  0.45594000000E+02  0.51100000000E-03 0.  1.
    9900012    2    1    2    0    0 -0.22833392689E+02  0.20051489761E+02 -0.30987052658E+02  0.47787268488E+02  0.19999988344E+02 0.  0.
         12    1    1    2    0    0  0.22833392689E+02 -0.20051489761E+02  0.30987052658E+02  0.43400731512E+02  0.00000000000E+00 0. -1.
         11    1    3    3    0    0 -0.25304949403E+01 -0.22116113651E+00 -0.60852086551E+01  0.65940944434E+01  0.51100000000E-03 0. -1.
        -11    1    3    3    0    0 -0.22794802637E+02  0.17249248656E+02 -0.19857636782E+02  0.34806110746E+02  0.51100000000E-03 0.  1.
        -12    1    3    3    0    0  0.24919048881E+01  0.30234022416E+01 -0.50442072210E+01  0.63870632981E+01  0.00000000000E+00 0.  1.
</event>
<event>
 7    1  0.2328615E-009  0.4778727E+02  0.7816164E-02  0.1312668E+00
        -11   -1    0    0    0    0  0.00000000000E+00  0.00000000000E+00  0.45593999997E+02  0.45594000000E+02  0.51100000000E-03 0.  1.
         11   -1    0    0    0    0 -0.00000000000E+00 -0.00000000000E+00 -0.45593999997E+02  0.45594000000E+02  0.51100000000E-03 0. -1.
    9900012    2    1    2    0    0  0.76270005934E+01  0.36693510213E+01  0.42567454064E+02  0.47787269356E+02  0.19999992300E+02 0.  0.
         12    1    1    2    0    0 -0.76270005934E+01 -0.36693510213E+01 -0.42567454064E+02  0.43400730644E+02  0.00000000000E+00 0. -1.
         11    1    3    3    0    0  0.60233243381E+01 -0.34105669596E+00  0.30796424738E+01  0.67735480938E+01  0.51100000000E-03 0. -1.
        -11    1    3    3    0    0  0.47265086976E+01  0.27228314571E+01  0.10524117847E+02  0.11853723143E+02  0.51100000000E-03 0.  1.
         12    1    3    3    0    0 -0.31228324423E+01  0.12875762602E+01  0.28963693743E+02  0.29159998119E+02  0.00000000000E+00 0. -1.
</event>
<event>
 7    1  0.2328615E-009  0.4778727E+02  0.7816164E-02  0.1312668E+00
        -11   -1    0    0    0    0  0.00000000000E+00  0.00000000000E+00  0.45593999997E+02  0.45594000000E+02  0.51100000000E-03 0.  1.
         11   -1    0    0    0    0 -0.00000000000E+00 -0.00000000000E+00 -0.45593999997E+02  0.45594000000E+02  0.51100000000E-03 0. -1.
    9900012    2    1    2    0    0  0.92290056528E+01  0.42343925240E+02 -0.23325407492E+01  0.47787270784E+02  0.19999998814E+02 0.  0.
         12    1    1    2    0    0 -0.92290056528E+01 -0.42343925240E+02  0.23325407492E+01  0.43400729216E+02  0.00000000000E+00 0. -1.
         11    1    3    3    0    0  0.54171428757E+00  0.10781968101E+02 -0.30081965239E+01  0.11206852239E+02  0.51100000000E-03 0. -1.
        -11    1    3    3    0    0  0.75214837318E+01  0.28446781672E+02  0.62578135521E+01  0.30082425695E+02  0.51100000000E-03 0.  1.
         12    1    3    3    0    0  0.11658076335E+01  0.31151754671E+01 -0.55821577774E+01  0.64979928502E+01  0.00000000000E+00 0. -1.
</event>
<event>
 7    1  0.2328615E-009  0.4778727E+02  0.7816164E-02  0.1312668E+00
        -11   -1    0    0    0    0  0.00000000000E+00  0.00000000000E+00  0.45593999997E+02  0.45594000000E+02  0.51100000000E-03 0.  1.
         11   -1    0    0    0    0 -0.00000000000E+00 -0.00000000000E+00 -0.45593999997E+02  0.45594000000E+02  0.51100000000E-03 0. -1.
    9900012    2    1    2    0    0  0.32810126596E+01 -0.16372496439E+02  0.40059949496E+02  0.47787271466E+02  0.20000001920E+02 0.  0.
         12    1    1    2    0    0 -0.32810126596E+01  0.16372496439E+02 -0.40059949496E+02  0.43400728534E+02  0.00000000000E+00 0. -1.
         11    1    3    3    0    0 -0.22281838813E+01 -0.62857026643E+01  0.18762929317E+02  0.19912869663E+02  0.51100000000E-03 0. -1.
        -11    1    3    3    0    0 -0.38722488762E+01  0.32086930015E+00  0.58098900787E+01  0.69894271192E+01  0.51100000000E-03 0.  1.
         12    1    3    3    0    0  0.93814454171E+01 -0.10407663075E+02  0.15487130100E+02  0.20884974684E+02  0.00000000000E+00 0. -1.
</event>
<event>
 7    1  0.2328615E-009  0.4778727E+02  0.7816164E-02  0.1312668E+00
        -11   -1    0    0    0    0  0.00000000000E+00  0.00000000000E+00  0.45593999997E+02  0.45594000000E+02  0.51100000000E-03 0.  1.
         11   -1    0    0    0    0 -0.00000000000E+00 -0.00000000000E+00 -0.45593999997E+02  0.45594000000E+02  0.51100000000E-03 0. -1.
    9900012    2    1    2    0    0  0.26607307943E+02  0.34273189943E+02  0.10113539284E+01  0.47787271647E+02  0.20000002745E+02 0.  0.
         12    1    1    2    0    0 -0.26607307943E+02 -0.34273189943E+02 -0.10113539284E+01  0.43400728353E+02  0.00000000000E+00 0. -1.
         11    1    3    3    0    0  0.38658675972E+01  0.63236743146E+01 -0.27131858317E+01  0.78927287255E+01  0.51100000000E-03 0. -1.
        -11    1    3    3    0    0  0.33615292703E+01  0.47326110150E+00  0.52327678744E+01  0.62374445885E+01  0.51100000000E-03 0.  1.
        -12    1    3    3    0    0  0.19379911075E+02  0.27476254527E+02 -0.15082281144E+01  0.33657098333E+02  0.00000000000E+00 0.  1.
</event>
<event>
 7    1  0.2328615E-009  0.4778727E+02  0.7816164E-02  0.1312668E+00
        -11   -1    0    0    0    0  0.00000000000E+00  0.00000000000E+00  0.45593999997E+02  0.45594000000E+02  0.51100000000E-03 0.  1.
         11   -1    0    0    0    0 -0.00000000000E+00 -0.00000000000E+00 -0.45593999997E+02  0.45594000000E+02  0.51100000000E-03 0. -1.
    9900012    2    1    2    0    0  0.82749104736E+01  0.38574078333E+02  0.18088381028E+02  0.47787272001E+02  0.20000004362E+02 0.  0.
         12    1    1    2    0    0 -0.82749104736E+01 -0.38574078333E+02 -0.18088381028E+02  0.43400727999E+02  0.00000000000E+00 0. -1.
         11    1    3    3    0    0 -0.30755599798E+01  0.16427155421E+01 -0.72464797029E+00  0.35612776477E+01  0.51100000000E-03 0. -1.
        -11    1    3    3    0    0  0.69762017399E+00  0.40901688214E+01  0.62167108200E+01  0.74741988584E+01  0.51100000000E-03 0.  1.
        -12    1    3    3    0    0  0.10652850279E+02  0.32841193970E+02  0.12596318178E+02  0.36751795495E+02  0.00000000000E+00 0.  1.
</event>
<event>
 7    1  0.2328615E-009  0.4778727E+02  0.7816164E-02  0.1312668E+00
        -11   -1    0    0    0    0  0.00000000000E+00  0.00000000000E+00  0.45593999997E+02  0.45594000000E+02  0.51100000000E-03 0.  1.
         11   -1    0    0    0    0 -0.00000000000E+00 -0.00000000000E+00 -0.45593999997E+02  0.45594000000E+02  0.51100000000E-03 0. -1.
    9900012    2    1    2    0    0 -0.11158386352E+00 -0.88605211513E+01  0.42486491092E+02  0.47787271765E+02  0.20000003283E+02 0.  0.
         12    1    1    2    0    0  0.11158386352E+00  0.88605211513E+01 -0.42486491092E+02  0.43400728235E+02  0.00000000000E+00 0. -1.
         11    1    3    3    0    0  0.46861815876E+01 -0.21293660228E+01  0.39212811039E+01  0.64707760963E+01  0.51100000000E-03 0. -1.
        -11    1    3    3    0    0  0.29419919411E+01 -0.45507151165E+01  0.24707981570E+02  0.25295230344E+02  0.51100000000E-03 0.  1.
         12    1    3    3    0    0 -0.77397573922E+01 -0.21804400120E+01  0.13857228419E+02  0.16021265324E+02  0.00000000000E+00 0. -1.
</event>
<event>
 7    1  0.2328615E-009  0.4778727E+02  0.7816164E-02  0.1312668E+00
        -11   -1    0    0    0    0  0.00000000000E+00  0.00000000000E+00  0.45593999997E+02  0.45594000000E+02  0.51100000000E-03 0. -1.
         11   -1    0    0    0    0 -0.00000000000E+00 -0.00000000000E+00 -0.45593999997E+02  0.45594000000E+02  0.51100000000E-03 0.  1.
    9900012    2    1    2    0    0 -0.22319493313E+02 -0.32823168739E+02  0.17552873613E+02  0.47787267750E+02  0.19999984977E+02 0.  0.
         12    1    1    2    0    0  0.22319493313E+02  0.32823168739E+02 -0.17552873613E+02  0.43400732250E+02  0.00000000000E+00 0. -1.
         11    1    3    3    0    0 -0.22744576984E+02 -0.19333081154E+02  0.10477749955E+02  0.31636482951E+02  0.51100000000E-03 0.  1.
        -11    1    3    3    0    0 -0.33584579014E+00 -0.90441287072E-01  0.16305705487E+01  0.16672530092E+01  0.51100000000E-03 0. -1.
        -12    1    3    3    0    0  0.76092946129E+00 -0.13399646298E+02  0.54445531084E+01  0.14483531789E+02  0.00000000000E+00 0.  1.
</event>
<event>
 7    1  0.2328615E-009  0.4778727E+02  0.7816164E-02  0.1312668E+00
        -11   -1    0    0    0    0  0.00000000000E+00  0.00000000000E+00  0.45593999997E+02  0.45594000000E+02  0.51100000000E-03 0.  1.
         11   -1    0    0    0    0 -0.00000000000E+00 -0.00000000000E+00 -0.45593999997E+02  0.45594000000E+02  0.51100000000E-03 0. -1.
    9900012    2    1    2    0    0 -0.31860375275E+02 -0.28817861591E+00  0.29469587482E+02  0.47787272518E+02  0.20000006719E+02 0.  0.
         12    1    1    2    0    0  0.31860375275E+02  0.28817861591E+00 -0.29469587482E+02  0.43400727482E+02  0.00000000000E+00 0. -1.
         11    1    3    3    0    0 -0.12972730542E+02  0.74109984198E+00  0.15419694780E+02  0.20164522163E+02  0.51100000000E-03 0.  1.
        -11    1    3    3    0    0 -0.13161475856E+02  0.61965997466E+01  0.81072051625E+01  0.16653800495E+02  0.51100000000E-03 0. -1.
         12    1    3    3    0    0 -0.57261688773E+01 -0.72258782045E+01  0.59426875395E+01  0.10968949860E+02  0.00000000000E+00 0. -1.
</event>
<event>
 7    1  0.2328615E-009  0.4778727E+02  0.7816164E-02  0.1312668E+00
        -11   -1    0    0    0    0  0.00000000000E+00  0.00000000000E+00  0.45593999997E+02  0.45594000000E+02  0.51100000000E-03 0.  1.
         11   -1    0    0    0    0 -0.00000000000E+00 -0.00000000000E+00 -0.45593999997E+02  0.45594000000E+02  0.51100000000E-03 0. -1.
    9900012    2    1    2    0    0 -0.25799845187E+02  0.50394319816E+01  0.34533974597E+02  0.47787270883E+02  0.19999999265E+02 0.  0.
         12    1    1    2    0    0  0.25799845187E+02 -0.50394319816E+01 -0.34533974597E+02  0.43400729117E+02  0.00000000000E+00 0. -1.
         11    1    3    3    0    0 -0.16158828948E+02  0.26280126493E+01  0.17053175347E+02  0.23639479544E+02  0.51100000000E-03 0. -1.
        -11    1    3    3    0    0 -0.91817581332E+01  0.71774646737E+01  0.14066021084E+02  0.18266735641E+02  0.51100000000E-03 0.  1.
         12    1    3    3    0    0 -0.45925810614E+00 -0.47660453414E+01  0.34147781661E+01  0.58810556984E+01  0.00000000000E+00 0. -1.
</event>
<event>
 7    1  0.2328615E-009  0.4778727E+02  0.7816164E-02  0.1312668E+00
        -11   -1    0    0    0    0  0.00000000000E+00  0.00000000000E+00  0.45593999997E+02  0.45594000000E+02  0.51100000000E-03 0. -1.
         11   -1    0    0    0    0 -0.00000000000E+00 -0.00000000000E+00 -0.45593999997E+02  0.45594000000E+02  0.51100000000E-03 0.  1.
    9900012    2    1    2    0    0  0.42809716444E+02 -0.21379048017E+01 -0.68103398380E+01  0.47787272038E+02  0.20000004529E+02 0.  0.
         12    1    1    2    0    0 -0.42809716444E+02  0.21379048017E+01  0.68103398380E+01  0.43400727962E+02  0.00000000000E+00 0. -1.
         11    1    3    3    0    0  0.75009273476E+01 -0.16328936061E+01  0.26508450733E+01  0.81214058183E+01  0.51100000000E-03 0. -1.
        -11    1    3    3    0    0  0.26759568535E+02  0.40258154831E+01 -0.14420818132E+01  0.27099101437E+02  0.51100000000E-03 0.  1.
         12    1    3    3    0    0  0.85492205610E+01 -0.45308266786E+01 -0.80191030980E+01  0.12566764782E+02  0.00000000000E+00 0. -1.
</event>
<event>
 7    1  0.2328615E-009  0.4778727E+02  0.7816164E-02  0.1312668E+00
        -11   -1    0    0    0    0  0.00000000000E+00  0.00000000000E+00  0.45593999997E+02  0.45594000000E+02  0.51100000000E-03 0. -1.
         11   -1    0    0    0    0 -0.00000000000E+00 -0.00000000000E+00 -0.45593999997E+02  0.45594000000E+02  0.51100000000E-03 0.  1.
    9900012    2    1    2    0    0 -0.32580980916E+02  0.66043364812E+01 -0.27901357591E+02  0.47787270361E+02  0.19999996883E+02 0.  0.
         12    1    1    2    0    0  0.32580980916E+02 -0.66043364812E+01  0.27901357591E+02  0.43400729639E+02  0.00000000000E+00 0. -1.
         11    1    3    3    0    0 -0.11099666717E+02 -0.28710856129E+01 -0.69095301509E+01  0.13386087591E+02  0.51100000000E-03 0. -1.
        -11    1    3    3    0    0 -0.12803038299E+02 -0.19011761295E+01 -0.97657675120E+01  0.16214267659E+02  0.51100000000E-03 0.  1.
         12    1    3    3    0    0 -0.86782758991E+01  0.11376598224E+02 -0.11226059928E+02  0.18186915110E+02  0.00000000000E+00 0. -1.
</event>
<event>
 7    1  0.2328615E-009  0.4778727E+02  0.7816164E-02  0.1312668E+00
        -11   -1    0    0    0    0  0.00000000000E+00  0.00000000000E+00  0.45593999997E+02  0.45594000000E+02  0.51100000000E-03 0.  1.
         11   -1    0    0    0    0 -0.00000000000E+00 -0.00000000000E+00 -0.45593999997E+02  0.45594000000E+02  0.51100000000E-03 0. -1.
    9900012    2    1    2    0    0  0.13473840016E+02 -0.10362066798E+02  0.39933774112E+02  0.47787272956E+02  0.20000008717E+02 0.  0.
         12    1    1    2    0    0 -0.13473840016E+02  0.10362066798E+02 -0.39933774112E+02  0.43400727044E+02  0.00000000000E+00 0. -1.
         11    1    3    3    0    0  0.49542577339E+01  0.12552521261E+01  0.38334802694E+01  0.63887321772E+01  0.51100000000E-03 0.  1.
        -11    1    3    3    0    0 -0.32408771106E+01 -0.76887654938E+00  0.24395074921E+01  0.41286381119E+01  0.51100000000E-03 0. -1.
        -12    1    3    3    0    0  0.11760459393E+02 -0.10848442375E+02  0.33660786350E+02  0.37269902667E+02  0.00000000000E+00 0.  1.
</event>
<event>
 7    1  0.2328615E-009  0.4778724E+02  0.7816164E-02  0.1312668E+00
        -11   -1    0    0    0    0  0.00000000000E+00  0.00000000000E+00  0.45593999997E+02  0.45594000000E+02  0.51100000000E-03 0.  1.
         11   -1    0    0    0    0 -0.00000000000E+00 -0.00000000000E+00 -0.45593999997E+02  0.45594000000E+02  0.51100000000E-03 0. -1.
    9900012    2    1    2    0    0 -0.16481242007E+02  0.25898284585E+02  0.30680177583E+02  0.47787242183E+02  0.19999868410E+02 0.  0.
         12    1    1    2    0    0  0.16481242007E+02 -0.25898284585E+02 -0.30680177583E+02  0.43400757817E+02  0.00000000000E+00 0. -1.
         11    1    3    3    0    0 -0.10620751307E+01  0.36879224269E+01 -0.41198393013E+00  0.38598583432E+01  0.51100000000E-03 0. -1.
        -11    1    3    3    0    0 -0.15063918244E+02  0.92763830702E+01  0.14419767941E+02  0.22823291250E+02  0.51100000000E-03 0.  1.
         12    1    3    3    0    0 -0.35524863158E+00  0.12933979088E+02  0.16672393571E+02  0.21104092590E+02  0.00000000000E+00 0. -1.
</event>
<event>
 7    1  0.2328615E-009  0.4778727E+02  0.7816164E-02  0.1312668E+00
        -11   -1    0    0    0    0  0.00000000000E+00  0.00000000000E+00  0.45593999997E+02  0.45594000000E+02  0.51100000000E-03 0.  1.
         11   -1    0    0    0    0 -0.00000000000E+00 -0.00000000000E+00 -0.45593999997E+02  0.45594000000E+02  0.51100000000E-03 0. -1.
    9900012    2    1    2    0    0  0.34678320030E+02  0.39681526170E+01  0.25793240551E+02  0.47787269898E+02  0.19999994772E+02 0.  0.
         12    1    1    2    0    0 -0.34678320030E+02 -0.39681526170E+01 -0.25793240551E+02  0.43400730102E+02  0.00000000000E+00 0. -1.
         11    1    3    3    0    0 -0.48270392532E+00  0.23804027581E+01  0.16885392856E+01  0.29581219634E+01  0.51100000000E-03 0. -1.
        -11    1    3    3    0    0  0.49625597459E+01  0.26153207945E+00 -0.15253533916E+01  0.51982787046E+01  0.51100000000E-03 0.  1.
         12    1    3    3    0    0  0.30198464209E+02  0.13262177795E+01  0.25630054657E+02  0.39630869230E+02  0.00000000000E+00 0. -1.
</event>
<event>
 7    1  0.2328615E-009  0.4778728E+02  0.7816164E-02  0.1312668E+00
        -11   -1    0    0    0    0  0.00000000000E+00  0.00000000000E+00  0.45593999997E+02  0.45594000000E+02  0.51100000000E-03 0.  1.
         11   -1    0    0    0    0 -0.00000000000E+00 -0.00000000000E+00 -0.45593999997E+02  0.45594000000E+02  0.51100000000E-03 0. -1.
    9900012    2    1    2    0    0  0.34926906643E+02  0.20082383982E+02  0.16137895530E+02  0.47787278506E+02  0.20000034022E+02 0.  0.
         12    1    1    2    0    0 -0.34926906643E+02 -0.20082383982E+02 -0.16137895530E+02  0.43400721494E+02  0.00000000000E+00 0. -1.
         11    1    3    3    0    0  0.11221489722E+02  0.10765440426E+02  0.15624255364E+02  0.22043908344E+02  0.51100000000E-03 0. -1.
        -11    1    3    3    0    0  0.56116875371E+01  0.33538580321E+01  0.13440064572E+01  0.66742605831E+01  0.51100000000E-03 0.  1.
         12    1    3    3    0    0  0.18093729383E+02  0.59630855243E+01 -0.83036629122E+00  0.19069109579E+02  0.00000000000E+00 0. -1.
</event>
<event>
 7    1  0.2328615E-009  0.4778727E+02  0.7816164E-02  0.1312668E+00
        -11   -1    0    0    0    0  0.00000000000E+00  0.00000000000E+00  0.45593999997E+02  0.45594000000E+02  0.51100000000E-03 0.  1.
         11   -1    0    0    0    0 -0.00000000000E+00 -0.00000000000E+00 -0.45593999997E+02  0.45594000000E+02  0.51100000000E-03 0. -1.
    9900012    2    1    2    0    0  0.22254209790E+02  0.35234275577E+02  0.12121023832E+02  0.47787271347E+02  0.20000001381E+02 0.  0.
         12    1    1    2    0    0 -0.22254209790E+02 -0.35234275577E+02 -0.12121023832E+02  0.43400728653E+02  0.00000000000E+00 0. -1.
         11    1    3    3    0    0  0.27336666885E+01  0.11842666126E+02  0.62556985130E+01  0.13669507624E+02  0.51100000000E-03 0. -1.
        -11    1    3    3    0    0  0.21791459290E+02  0.21880510434E+02  0.54704772848E+01  0.31361609602E+02  0.51100000000E-03 0.  1.
        -12    1    3    3    0    0 -0.22709161877E+01  0.15110990172E+01  0.39484803421E+00  0.27561541215E+01  0.00000000000E+00 0.  1.
</event>
<event>
 7    1  0.2328615E-009  0.4778727E+02  0.7816164E-02  0.1312668E+00
        -11   -1    0    0    0    0  0.00000000000E+00  0.00000000000E+00  0.45593999997E+02  0.45594000000E+02  0.51100000000E-03 0.  1.
         11   -1    0    0    0    0 -0.00000000000E+00 -0.00000000000E+00 -0.45593999997E+02  0.45594000000E+02  0.51100000000E-03 0. -1.
    9900012    2    1    2    0    0  0.36991376546E+01 -0.36134627286E+02  0.23753498344E+02  0.47787267379E+02  0.19999983287E+02 0.  0.
         12    1    1    2    0    0 -0.36991376546E+01  0.36134627286E+02 -0.23753498344E+02  0.43400732621E+02  0.00000000000E+00 0. -1.
         11    1    3    3    0    0  0.84956301070E+01 -0.12492868039E+02  0.82685542914E+01  0.17222557100E+02  0.51100000000E-03 0. -1.
        -11    1    3    3    0    0  0.10411562337E+01 -0.74415341428E+01  0.99675339699E+01  0.12482474530E+02  0.51100000000E-03 0.  1.
        -12    1    3    3    0    0 -0.58376486860E+01 -0.16200225105E+02  0.55174100827E+01  0.18082235748E+02  0.00000000000E+00 0.  1.
</event>
<event>
 7    1  0.2328615E-009  0.4778728E+02  0.7816164E-02  0.1312668E+00
        -11   -1    0    0    0    0  0.00000000000E+00  0.00000000000E+00  0.45593999997E+02  0.45594000000E+02  0.51100000000E-03 0.  1.
         11   -1    0    0    0    0 -0.00000000000E+00 -0.00000000000E+00 -0.45593999997E+02  0.45594000000E+02  0.51100000000E-03 0. -1.
    9900012    2    1    2    0    0 -0.15853533787E+02  0.40400221318E+02  0.33220494832E+00  0.47787276778E+02  0.20000026141E+02 0.  0.
         12    1    1    2    0    0  0.15853533787E+02 -0.40400221318E+02 -0.33220494832E+00  0.43400723222E+02  0.00000000000E+00 0. -1.
         11    1    3    3    0    0 -0.82750421516E+01  0.11309020111E+02 -0.78408187638E+01  0.16057667877E+02  0.51100000000E-03 0. -1.
        -11    1    3    3    0    0 -0.14700099183E+01  0.65235794478E+01 -0.69800764949E+00  0.67234836886E+01  0.51100000000E-03 0.  1.
        -12    1    3    3    0    0 -0.61084817175E+01  0.22567621759E+02  0.88710313616E+01  0.25006125213E+02  0.00000000000E+00 0.  1.
</event>
<event>
 7    1  0.2328615E-009  0.4778727E+02  0.7816164E-02  0.1312668E+00
        -11   -1    0    0    0    0  0.00000000000E+00  0.00000000000E+00  0.45593999997E+02  0.45594000000E+02  0.51100000000E-03 0.  1.
         11   -1    0    0    0    0 -0.00000000000E+00 -0.00000000000E+00 -0.45593999997E+02  0.45594000000E+02  0.51100000000E-03 0. -1.
    9900012    2    1    2    0    0 -0.12353335422E+02 -0.41320042894E+02  0.48654476471E+01  0.47787269343E+02  0.19999992242E+02 0.  0.
         12    1    1    2    0    0  0.12353335422E+02  0.41320042894E+02 -0.48654476471E+01  0.43400730657E+02  0.00000000000E+00 0. -1.
         11    1    3    3    0    0  0.16651897391E+01 -0.94511969985E+01 -0.57601999816E+00  0.96140408191E+01  0.51100000000E-03 0. -1.
        -11    1    3    3    0    0 -0.44353129159E+01 -0.22798662452E+02  0.83139240688E+01  0.24669259088E+02  0.51100000000E-03 0.  1.
         12    1    3    3    0    0 -0.95832122449E+01 -0.90701834434E+01 -0.28724564235E+01  0.13503969436E+02  0.00000000000E+00 0. -1.
</event>
<event>
 7    1  0.2328615E-009  0.4778729E+02  0.7816164E-02  0.1312668E+00
        -11   -1    0    0    0    0  0.00000000000E+00  0.00000000000E+00  0.45593999997E+02  0.45594000000E+02  0.51100000000E-03 0.  1.
         11   -1    0    0    0    0 -0.00000000000E+00 -0.00000000000E+00 -0.45593999997E+02  0.45594000000E+02  0.51100000000E-03 0. -1.
    9900012    2    1    2    0    0 -0.27373118306E+02 -0.46234800373E+01  0.33361019286E+02  0.47787288240E+02  0.20000078402E+02 0.  0.
         12    1    1    2    0    0  0.27373118306E+02  0.46234800373E+01 -0.33361019286E+02  0.43400711760E+02  0.00000000000E+00 0. -1.
         11    1    3    3    0    0 -0.66145540333E+01  0.23790724888E+01  0.31693069132E+01  0.77108246990E+01  0.51100000000E-03 0.  1.
        -11    1    3    3    0    0 -0.74590603944E+01 -0.89045085113E+01  0.78946540769E+01  0.14044693555E+02  0.51100000000E-03 0. -1.
         12    1    3    3    0    0 -0.13299503879E+02  0.19019559852E+01  0.22297058296E+02  0.26031769986E+02  0.00000000000E+00 0. -1.
</event>
<event>
 7    1  0.2328615E-009  0.4778727E+02  0.7816164E-02  0.1312668E+00
        -11   -1    0    0    0    0  0.00000000000E+00  0.00000000000E+00  0.45593999997E+02  0.45594000000E+02  0.51100000000E-03 0.  1.
         11   -1    0    0    0    0 -0.00000000000E+00 -0.00000000000E+00 -0.45593999997E+02  0.45594000000E+02  0.51100000000E-03 0. -1.
    9900012    2    1    2    0    0 -0.31235484326E+02  0.26655413029E+02  0.14051930585E+02  0.47787270997E+02  0.19999999782E+02 0.  0.
         12    1    1    2    0    0  0.31235484326E+02 -0.26655413029E+02 -0.14051930585E+02  0.43400729003E+02  0.00000000000E+00 0. -1.
         11    1    3    3    0    0 -0.20799620318E+01  0.17515927119E+01  0.48471737863E+01  0.55578244896E+01  0.51100000000E-03 0. -1.
        -11    1    3    3    0    0 -0.13962998922E+02  0.20194551645E+02  0.94880827905E+01  0.26321264604E+02  0.51100000000E-03 0.  1.
         12    1    3    3    0    0 -0.15192523373E+02  0.47092686721E+01 -0.28332599128E+00  0.15908181904E+02  0.00000000000E+00 0. -1.
</event>
<event>
 7    1  0.2328615E-009  0.4778726E+02  0.7816164E-02  0.1312668E+00
        -11   -1    0    0    0    0  0.00000000000E+00  0.00000000000E+00  0.45593999997E+02  0.45594000000E+02  0.51100000000E-03 0.  1.
         11   -1    0    0    0    0 -0.00000000000E+00 -0.00000000000E+00 -0.45593999997E+02  0.45594000000E+02  0.51100000000E-03 0. -1.
    9900012    2    1    2    0    0 -0.33990033341E+01 -0.15233160998E+02  0.40497186377E+02  0.47787256664E+02  0.19999934432E+02 0.  0.
         12    1    1    2    0    0  0.33990033341E+01  0.15233160998E+02 -0.40497186377E+02  0.43400743336E+02  0.00000000000E+00 0. -1.
         11    1    3    3    0    0 -0.27453033643E+01 -0.17196407832E+01  0.14802058675E+02  0.15152385827E+02  0.51100000000E-03 0. -1.
        -11    1    3    3    0    0 -0.13893580216E+01 -0.10450389592E+02  0.27179482213E+02  0.29152447787E+02  0.51100000000E-03 0.  1.
         12    1    3    3    0    0  0.73565805183E+00 -0.30631306229E+01 -0.14843545106E+01  0.34824230494E+01  0.00000000000E+00 0. -1.
</event>
<event>
 7    1  0.2328615E-009  0.4778730E+02  0.7816164E-02  0.1312668E+00
        -11   -1    0    0    0    0  0.00000000000E+00  0.00000000000E+00  0.45593999997E+02  0.45594000000E+02  0.51100000000E-03 0.  1.
         11   -1    0    0    0    0 -0.00000000000E+00 -0.00000000000E+00 -0.45593999997E+02  0.45594000000E+02  0.51100000000E-03 0. -1.
    9900012    2    1    2    0    0  0.26341313972E+02  0.17661556758E+02  0.29628122597E+02  0.47787296578E+02  0.20000116419E+02 0.  0.
         12    1    1    2    0    0 -0.26341313972E+02 -0.17661556758E+02 -0.29628122597E+02  0.43400703422E+02  0.00000000000E+00 0. -1.
         11    1    3    3    0    0  0.87167388339E+01  0.10323178770E+00  0.72406506150E+01  0.11332220184E+02  0.51100000000E-03 0. -1.
        -11    1    3    3    0    0  0.12048580436E+02  0.20819654022E+01  0.11010078250E+02  0.16453713678E+02  0.51100000000E-03 0.  1.
        -12    1    3    3    0    0  0.55759947020E+01  0.15476359569E+02  0.11377393731E+02  0.20001362717E+02  0.00000000000E+00 0.  1.
</event>
<event>
 7    1  0.2328615E-009  0.4778727E+02  0.7816164E-02  0.1312668E+00
        -11   -1    0    0    0    0  0.00000000000E+00  0.00000000000E+00  0.45593999997E+02  0.45594000000E+02  0.51100000000E-03 0.  1.
         11   -1    0    0    0    0 -0.00000000000E+00 -0.00000000000E+00 -0.45593999997E+02  0.45594000000E+02  0.51100000000E-03 0. -1.
    9900012    2    1    2    0    0  0.99667185594E+01 -0.39699935529E+02  0.14429242430E+02  0.47787269627E+02  0.19999993536E+02 0.  0.
         12    1    1    2    0    0 -0.99667185594E+01  0.39699935529E+02 -0.14429242430E+02  0.43400730373E+02  0.00000000000E+00 0. -1.
         11    1    3    3    0    0  0.39693244602E+01 -0.17276693557E+02  0.52679832406E+01  0.18493007452E+02  0.51100000000E-03 0.  1.
        -11    1    3    3    0    0  0.11062731829E+02 -0.12562184415E+02  0.55218226651E+01  0.17626203182E+02  0.51100000000E-03 0. -1.
        -12    1    3    3    0    0 -0.50653377296E+01 -0.98610575568E+01  0.36394365247E+01  0.11668058993E+02  0.00000000000E+00 0.  1.
</event>
<event>
 7    1  0.2328615E-009  0.4778727E+02  0.7816164E-02  0.1312668E+00
        -11   -1    0    0    0    0  0.00000000000E+00  0.00000000000E+00  0.45593999997E+02  0.45594000000E+02  0.51100000000E-03 0.  1.
         11   -1    0    0    0    0 -0.00000000000E+00 -0.00000000000E+00 -0.45593999997E+02  0.45594000000E+02  0.51100000000E-03 0. -1.
    9900012    2    1    2    0    0 -0.40876805769E+02 -0.72530624200E+01 -0.12653183397E+02  0.47787271729E+02  0.20000003121E+02 0.  0.
         12    1    1    2    0    0  0.40876805769E+02  0.72530624200E+01  0.12653183397E+02  0.43400728271E+02  0.00000000000E+00 0. -1.
         11    1    3    3    0    0  0.52701446795E+00 -0.33263322059E+01 -0.94338949252E+00  0.34974582469E+01  0.51100000000E-03 0. -1.
        -11    1    3    3    0    0 -0.66647165360E+01 -0.43686280642E+01 -0.23891781522E+01  0.83193467396E+01  0.51100000000E-03 0.  1.
        -12    1    3    3    0    0 -0.34739103701E+02  0.44189785012E+00 -0.93206157523E+01  0.35970466743E+02  0.00000000000E+00 0.  1.
</event>
<event>
 7    1  0.2328615E-009  0.4778727E+02  0.7816164E-02  0.1312668E+00
        -11   -1    0    0    0    0  0.00000000000E+00  0.00000000000E+00  0.45593999997E+02  0.45594000000E+02  0.51100000000E-03 0.  1.
         11   -1    0    0    0    0 -0.00000000000E+00 -0.00000000000E+00 -0.45593999997E+02  0.45594000000E+02  0.51100000000E-03 0. -1.
    9900012    2    1    2    0    0 -0.40770375521E+02 -0.14266380867E+02  0.42272952485E+01  0.47787272261E+02  0.20000005545E+02 0.  0.
         12    1    1    2    0    0  0.40770375521E+02  0.14266380867E+02 -0.42272952485E+01  0.43400727739E+02  0.00000000000E+00 0. -1.
         11    1    3    3    0    0 -0.17320322905E+01 -0.18625718287E+00 -0.20654498688E+01  0.27019827932E+01  0.51100000000E-03 0. -1.
        -11    1    3    3    0    0 -0.22308284814E+02 -0.11015160139E+02 -0.40086242637E+01  0.25200444301E+02  0.51100000000E-03 0.  1.
         12    1    3    3    0    0 -0.16730058417E+02 -0.30649635454E+01  0.10301369381E+02  0.19884845166E+02  0.00000000000E+00 0. -1.
</event>
<event>
 7    1  0.2328615E-009  0.4778728E+02  0.7816164E-02  0.1312668E+00
        -11   -1    0    0    0    0  0.00000000000E+00  0.00000000000E+00  0.45593999997E+02  0.45594000000E+02  0.51100000000E-03 0. -1.
         11   -1    0    0    0    0 -0.00000000000E+00 -0.00000000000E+00 -0.45593999997E+02  0.45594000000E+02  0.51100000000E-03 0.  1.
    9900012    2    1    2    0    0  0.43260955546E+01 -0.43158455475E+02 -0.15017633565E+01  0.47787277945E+02  0.20000031461E+02 0.  0.
         12    1    1    2    0    0 -0.43260955546E+01  0.43158455475E+02  0.15017633565E+01  0.43400722055E+02  0.00000000000E+00 0. -1.
         11    1    3    3    0    0  0.33043488022E+01  0.97970146785E+00 -0.29742029716E+00  0.34593344832E+01  0.51100000000E-03 0. -1.
        -11    1    3    3    0    0  0.11562356568E+01 -0.16434243109E+02 -0.21066731080E+01  0.16609012593E+02  0.51100000000E-03 0.  1.
         12    1    3    3    0    0 -0.13448890441E+00 -0.27703913834E+02  0.90233004858E+00  0.27718930869E+02  0.00000000000E+00 0. -1.
</event>
<event>
 7    1  0.2328615E-009  0.4778727E+02  0.7816164E-02  0.1312668E+00
        -11   -1    0    0    0    0  0.00000000000E+00  0.00000000000E+00  0.45593999997E+02  0.45594000000E+02  0.51100000000E-03 0. -1.
         11   -1    0    0    0    0 -0.00000000000E+00 -0.00000000000E+00 -0.45593999997E+02  0.45594000000E+02  0.51100000000E-03 0.  1.
    9900012    2    1    2    0    0 -0.92611263295E+01  0.29933284594E+02 -0.30030871582E+02  0.47787271487E+02  0.20000002019E+02 0.  0.
         12    1    1    2    0    0  0.92611263295E+01 -0.29933284594E+02  0.30030871582E+02  0.43400728513E+02  0.00000000000E+00 0. -1.
         11    1    3    3    0    0 -0.84238416778E+00  0.80441787326E+01  0.34861127075E+00  0.80956749346E+01  0.51100000000E-03 0. -1.
        -11    1    3    3    0    0 -0.50637178326E+01  0.16276308120E+02 -0.14010292948E+02  0.22064626738E+02  0.51100000000E-03 0.  1.
         12    1    3    3    0    0 -0.33550243291E+01  0.56127977411E+01 -0.16369189904E+02  0.17626969815E+02  0.00000000000E+00 0. -1.
</event>
<event>
 7    1  0.2328615E-009  0.4778727E+02  0.7816164E-02  0.1312668E+00
        -11   -1    0    0    0    0  0.00000000000E+00  0.00000000000E+00  0.45593999997E+02  0.45594000000E+02  0.51100000000E-03 0.  1.
         11   -1    0    0    0    0 -0.00000000000E+00 -0.00000000000E+00 -0.45593999997E+02  0.45594000000E+02  0.51100000000E-03 0. -1.
    9900012    2    1    2    0    0  0.36083434827E+02 -0.69215983987E+01  0.23101952358E+02  0.47787274245E+02  0.20000014594E+02 0.  0.
         12    1    1    2    0    0 -0.36083434827E+02  0.69215983987E+01 -0.23101952358E+02  0.43400725755E+02  0.00000000000E+00 0. -1.
         11    1    3    3    0    0  0.41901789021E+01 -0.69119897813E+01  0.72701993573E+01  0.10871476483E+02  0.51100000000E-03 0. -1.
        -11    1    3    3    0    0  0.18464296260E+02 -0.38588422142E+01  0.12257911759E+02  0.22496161908E+02  0.51100000000E-03 0.  1.
         12    1    3    3    0    0  0.13428959665E+02  0.38492335968E+01  0.35738412411E+01  0.14419635854E+02  0.00000000000E+00 0. -1.
</event>
<event>
 7    1  0.2328615E-009  0.4778727E+02  0.7816164E-02  0.1312668E+00
        -11   -1    0    0    0    0  0.00000000000E+00  0.00000000000E+00  0.45593999997E+02  0.45594000000E+02  0.51100000000E-03 0. -1.
         11   -1    0    0    0    0 -0.00000000000E+00 -0.00000000000E+00 -0.45593999997E+02  0.45594000000E+02  0.51100000000E-03 0.  1.
    9900012    2    1    2    0    0  0.28075663215E+02  0.32246297850E+02  0.74536570363E+01  0.47787267366E+02  0.19999983228E+02 0.  0.
         12    1    1    2    0    0 -0.28075663215E+02 -0.32246297850E+02 -0.74536570363E+01  0.43400732634E+02  0.00000000000E+00 0. -1.
         11    1    3    3    0    0  0.30542847349E+01  0.54369868514E+00  0.44301497250E+01  0.54083722458E+01  0.51100000000E-03 0. -1.
        -11    1    3    3    0    0  0.59000632562E+01  0.15393293797E+02  0.48406515981E+01  0.17181273192E+02  0.51100000000E-03 0.  1.
         12    1    3    3    0    0  0.19121315223E+02  0.16309305367E+02 -0.18171442868E+01  0.25197621928E+02  0.00000000000E+00 0. -1.
</event>
<event>
 7    1  0.2328615E-009  0.4778727E+02  0.7816164E-02  0.1312668E+00
        -11   -1    0    0    0    0  0.00000000000E+00  0.00000000000E+00  0.45593999997E+02  0.45594000000E+02  0.51100000000E-03 0. -1.
         11   -1    0    0    0    0 -0.00000000000E+00 -0.00000000000E+00 -0.45593999997E+02  0.45594000000E+02  0.51100000000E-03 0.  1.
    9900012    2    1    2    0    0 -0.21047281365E+02  0.15183802263E+02 -0.34786315391E+02  0.47787266797E+02  0.19999980636E+02 0.  0.
         12    1    1    2    0    0  0.21047281365E+02 -0.15183802263E+02  0.34786315391E+02  0.43400733203E+02  0.00000000000E+00 0. -1.
         11    1    3    3    0    0 -0.99260350748E+01  0.10375397690E+02 -0.80935177462E+01  0.16482720628E+02  0.51100000000E-03 0. -1.
        -11    1    3    3    0    0 -0.79736220561E+01  0.59450039900E+01 -0.93803022678E+01  0.13671568748E+02  0.51100000000E-03 0.  1.
        -12    1    3    3    0    0 -0.31476242340E+01 -0.11365994166E+01 -0.17312495377E+02  0.17632977421E+02  0.00000000000E+00 0.  1.
</event>
<event>
 7    1  0.2328615E-009  0.4778727E+02  0.7816164E-02  0.1312668E+00
        -11   -1    0    0    0    0  0.00000000000E+00  0.00000000000E+00  0.45593999997E+02  0.45594000000E+02  0.51100000000E-03 0.  1.
         11   -1    0    0    0    0 -0.00000000000E+00 -0.00000000000E+00 -0.45593999997E+02  0.45594000000E+02  0.51100000000E-03 0. -1.
    9900012    2    1    2    0    0 -0.20312288184E+02  0.16975635845E+02  0.34392763057E+02  0.47787269426E+02  0.19999992622E+02 0.  0.
         12    1    1    2    0    0  0.20312288184E+02 -0.16975635845E+02 -0.34392763057E+02  0.43400730574E+02  0.00000000000E+00 0. -1.
         11    1    3    3    0    0 -0.50565146066E+01  0.24859038727E+01  0.21978390998E+01  0.60480207507E+01  0.51100000000E-03 0. -1.
        -11    1    3    3    0    0 -0.94574308818E+01  0.17520514652E+02  0.25813603368E+02  0.32599901098E+02  0.51100000000E-03 0.  1.
        -12    1    3    3    0    0 -0.57983426953E+01 -0.30307826791E+01  0.63813205901E+01  0.91393475770E+01  0.00000000000E+00 0.  1.
</event>
<event>
 7    1  0.2328615E-009  0.4778727E+02  0.7816164E-02  0.1312668E+00
        -11   -1    0    0    0    0  0.00000000000E+00  0.00000000000E+00  0.45593999997E+02  0.45594000000E+02  0.51100000000E-03 0. -1.
         11   -1    0    0    0    0 -0.00000000000E+00 -0.00000000000E+00 -0.45593999997E+02  0.45594000000E+02  0.51100000000E-03 0.  1.
    9900012    2    1    2    0    0  0.32621816885E+02  0.27925124597E+02 -0.62950639517E+01  0.47787270158E+02  0.19999995961E+02 0.  0.
         12    1    1    2    0    0 -0.32621816885E+02 -0.27925124597E+02  0.62950639517E+01  0.43400729842E+02  0.00000000000E+00 0. -1.
         11    1    3    3    0    0  0.84944636993E+01  0.38534693042E+01  0.29237976462E+01  0.97751589324E+01  0.51100000000E-03 0. -1.
        -11    1    3    3    0    0  0.10195697440E+01 -0.18128776565E+01  0.10586428542E+00  0.20826078288E+01  0.51100000000E-03 0.  1.
         12    1    3    3    0    0  0.23107783441E+02  0.25884532949E+02 -0.93247258834E+01  0.35929503397E+02  0.00000000000E+00 0. -1.
</event>
<event>
 7    1  0.2328615E-009  0.4778728E+02  0.7816164E-02  0.1312668E+00
        -11   -1    0    0    0    0  0.00000000000E+00  0.00000000000E+00  0.45593999997E+02  0.45594000000E+02  0.51100000000E-03 0. -1.
         11   -1    0    0    0    0 -0.00000000000E+00 -0.00000000000E+00 -0.45593999997E+02  0.45594000000E+02  0.51100000000E-03 0.  1.
    9900012    2    1    2    0    0  0.36913956374E+02 -0.16663474258E+02 -0.15598438725E+02  0.47787276041E+02  0.20000022780E+02 0.  0.
         12    1    1    2    0    0 -0.36913956374E+02  0.16663474258E+02  0.15598438725E+02  0.43400723959E+02  0.00000000000E+00 0. -1.
         11    1    3    3    0    0  0.13399061274E+02  0.37907805179E+00  0.61229479988E+00  0.13418399620E+02  0.51100000000E-03 0. -1.
        -11    1    3    3    0    0  0.45703875931E+01 -0.59545209659E+01 -0.79000009492E+01  0.10897466584E+02  0.51100000000E-03 0.  1.
        -12    1    3    3    0    0  0.18944507507E+02 -0.11088031344E+02 -0.83107325761E+01  0.23471409837E+02  0.00000000000E+00 0.  1.
</event>
<event>
 7    1  0.2328615E-009  0.4778727E+02  0.7816164E-02  0.1312668E+00
        -11   -1    0    0    0    0  0.00000000000E+00  0.00000000000E+00  0.45593999997E+02  0.45594000000E+02  0.51100000000E-03 0.  1.
         11   -1    0    0    0    0 -0.00000000000E+00 -0.00000000000E+00 -0.45593999997E+02  0.45594000000E+02  0.51100000000E-03 0. -1.
    9900012    2    1    2    0    0 -0.25389066489E+02  0.33809912378E+02 -0.97932806808E+01  0.47787271680E+02  0.20000002900E+02 0.  0.
         12    1    1    2    0    0  0.25389066489E+02 -0.33809912378E+02  0.97932806808E+01  0.43400728320E+02  0.00000000000E+00 0. -1.
         11    1    3    3    0    0 -0.20896953967E+01 -0.49994174450E+00 -0.34887944748E+01  0.40973718097E+01  0.51100000000E-03 0. -1.
        -11    1    3    3    0    0  0.61211438282E+00 -0.16113448897E+00 -0.12924413202E+01  0.14391154118E+01  0.51100000000E-03 0.  1.
        -12    1    3    3    0    0 -0.23911485475E+02  0.34470988611E+02 -0.50120448859E+01  0.42250784459E+02  0.00000000000E+00 0.  1.
</event>
<event>
 7    1  0.2328615E-009  0.4778727E+02  0.7816164E-02  0.1312668E+00
        -11   -1    0    0    0    0  0.00000000000E+00  0.00000000000E+00  0.45593999997E+02  0.45594000000E+02  0.51100000000E-03 0. -1.
         11   -1    0    0    0    0 -0.00000000000E+00 -0.00000000000E+00 -0.45593999997E+02  0.45594000000E+02  0.51100000000E-03 0.  1.
    9900012    2    1    2    0    0  0.66078095606E+01 -0.26247801574E+02 -0.33926580712E+02  0.47787272892E+02  0.20000008424E+02 0.  0.
         12    1    1    2    0    0 -0.66078095606E+01  0.26247801574E+02  0.33926580712E+02  0.43400727108E+02  0.00000000000E+00 0. -1.
         11    1    3    3    0    0  0.48489143650E+00 -0.85580172400E+01 -0.20678282658E+02  0.22384506979E+02  0.51100000000E-03 0. -1.
        -11    1    3    3    0    0  0.63581612270E+01 -0.93160410686E+01 -0.12732660673E+02  0.17009864298E+02  0.51100000000E-03 0.  1.
         12    1    3    3    0    0 -0.23524310289E+00 -0.83737432657E+01 -0.51563738223E+00  0.83929016143E+01  0.00000000000E+00 0. -1.
</event>
<event>
 7    1  0.2328615E-009  0.4778727E+02  0.7816164E-02  0.1312668E+00
        -11   -1    0    0    0    0  0.00000000000E+00  0.00000000000E+00  0.45593999997E+02  0.45594000000E+02  0.51100000000E-03 0.  1.
         11   -1    0    0    0    0 -0.00000000000E+00 -0.00000000000E+00 -0.45593999997E+02  0.45594000000E+02  0.51100000000E-03 0. -1.
    9900012    2    1    2    0    0  0.45919320462E+01 -0.10270125741E+02  0.41917326844E+02  0.47787267144E+02  0.19999982218E+02 0.  0.
         12    1    1    2    0    0 -0.45919320462E+01  0.10270125741E+02 -0.41917326844E+02  0.43400732856E+02  0.00000000000E+00 0. -1.
         11    1    3    3    0    0  0.28628559470E+01 -0.27653661363E+01  0.61720271192E+01  0.73441890677E+01  0.51100000000E-03 0. -1.
        -11    1    3    3    0    0  0.28852390089E+01 -0.55161881157E+01  0.37202741011E+02  0.37719979778E+02  0.51100000000E-03 0.  1.
        -12    1    3    3    0    0 -0.11561629097E+01 -0.19885714891E+01 -0.14574412861E+01  0.27230982985E+01  0.00000000000E+00 0.  1.
</event>
<event>
 7    1  0.2328615E-009  0.4778727E+02  0.7816164E-02  0.1312668E+00
        -11   -1    0    0    0    0  0.00000000000E+00  0.00000000000E+00  0.45593999997E+02  0.45594000000E+02  0.51100000000E-03 0.  1.
         11   -1    0    0    0    0 -0.00000000000E+00 -0.00000000000E+00 -0.45593999997E+02  0.45594000000E+02  0.51100000000E-03 0. -1.
    9900012    2    1    2    0    0  0.30081323887E+02  0.26210091362E+02 -0.17081222177E+02  0.47787273197E+02  0.20000009812E+02 0.  0.
         12    1    1    2    0    0 -0.30081323887E+02 -0.26210091362E+02  0.17081222177E+02  0.43400726803E+02  0.00000000000E+00 0. -1.
         11    1    3    3    0    0  0.64788748281E+01  0.40145812887E+01 -0.77134512422E+01  0.10843892857E+02  0.51100000000E-03 0. -1.
        -11    1    3    3    0    0  0.14891154802E+01 -0.15885389553E+01  0.15597296825E+01  0.26783722425E+01  0.51100000000E-03 0.  1.
         12    1    3    3    0    0  0.22113333579E+02  0.23784049029E+02 -0.10927500618E+02  0.34265008097E+02  0.00000000000E+00 0. -1.
</event>
<event>
 7    1  0.2328615E-009  0.4778727E+02  0.7816164E-02  0.1312668E+00
        -11   -1    0    0    0    0  0.00000000000E+00  0.00000000000E+00  0.45593999997E+02  0.45594000000E+02  0.51100000000E-03 0.  1.
         11   -1    0    0    0    0 -0.00000000000E+00 -0.00000000000E+00 -0.45593999997E+02  0.45594000000E+02  0.51100000000E-03 0. -1.
    9900012    2    1    2    0    0 -0.22989670221E+02  0.25625594934E+02  0.26427774917E+02  0.47787270287E+02  0.19999996547E+02 0.  0.
         12    1    1    2    0    0  0.22989670221E+02 -0.25625594934E+02 -0.26427774917E+02  0.43400729713E+02  0.00000000000E+00 0. -1.
         11    1    3    3    0    0 -0.30245137934E+01  0.44619469772E+01 -0.28289647119E+01  0.60876675431E+01  0.51100000000E-03 0. -1.
        -11    1    3    3    0    0 -0.15605642641E+01  0.34464018984E+01  0.63264444840E+01  0.73713599111E+01  0.51100000000E-03 0.  1.
        -12    1    3    3    0    0 -0.18404592163E+02  0.17717246058E+02  0.22930295145E+02  0.34328242833E+02  0.00000000000E+00 0.  1.
</event>
<event>
 7    1  0.2328615E-009  0.4778727E+02  0.7816164E-02  0.1312668E+00
        -11   -1    0    0    0    0  0.00000000000E+00  0.00000000000E+00  0.45593999997E+02  0.45594000000E+02  0.51100000000E-03 0.  1.
         11   -1    0    0    0    0 -0.00000000000E+00 -0.00000000000E+00 -0.45593999997E+02  0.45594000000E+02  0.51100000000E-03 0. -1.
    9900012    2    1    2    0    0 -0.29397756881E+02  0.19450080398E+02  0.25319749476E+02  0.47787269008E+02  0.19999990715E+02 0.  0.
         12    1    1    2    0    0  0.29397756881E+02 -0.19450080398E+02 -0.25319749476E+02  0.43400730992E+02  0.00000000000E+00 0. -1.
         11    1    3    3    0    0 -0.51648332009E+01 -0.27473408732E+01  0.51844216194E+01  0.78167519889E+01  0.51100000000E-03 0. -1.
        -11    1    3    3    0    0 -0.62280641496E+01  0.43105561736E+00  0.29414676896E+01  0.69012190537E+01  0.51100000000E-03 0.  1.
        -12    1    3    3    0    0 -0.18004859530E+02  0.21766365654E+02  0.17193860167E+02  0.33069297965E+02  0.00000000000E+00 0.  1.
</event>
<event>
 7    1  0.2328615E-009  0.4778727E+02  0.7816164E-02  0.1312668E+00
        -11   -1    0    0    0    0  0.00000000000E+00  0.00000000000E+00  0.45593999997E+02  0.45594000000E+02  0.51100000000E-03 0.  1.
         11   -1    0    0    0    0 -0.00000000000E+00 -0.00000000000E+00 -0.45593999997E+02  0.45594000000E+02  0.51100000000E-03 0. -1.
    9900012    2    1    2    0    0  0.34154539145E+01  0.34055546758E+02  0.26686653691E+02  0.47787273328E+02  0.20000010410E+02 0.  0.
         12    1    1    2    0    0 -0.34154539145E+01 -0.34055546758E+02 -0.26686653691E+02  0.43400726672E+02  0.00000000000E+00 0. -1.
         11    1    3    3    0    0  0.86517552668E+00 -0.41523391519E+00  0.45159979850E+00  0.10606085684E+01  0.51100000000E-03 0. -1.
        -11    1    3    3    0    0  0.29170207130E+01  0.62979072612E+01  0.14748314107E+02  0.16299859354E+02  0.51100000000E-03 0.  1.
         12    1    3    3    0    0 -0.36674232517E+00  0.28172873412E+02  0.11486739786E+02  0.30426805405E+02  0.00000000000E+00 0. -1.
</event>
<event>
 7    1  0.2328615E-009  0.4778727E+02  0.7816164E-02  0.1312668E+00
        -11   -1    0    0    0    0  0.00000000000E+00  0.00000000000E+00  0.45593999997E+02  0.45594000000E+02  0.51100000000E-03 0. -1.
         11   -1    0    0    0    0 -0.00000000000E+00 -0.00000000000E+00 -0.45593999997E+02  0.45594000000E+02  0.51100000000E-03 0.  1.
    9900012    2    1    2    0    0  0.38236156222E+02 -0.20350938404E+02 -0.27311161897E+01  0.47787270373E+02  0.19999996937E+02 0.  0.
         12    1    1    2    0    0 -0.38236156222E+02  0.20350938404E+02  0.27311161897E+01  0.43400729627E+02  0.00000000000E+00 0. -1.
         11    1    3    3    0    0  0.84280789465E+01 -0.16936479769E+01  0.69328700310E+01  0.11043805745E+02  0.51100000000E-03 0. -1.
        -11    1    3    3    0    0  0.64871832265E+01 -0.59324154633E+01 -0.12682523895E+01  0.88817545467E+01  0.51100000000E-03 0.  1.
         12    1    3    3    0    0  0.23320894049E+02 -0.12724874964E+02 -0.83957338312E+01  0.27861710081E+02  0.00000000000E+00 0. -1.
</event>
<event>
 7    1  0.2328615E-009  0.4778727E+02  0.7816164E-02  0.1312668E+00
        -11   -1    0    0    0    0  0.00000000000E+00  0.00000000000E+00  0.45593999997E+02  0.45594000000E+02  0.51100000000E-03 0.  1.
         11   -1    0    0    0    0 -0.00000000000E+00 -0.00000000000E+00 -0.45593999997E+02  0.45594000000E+02  0.51100000000E-03 0. -1.
    9900012    2    1    2    0    0 -0.15138276916E+02 -0.37052971607E+02  0.16778948125E+02  0.47787271514E+02  0.20000002143E+02 0.  0.
         12    1    1    2    0    0  0.15138276916E+02  0.37052971607E+02 -0.16778948125E+02  0.43400728486E+02  0.00000000000E+00 0. -1.
         11    1    3    3    0    0 -0.13454101903E+02 -0.94963017812E+01  0.41885896198E+01  0.16992259673E+02  0.51100000000E-03 0. -1.
        -11    1    3    3    0    0 -0.19112923898E+01 -0.13140774763E+02  0.34352051015E+01  0.13716181478E+02  0.51100000000E-03 0.  1.
         12    1    3    3    0    0  0.22711737658E+00 -0.14415895063E+02  0.91551534033E+01  0.17078830364E+02  0.00000000000E+00 0. -1.
</event>
<event>
 7    1  0.2328615E-009  0.4778727E+02  0.7816164E-02  0.1312668E+00
        -11   -1    0    0    0    0  0.00000000000E+00  0.00000000000E+00  0.45593999997E+02  0.45594000000E+02  0.51100000000E-03 0.  1.
         11   -1    0    0    0    0 -0.00000000000E+00 -0.00000000000E+00 -0.45593999997E+02  0.45594000000E+02  0.51100000000E-03 0. -1.
    9900012    2    1    2    0    0 -0.33954080301E+01 -0.24273415142E+02  0.35817536651E+02  0.47787269475E+02  0.19999992844E+02 0.  0.
         12    1    1    2    0    0  0.33954080301E+01  0.24273415142E+02 -0.35817536651E+02  0.43400730525E+02  0.00000000000E+00 0. -1.
         11    1    3    3    0    0  0.34548038883E+01 -0.42518121939E+00  0.31636026162E+01  0.47037039395E+01  0.51100000000E-03 0. -1.
        -11    1    3    3    0    0  0.28595673542E+01 -0.10461683313E+02  0.83523149995E+01  0.13688868080E+02  0.51100000000E-03 0.  1.
        -12    1    3    3    0    0 -0.97097792727E+01 -0.13386550609E+02  0.24301619036E+02  0.29394697455E+02  0.00000000000E+00 0.  1.
</event>
<event>
 7    1  0.2328615E-009  0.4778727E+02  0.7816164E-02  0.1312668E+00
        -11   -1    0    0    0    0  0.00000000000E+00  0.00000000000E+00  0.45593999997E+02  0.45594000000E+02  0.51100000000E-03 0.  1.
         11   -1    0    0    0    0 -0.00000000000E+00 -0.00000000000E+00 -0.45593999997E+02  0.45594000000E+02  0.51100000000E-03 0. -1.
    9900012    2    1    2    0    0 -0.26448152425E+02 -0.27574017187E+01  0.34300371297E+02  0.47787268415E+02  0.19999988014E+02 0.  0.
         12    1    1    2    0    0  0.26448152425E+02  0.27574017187E+01 -0.34300371297E+02  0.43400731585E+02  0.00000000000E+00 0. -1.
         11    1    3    3    0    0 -0.57348778086E+01  0.32409064098E+01  0.81223979351E+01  0.10457803130E+02  0.51100000000E-03 0. -1.
        -11    1    3    3    0    0 -0.18067297999E+02 -0.36949194597E+01  0.10411294333E+02  0.21177222121E+02  0.51100000000E-03 0.  1.
        -12    1    3    3    0    0 -0.26459766170E+01 -0.23033886687E+01  0.15766679029E+02  0.16152243164E+02  0.00000000000E+00 0.  1.
</event>
<event>
 7    1  0.2328615E-009  0.4778728E+02  0.7816164E-02  0.1312668E+00
        -11   -1    0    0    0    0  0.00000000000E+00  0.00000000000E+00  0.45593999997E+02  0.45594000000E+02  0.51100000000E-03 0. -1.
         11   -1    0    0    0    0 -0.00000000000E+00 -0.00000000000E+00 -0.45593999997E+02  0.45594000000E+02  0.51100000000E-03 0.  1.
    9900012    2    1    2    0    0  0.34667890191E+02 -0.26089684918E+02  0.10432982997E+01  0.47787277186E+02  0.20000028001E+02 0.  0.
         12    1    1    2    0    0 -0.34667890191E+02  0.26089684918E+02 -0.10432982997E+01  0.43400722814E+02  0.00000000000E+00 0. -1.
         11    1    3    3    0    0  0.27495073016E+01  0.88808592760E+00  0.27437540829E+01  0.39845543972E+01  0.51100000000E-03 0. -1.
        -11    1    3    3    0    0  0.20828939381E+02 -0.10387624010E+02  0.25029216264E+01  0.23409657521E+02  0.51100000000E-03 0.  1.
        -12    1    3    3    0    0  0.11089443509E+02 -0.16590146836E+02 -0.42033774096E+01  0.20393065267E+02  0.00000000000E+00 0.  1.
</event>
<event>
 7    1  0.2328615E-009  0.4778727E+02  0.7816164E-02  0.1312668E+00
        -11   -1    0    0    0    0  0.00000000000E+00  0.00000000000E+00  0.45593999997E+02  0.45594000000E+02  0.51100000000E-03 0.  1.
         11   -1    0    0    0    0 -0.00000000000E+00 -0.00000000000E+00 -0.45593999997E+02  0.45594000000E+02  0.51100000000E-03 0. -1.
    9900012    2    1    2    0    0  0.16807438700E+02 -0.14497002838E+02  0.37295713894E+02  0.47787270031E+02  0.19999995381E+02 0.  0.
         12    1    1    2    0    0 -0.16807438700E+02  0.14497002838E+02 -0.37295713894E+02  0.43400729969E+02  0.00000000000E+00 0. -1.
         11    1    3    3    0    0  0.16210440959E+01 -0.18027662881E+01  0.12252114715E+01  0.27164119094E+01  0.51100000000E-03 0. -1.
        -11    1    3    3    0    0  0.15862377302E+02 -0.55151670225E+01  0.14037720373E+02  0.21888117198E+02  0.51100000000E-03 0.  1.
         12    1    3    3    0    0 -0.67598269787E+00 -0.71790695269E+01  0.22032782050E+02  0.23182740924E+02  0.00000000000E+00 0. -1.
</event>
<event>
 7    1  0.2328615E-009  0.4778729E+02  0.7816164E-02  0.1312668E+00
        -11   -1    0    0    0    0  0.00000000000E+00  0.00000000000E+00  0.45593999997E+02  0.45594000000E+02  0.51100000000E-03 0. -1.
         11   -1    0    0    0    0 -0.00000000000E+00 -0.00000000000E+00 -0.45593999997E+02  0.45594000000E+02  0.51100000000E-03 0.  1.
    9900012    2    1    2    0    0 -0.42111751285E+02 -0.61214764685E+01 -0.85293341461E+01  0.47787290197E+02  0.20000087322E+02 0.  0.
         12    1    1    2    0    0  0.42111751285E+02  0.61214764685E+01  0.85293341461E+01  0.43400709803E+02  0.00000000000E+00 0. -1.
         11    1    3    3    0    0 -0.25832688828E+02 -0.24129669585E+01 -0.31316238202E+01  0.26133451545E+02  0.51100000000E-03 0. -1.
        -11    1    3    3    0    0 -0.17117910627E+02 -0.31318391301E+00 -0.29207169844E+01  0.17368118388E+02  0.51100000000E-03 0.  1.
         12    1    3    3    0    0  0.83884816964E+00 -0.33953255970E+01 -0.24769933415E+01  0.42857202633E+01  0.00000000000E+00 0. -1.
</event>
<event>
 7    1  0.2328615E-009  0.4778727E+02  0.7816164E-02  0.1312668E+00
        -11   -1    0    0    0    0  0.00000000000E+00  0.00000000000E+00  0.45593999997E+02  0.45594000000E+02  0.51100000000E-03 0.  1.
         11   -1    0    0    0    0 -0.00000000000E+00 -0.00000000000E+00 -0.45593999997E+02  0.45594000000E+02  0.51100000000E-03 0. -1.
    9900012    2    1    2    0    0  0.41882934593E+02 -0.87464956926E+01  0.72761229279E+01  0.47787270030E+02  0.19999995375E+02 0.  0.
         12    1    1    2    0    0 -0.41882934593E+02  0.87464956926E+01 -0.72761229279E+01  0.43400729970E+02  0.00000000000E+00 0. -1.
         11    1    3    3    0    0  0.33098366154E+01  0.64101540084E+00  0.10490671776E+01  0.35307876415E+01  0.51100000000E-03 0. -1.
        -11    1    3    3    0    0  0.29726821580E+02 -0.29948036684E+01  0.11651034230E+02  0.32068666469E+02  0.51100000000E-03 0.  1.
         12    1    3    3    0    0  0.88462763984E+01 -0.63927074251E+01 -0.54239784794E+01  0.12187815919E+02  0.00000000000E+00 0. -1.
</event>
<event>
 7    1  0.2328615E-009  0.4778729E+02  0.7816164E-02  0.1312668E+00
        -11   -1    0    0    0    0  0.00000000000E+00  0.00000000000E+00  0.45593999997E+02  0.45594000000E+02  0.51100000000E-03 0.  1.
         11   -1    0    0    0    0 -0.00000000000E+00 -0.00000000000E+00 -0.45593999997E+02  0.45594000000E+02  0.51100000000E-03 0. -1.
    9900012    2    1    2    0    0  0.22078244479E+02 -0.37270757614E+02  0.26577110037E+01  0.47787289405E+02  0.20000083712E+02 0.  0.
         12    1    1    2    0    0 -0.22078244479E+02  0.37270757614E+02 -0.26577110037E+01  0.43400710595E+02  0.00000000000E+00 0. -1.
         11    1    3    3    0    0 -0.21658020575E+01 -0.35809065000E+01  0.84975101812E+00  0.42703239887E+01  0.51100000000E-03 0. -1.
        -11    1    3    3    0    0  0.78615237677E+01 -0.17779626621E+02 -0.42307836355E+01  0.19895180551E+02  0.51100000000E-03 0.  1.
        -12    1    3    3    0    0  0.16382522769E+02 -0.15910224493E+02  0.60387436210E+01  0.23621784865E+02  0.00000000000E+00 0.  1.
</event>
<event>
 7    1  0.2493292E-009  0.4778727E+02  0.7816164E-02  0.1312668E+00
        -11   -1    0    0    0    0  0.00000000000E+00  0.00000000000E+00  0.45593999997E+02  0.45594000000E+02  0.51100000000E-03 0. -1.
         11   -1    0    0    0    0 -0.00000000000E+00 -0.00000000000E+00 -0.45593999997E+02  0.45594000000E+02  0.51100000000E-03 0.  1.
    9900012    2    1    2    0    0 -0.21822221064E+02  0.77516718603E+00 -0.37507507367E+02  0.47787270453E+02  0.19999997303E+02 0.  0.
         12    1    1    2    0    0  0.21822221064E+02 -0.77516718603E+00  0.37507507367E+02  0.43400729547E+02  0.00000000000E+00 0. -1.
         11    1    3    3    0    0 -0.26065248819E+01 -0.43938569449E+01 -0.17543161024E+01  0.54016271679E+01  0.51100000000E-03 0. -1.
        -11    1    3    3    0    0 -0.89181720441E+01 -0.31820695774E+01 -0.13697589496E+02  0.16651826256E+02  0.51100000000E-03 0.  1.
        -12    1    3    3    0    0 -0.10297524138E+02  0.83510937083E+01 -0.22055601769E+02  0.25733817029E+02  0.00000000000E+00 0.  1.
</event>
<event>
 7    1  0.2328615E-009  0.4778727E+02  0.7816164E-02  0.1312668E+00
        -11   -1    0    0    0    0  0.00000000000E+00  0.00000000000E+00  0.45593999997E+02  0.45594000000E+02  0.51100000000E-03 0.  1.
         11   -1    0    0    0    0 -0.00000000000E+00 -0.00000000000E+00 -0.45593999997E+02  0.45594000000E+02  0.51100000000E-03 0. -1.
    9900012    2    1    2    0    0  0.19540203899E+02  0.21083311729E+01  0.38695719253E+02  0.47787270544E+02  0.19999997720E+02 0.  0.
         12    1    1    2    0    0 -0.19540203899E+02 -0.21083311729E+01 -0.38695719253E+02  0.43400729456E+02  0.00000000000E+00 0. -1.
         11    1    3    3    0    0  0.62056590197E+00 -0.24115536587E+01  0.64201097881E+00  0.25715503972E+01  0.51100000000E-03 0. -1.
        -11    1    3    3    0    0  0.10781119477E+02  0.14296024516E+00  0.70944149349E+01  0.12906730738E+02  0.51100000000E-03 0.  1.
        -12    1    3    3    0    0  0.81385185194E+01  0.43769245864E+01  0.30959293340E+02  0.32308989409E+02  0.00000000000E+00 0.  1.
</event>
<event>
 7    1  0.2328615E-009  0.4778727E+02  0.7816164E-02  0.1312668E+00
        -11   -1    0    0    0    0  0.00000000000E+00  0.00000000000E+00  0.45593999997E+02  0.45594000000E+02  0.51100000000E-03 0.  1.
         11   -1    0    0    0    0 -0.00000000000E+00 -0.00000000000E+00 -0.45593999997E+02  0.45594000000E+02  0.51100000000E-03 0. -1.
    9900012    2    1    2    0    0 -0.26433763797E+02  0.29818719935E+02 -0.17196610132E+02  0.47787270432E+02  0.19999997208E+02 0.  0.
         12    1    1    2    0    0  0.26433763797E+02 -0.29818719935E+02  0.17196610132E+02  0.43400729568E+02  0.00000000000E+00 0. -1.
         11    1    3    3    0    0 -0.13677533173E+02  0.19063256309E+02 -0.15690147022E+02  0.28225225750E+02  0.51100000000E-03 0. -1.
        -11    1    3    3    0    0 -0.82065098534E+01  0.69949668876E+01 -0.58178563401E+01  0.12252502536E+02  0.51100000000E-03 0.  1.
        -12    1    3    3    0    0 -0.45497207704E+01  0.37604967377E+01  0.43113932301E+01  0.73095421462E+01  0.00000000000E+00 0.  1.
</event>
<event>
 7    1  0.2328615E-009  0.4778727E+02  0.7816164E-02  0.1312668E+00
        -11   -1    0    0    0    0  0.00000000000E+00  0.00000000000E+00  0.45593999997E+02  0.45594000000E+02  0.51100000000E-03 0. -1.
         11   -1    0    0    0    0 -0.00000000000E+00 -0.00000000000E+00 -0.45593999997E+02  0.45594000000E+02  0.51100000000E-03 0.  1.
    9900012    2    1    2    0    0  0.27188532243E+02  0.15693746948E+02 -0.29968538520E+02  0.47787270976E+02  0.19999999687E+02 0.  0.
         12    1    1    2    0    0 -0.27188532243E+02 -0.15693746948E+02  0.29968538520E+02  0.43400729024E+02  0.00000000000E+00 0. -1.
         11    1    3    3    0    0 -0.17199969109E+01  0.11103446494E+01  0.11770092809E+01  0.23614837968E+01  0.51100000000E-03 0. -1.
        -11    1    3    3    0    0  0.25091695375E+01 -0.57162207878E+00 -0.17728955449E+01  0.31250347907E+01  0.51100000000E-03 0.  1.
         12    1    3    3    0    0  0.26399359616E+02  0.15155024377E+02 -0.29372652256E+02  0.42300752388E+02  0.00000000000E+00 0. -1.
</event>
<event>
 7    1  0.2328615E-009  0.4778727E+02  0.7816164E-02  0.1312668E+00
        -11   -1    0    0    0    0  0.00000000000E+00  0.00000000000E+00  0.45593999997E+02  0.45594000000E+02  0.51100000000E-03 0.  1.
         11   -1    0    0    0    0 -0.00000000000E+00 -0.00000000000E+00 -0.45593999997E+02  0.45594000000E+02  0.51100000000E-03 0. -1.
    9900012    2    1    2    0    0 -0.12466056845E+02 -0.75685439994E+01  0.40877110917E+02  0.47787266960E+02  0.19999981375E+02 0.  0.
         12    1    1    2    0    0  0.12466056845E+02  0.75685439994E+01 -0.40877110917E+02  0.43400733040E+02  0.00000000000E+00 0. -1.
         11    1    3    3    0    0 -0.27932000324E+01 -0.28348615862E+01  0.18335528857E+02  0.18762463201E+02  0.51100000000E-03 0. -1.
        -11    1    3    3    0    0  0.16642517422E+01 -0.79810919748E+00  0.14411911007E+02  0.14529621168E+02  0.51100000000E-03 0.  1.
         12    1    3    3    0    0 -0.11337108555E+02 -0.39355732157E+01  0.81296710535E+01  0.14495182591E+02  0.00000000000E+00 0. -1.
</event>
<event>
 7    1  0.2328615E-009  0.4778727E+02  0.7816164E-02  0.1312668E+00
        -11   -1    0    0    0    0  0.00000000000E+00  0.00000000000E+00  0.45593999997E+02  0.45594000000E+02  0.51100000000E-03 0.  1.
         11   -1    0    0    0    0 -0.00000000000E+00 -0.00000000000E+00 -0.45593999997E+02  0.45594000000E+02  0.51100000000E-03 0. -1.
    9900012    2    1    2    0    0 -0.18912767816E+01 -0.13447664413E+02  0.41221436001E+02  0.47787269684E+02  0.19999993796E+02 0.  0.
         12    1    1    2    0    0  0.18912767816E+01  0.13447664413E+02 -0.41221436001E+02  0.43400730316E+02  0.00000000000E+00 0. -1.
         11    1    3    3    0    0  0.10970188845E+01 -0.65363912959E+01  0.24639876119E+02  0.25515708045E+02  0.51100000000E-03 0. -1.
        -11    1    3    3    0    0 -0.48029112078E+01 -0.33776195874E+01  0.71467236931E+00  0.59149832632E+01  0.51100000000E-03 0.  1.
        -12    1    3    3    0    0  0.18146155417E+01 -0.35336535294E+01  0.15866887512E+02  0.16356578375E+02  0.00000000000E+00 0.  1.
</event>
<event>
 7    1  0.2328615E-009  0.4778729E+02  0.7816164E-02  0.1312668E+00
        -11   -1    0    0    0    0  0.00000000000E+00  0.00000000000E+00  0.45593999997E+02  0.45594000000E+02  0.51100000000E-03 0.  1.
         11   -1    0    0    0    0 -0.00000000000E+00 -0.00000000000E+00 -0.45593999997E+02  0.45594000000E+02  0.51100000000E-03 0. -1.
    9900012    2    1    2    0    0  0.21899425168E+02 -0.82798031797E+01  0.36544240133E+02  0.47787292053E+02  0.20000095787E+02 0.  0.
         12    1    1    2    0    0 -0.21899425168E+02  0.82798031797E+01 -0.36544240133E+02  0.43400707947E+02  0.00000000000E+00 0. -1.
         11    1    3    3    0    0  0.65890122016E+01 -0.59977410193E+01  0.70785098122E+01  0.11379511437E+02  0.51100000000E-03 0. -1.
        -11    1    3    3    0    0  0.15732394104E+02 -0.65791047725E+01  0.22968948269E+02  0.28607087037E+02  0.51100000000E-03 0.  1.
         12    1    3    3    0    0 -0.42198113836E+00  0.42970426121E+01  0.64967820516E+01  0.78006935792E+01  0.00000000000E+00 0. -1.
</event>
<event>
 7    1  0.2328615E-009  0.4778727E+02  0.7816164E-02  0.1312668E+00
        -11   -1    0    0    0    0  0.00000000000E+00  0.00000000000E+00  0.45593999997E+02  0.45594000000E+02  0.51100000000E-03 0.  1.
         11   -1    0    0    0    0 -0.00000000000E+00 -0.00000000000E+00 -0.45593999997E+02  0.45594000000E+02  0.51100000000E-03 0. -1.
    9900012    2    1    2    0    0  0.25790436831E+02 -0.23404016091E+01  0.34828132603E+02  0.47787274981E+02  0.20000017948E+02 0.  0.
         12    1    1    2    0    0 -0.25790436831E+02  0.23404016091E+01 -0.34828132603E+02  0.43400725019E+02  0.00000000000E+00 0. -1.
         11    1    3    3    0    0  0.19284360012E+01  0.12615905157E+01 -0.10674199472E+01  0.25396577810E+01  0.51100000000E-03 0. -1.
        -11    1    3    3    0    0  0.63373953740E+01  0.48769163018E+01  0.12088453649E+02  0.14494054113E+02  0.51100000000E-03 0.  1.
         12    1    3    3    0    0  0.17524605455E+02 -0.84789084265E+01  0.23807098900E+02  0.30753563087E+02  0.00000000000E+00 0. -1.
</event>
<event>
 7    1  0.2328615E-009  0.4778727E+02  0.7816164E-02  0.1312668E+00
        -11   -1    0    0    0    0  0.00000000000E+00  0.00000000000E+00  0.45593999997E+02  0.45594000000E+02  0.51100000000E-03 0.  1.
         11   -1    0    0    0    0 -0.00000000000E+00 -0.00000000000E+00 -0.45593999997E+02  0.45594000000E+02  0.51100000000E-03 0. -1.
    9900012    2    1    2    0    0  0.17394034633E+02  0.25879287025E+02  0.30188298077E+02  0.47787270991E+02  0.19999999758E+02 0.  0.
         12    1    1    2    0    0 -0.17394034633E+02 -0.25879287025E+02 -0.30188298077E+02  0.43400729009E+02  0.00000000000E+00 0. -1.
         11    1    3    3    0    0  0.34992694355E+01  0.76985992727E+01  0.19363229581E+01  0.86754057083E+01  0.51100000000E-03 0. -1.
        -11    1    3    3    0    0  0.25019350899E+01  0.13366213153E+02  0.92755799385E+01  0.16460611067E+02  0.51100000000E-03 0.  1.
        -12    1    3    3    0    0  0.11392830108E+02  0.48144745988E+01  0.18976395180E+02  0.22651254216E+02  0.00000000000E+00 0.  1.
</event>
<event>
 7    1  0.2328615E-009  0.4778727E+02  0.7816164E-02  0.1312668E+00
        -11   -1    0    0    0    0  0.00000000000E+00  0.00000000000E+00  0.45593999997E+02  0.45594000000E+02  0.51100000000E-03 0. -1.
         11   -1    0    0    0    0 -0.00000000000E+00 -0.00000000000E+00 -0.45593999997E+02  0.45594000000E+02  0.51100000000E-03 0.  1.
    9900012    2    1    2    0    0 -0.27767250449E+02  0.33338546119E+02  0.10698025864E+01  0.47787270370E+02  0.19999996926E+02 0.  0.
         12    1    1    2    0    0  0.27767250449E+02 -0.33338546119E+02 -0.10698025864E+01  0.43400729630E+02  0.00000000000E+00 0. -1.
         11    1    3    3    0    0 -0.25694870550E+01 -0.80351109358E-01  0.27588684272E+00  0.25855045615E+01  0.51100000000E-03 0. -1.
        -11    1    3    3    0    0 -0.24914773411E+02  0.30065841376E+02 -0.41005817046E+01  0.39262138535E+02  0.51100000000E-03 0.  1.
        -12    1    3    3    0    0 -0.28298998339E+00  0.33530558519E+01  0.48944974483E+01  0.59396272735E+01  0.00000000000E+00 0.  1.
</event>
<event>
 7    1  0.2328615E-009  0.4778725E+02  0.7816164E-02  0.1312668E+00
        -11   -1    0    0    0    0  0.00000000000E+00  0.00000000000E+00  0.45593999997E+02  0.45594000000E+02  0.51100000000E-03 0.  1.
         11   -1    0    0    0    0 -0.00000000000E+00 -0.00000000000E+00 -0.45593999997E+02  0.45594000000E+02  0.51100000000E-03 0. -1.
    9900012    2    1    2    0    0  0.66305755116E+01  0.75765593891E+01  0.42216779294E+02  0.47787248419E+02  0.19999896843E+02 0.  0.
         12    1    1    2    0    0 -0.66305755116E+01 -0.75765593891E+01 -0.42216779294E+02  0.43400751581E+02  0.00000000000E+00 0. -1.
         11    1    3    3    0    0  0.57735187391E+01  0.19515573121E+01  0.61707221207E+01  0.86729410424E+01  0.51100000000E-03 0. -1.
        -11    1    3    3    0    0  0.63672285060E+01 -0.97381135499E+00  0.12795830174E+02  0.14325612640E+02  0.51100000000E-03 0.  1.
        -12    1    3    3    0    0 -0.55101717335E+01  0.65988134320E+01  0.23250226999E+02  0.24788694737E+02  0.00000000000E+00 0.  1.
</event>
<event>
 7    1  0.2328615E-009  0.4778727E+02  0.7816164E-02  0.1312668E+00
        -11   -1    0    0    0    0  0.00000000000E+00  0.00000000000E+00  0.45593999997E+02  0.45594000000E+02  0.51100000000E-03 0. -1.
         11   -1    0    0    0    0 -0.00000000000E+00 -0.00000000000E+00 -0.45593999997E+02  0.45594000000E+02  0.51100000000E-03 0.  1.
    9900012    2    1    2    0    0 -0.73474484575E+01 -0.75993720257E+01 -0.42093798698E+02  0.47787270250E+02  0.19999996376E+02 0.  0.
         12    1    1    2    0    0  0.73474484575E+01  0.75993720257E+01  0.42093798698E+02  0.43400729750E+02  0.00000000000E+00 0. -1.
         11    1    3    3    0    0 -0.23159609123E+01 -0.72500176687E+01 -0.77781154392E+01  0.10882348606E+02  0.51100000000E-03 0. -1.
        -11    1    3    3    0    0  0.22739299293E+01 -0.82424409931E+00 -0.72397760675E+00  0.25247335493E+01  0.51100000000E-03 0.  1.
        -12    1    3    3    0    0 -0.73054174746E+01  0.47488974233E+00 -0.33591705652E+02  0.34380188094E+02  0.00000000000E+00 0.  1.
</event>
<event>
 7    1  0.2328615E-009  0.4778727E+02  0.7816164E-02  0.1312668E+00
        -11   -1    0    0    0    0  0.00000000000E+00  0.00000000000E+00  0.45593999997E+02  0.45594000000E+02  0.51100000000E-03 0. -1.
         11   -1    0    0    0    0 -0.00000000000E+00 -0.00000000000E+00 -0.45593999997E+02  0.45594000000E+02  0.51100000000E-03 0.  1.
    9900012    2    1    2    0    0  0.59804074035E+01 -0.18676199980E+02 -0.38717666350E+02  0.47787269522E+02  0.19999993060E+02 0.  0.
         12    1    1    2    0    0 -0.59804074035E+01  0.18676199980E+02  0.38717666350E+02  0.43400730478E+02  0.00000000000E+00 0. -1.
         11    1    3    3    0    0  0.51095117397E+01 -0.14905865187E+01 -0.13518258387E+02  0.14528326417E+02  0.51100000000E-03 0. -1.
        -11    1    3    3    0    0  0.31696227079E+01 -0.12284135509E+02 -0.24767984618E+02  0.27828035425E+02  0.51100000000E-03 0.  1.
        -12    1    3    3    0    0 -0.22987270441E+01 -0.49014779521E+01 -0.43142334555E+00  0.54309076812E+01  0.00000000000E+00 0.  1.
</event>
<event>
 7    1  0.2328615E-009  0.4778727E+02  0.7816164E-02  0.1312668E+00
        -11   -1    0    0    0    0  0.00000000000E+00  0.00000000000E+00  0.45593999997E+02  0.45594000000E+02  0.51100000000E-03 0.  1.
         11   -1    0    0    0    0 -0.00000000000E+00 -0.00000000000E+00 -0.45593999997E+02  0.45594000000E+02  0.51100000000E-03 0. -1.
    9900012    2    1    2    0    0 -0.35198866349E+01  0.34292128996E+01  0.43121617520E+02  0.47787274193E+02  0.20000014356E+02 0.  0.
         12    1    1    2    0    0  0.35198866349E+01 -0.34292128996E+01 -0.43121617520E+02  0.43400725807E+02  0.00000000000E+00 0. -1.
         11    1    3    3    0    0 -0.50633453537E+01 -0.32448919515E+01  0.13814973586E+02  0.15067192353E+02  0.51100000000E-03 0. -1.
        -11    1    3    3    0    0  0.40636536187E+01 -0.21156491403E+01  0.15477237931E+02  0.16141070170E+02  0.51100000000E-03 0.  1.
         12    1    3    3    0    0 -0.25201949000E+01  0.87897539913E+01  0.13829406003E+02  0.16579011670E+02  0.00000000000E+00 0. -1.
</event>
<event>
 7    1  0.2328615E-009  0.4778727E+02  0.7816164E-02  0.1312668E+00
        -11   -1    0    0    0    0  0.00000000000E+00  0.00000000000E+00  0.45593999997E+02  0.45594000000E+02  0.51100000000E-03 0.  1.
         11   -1    0    0    0    0 -0.00000000000E+00 -0.00000000000E+00 -0.45593999997E+02  0.45594000000E+02  0.51100000000E-03 0. -1.
    9900012    2    1    2    0    0  0.18092275187E+02  0.62282463443E+01  0.38955123162E+02  0.47787273111E+02  0.20000009421E+02 0.  0.
         12    1    1    2    0    0 -0.18092275187E+02 -0.62282463443E+01 -0.38955123162E+02  0.43400726889E+02  0.00000000000E+00 0. -1.
         11    1    3    3    0    0  0.83891162422E+01  0.16755636139E+01  0.12008372657E+02  0.14744008915E+02  0.51100000000E-03 0. -1.
        -11    1    3    3    0    0  0.94008387691E+01  0.87732754263E+01  0.12287883164E+02  0.17785899027E+02  0.51100000000E-03 0.  1.
         12    1    3    3    0    0  0.30232017561E+00 -0.42205926959E+01  0.14658867340E+02  0.15257365169E+02  0.00000000000E+00 0. -1.
</event>
<event>
 7    1  0.2328615E-009  0.4778727E+02  0.7816164E-02  0.1312668E+00
        -11   -1    0    0    0    0  0.00000000000E+00  0.00000000000E+00  0.45593999997E+02  0.45594000000E+02  0.51100000000E-03 0.  1.
         11   -1    0    0    0    0 -0.00000000000E+00 -0.00000000000E+00 -0.45593999997E+02  0.45594000000E+02  0.51100000000E-03 0. -1.
    9900012    2    1    2    0    0  0.25393287479E+02  0.18488420191E+02  0.29949665911E+02  0.47787271684E+02  0.20000002918E+02 0.  0.
         12    1    1    2    0    0 -0.25393287479E+02 -0.18488420191E+02 -0.29949665911E+02  0.43400728316E+02  0.00000000000E+00 0. -1.
         11    1    3    3    0    0  0.31542040177E+01  0.34958969570E+01 -0.20278461579E+00  0.47128993603E+01  0.51100000000E-03 0. -1.
        -11    1    3    3    0    0  0.20694900037E+02  0.85634931437E+01  0.28521802849E+02  0.36264383910E+02  0.51100000000E-03 0.  1.
        -12    1    3    3    0    0  0.15441834240E+01  0.64290300904E+01  0.16306476783E+01  0.68099884142E+01  0.00000000000E+00 0.  1.
</event>
<event>
 7    1  0.2328615E-009  0.4778727E+02  0.7816164E-02  0.1312668E+00
        -11   -1    0    0    0    0  0.00000000000E+00  0.00000000000E+00  0.45593999997E+02  0.45594000000E+02  0.51100000000E-03 0.  1.
         11   -1    0    0    0    0 -0.00000000000E+00 -0.00000000000E+00 -0.45593999997E+02  0.45594000000E+02  0.51100000000E-03 0. -1.
    9900012    2    1    2    0    0  0.38327496963E+02 -0.44468407285E+01  0.19870879187E+02  0.47787271255E+02  0.20000000959E+02 0.  0.
         12    1    1    2    0    0 -0.38327496963E+02  0.44468407285E+01 -0.19870879187E+02  0.43400728745E+02  0.00000000000E+00 0. -1.
         11    1    3    3    0    0  0.14799654281E+02 -0.71682686030E+01  0.75120914425E+01  0.18078865001E+02  0.51100000000E-03 0. -1.
        -11    1    3    3    0    0  0.80318713759E+01  0.12440818692E+00  0.11428049287E+02  0.13968777540E+02  0.51100000000E-03 0.  1.
         12    1    3    3    0    0  0.15495971306E+02  0.25970196875E+01  0.93073845737E+00  0.15739628714E+02  0.00000000000E+00 0. -1.
</event>
<event>
 7    1  0.2328615E-009  0.4778727E+02  0.7816164E-02  0.1312668E+00
        -11   -1    0    0    0    0  0.00000000000E+00  0.00000000000E+00  0.45593999997E+02  0.45594000000E+02  0.51100000000E-03 0.  1.
         11   -1    0    0    0    0 -0.00000000000E+00 -0.00000000000E+00 -0.45593999997E+02  0.45594000000E+02  0.51100000000E-03 0. -1.
    9900012    2    1    2    0    0 -0.12863485459E+02  0.19994050930E+02  0.36309673177E+02  0.47787266170E+02  0.19999977777E+02 0.  0.
         12    1    1    2    0    0  0.12863485459E+02 -0.19994050930E+02 -0.36309673177E+02  0.43400733830E+02  0.00000000000E+00 0. -1.
         11    1    3    3    0    0 -0.81432484859E+01 -0.43435400995E+00  0.15194197317E+02  0.17244268372E+02  0.51100000000E-03 0. -1.
        -11    1    3    3    0    0 -0.12581390952E+01  0.15973407343E+01 -0.80988148769E-02  0.20333414017E+01  0.51100000000E-03 0.  1.
        -12    1    3    3    0    0 -0.34620978779E+01  0.18831064205E+02  0.21123574675E+02  0.28509656397E+02  0.00000000000E+00 0.  1.
</event>
<event>
 7    1  0.2328615E-009  0.4778727E+02  0.7816164E-02  0.1312668E+00
        -11   -1    0    0    0    0  0.00000000000E+00  0.00000000000E+00  0.45593999997E+02  0.45594000000E+02  0.51100000000E-03 0.  1.
         11   -1    0    0    0    0 -0.00000000000E+00 -0.00000000000E+00 -0.45593999997E+02  0.45594000000E+02  0.51100000000E-03 0. -1.
    9900012    2    1    2    0    0  0.10637803841E+02  0.28579995282E+02  0.30881129906E+02  0.47787272067E+02  0.20000004661E+02 0.  0.
         12    1    1    2    0    0 -0.10637803841E+02 -0.28579995282E+02 -0.30881129906E+02  0.43400727933E+02  0.00000000000E+00 0. -1.
         11    1    3    3    0    0  0.68183980713E+01  0.10878461074E+02  0.10682674005E+02  0.16701826000E+02  0.51100000000E-03 0. -1.
        -11    1    3    3    0    0  0.59481629610E+01  0.14295397048E+02  0.64690845841E+01  0.16780586253E+02  0.51100000000E-03 0.  1.
         12    1    3    3    0    0 -0.21287571909E+01  0.34061371604E+01  0.13729371317E+02  0.14304859814E+02  0.00000000000E+00 0. -1.
</event>
<event>
 7    1  0.2328615E-009  0.4778727E+02  0.7816164E-02  0.1312668E+00
        -11   -1    0    0    0    0  0.00000000000E+00  0.00000000000E+00  0.45593999997E+02  0.45594000000E+02  0.51100000000E-03 0.  1.
         11   -1    0    0    0    0 -0.00000000000E+00 -0.00000000000E+00 -0.45593999997E+02  0.45594000000E+02  0.51100000000E-03 0. -1.
    9900012    2    1    2    0    0 -0.27064953598E+02  0.14865757828E+02  0.30497883373E+02  0.47787270060E+02  0.19999995512E+02 0.  0.
         12    1    1    2    0    0  0.27064953598E+02 -0.14865757828E+02 -0.30497883373E+02  0.43400729940E+02  0.00000000000E+00 0. -1.
         11    1    3    3    0    0 -0.11568596070E+02  0.53095307708E+00  0.62429400808E+01  0.13156315112E+02  0.51100000000E-03 0. -1.
        -11    1    3    3    0    0 -0.16312235173E+02  0.13494798946E+02  0.16642597765E+02  0.26929067484E+02  0.51100000000E-03 0.  1.
         12    1    3    3    0    0  0.81587764480E+00  0.84000580460E+00  0.76123455276E+01  0.77018874644E+01  0.00000000000E+00 0. -1.
</event>
<event>
 7    1  0.2328615E-009  0.4778727E+02  0.7816164E-02  0.1312668E+00
        -11   -1    0    0    0    0  0.00000000000E+00  0.00000000000E+00  0.45593999997E+02  0.45594000000E+02  0.51100000000E-03 0. -1.
         11   -1    0    0    0    0 -0.00000000000E+00 -0.00000000000E+00 -0.45593999997E+02  0.45594000000E+02  0.51100000000E-03 0.  1.
    9900012    2    1    2    0    0 -0.14679385123E+02  0.38891937235E+02 -0.12472213679E+02  0.47787271394E+02  0.20000001592E+02 0.  0.
         12    1    1    2    0    0  0.14679385123E+02 -0.38891937235E+02  0.12472213679E+02  0.43400728606E+02  0.00000000000E+00 0. -1.
         11    1    3    3    0    0  0.23163514061E+01  0.55043340364E+01  0.33688236841E+00  0.59813599635E+01  0.51100000000E-03 0. -1.
        -11    1    3    3    0    0 -0.39986622320E+01  0.93732736432E+01 -0.10130049758E+02  0.14368906249E+02  0.51100000000E-03 0.  1.
        -12    1    3    3    0    0 -0.12997074297E+02  0.24014329556E+02 -0.26790462897E+01  0.27437005181E+02  0.00000000000E+00 0.  1.
</event>
<event>
 7    1  0.2328615E-009  0.4778727E+02  0.7816164E-02  0.1312668E+00
        -11   -1    0    0    0    0  0.00000000000E+00  0.00000000000E+00  0.45593999997E+02  0.45594000000E+02  0.51100000000E-03 0. -1.
         11   -1    0    0    0    0 -0.00000000000E+00 -0.00000000000E+00 -0.45593999997E+02  0.45594000000E+02  0.51100000000E-03 0.  1.
    9900012    2    1    2    0    0 -0.33220932909E+02 -0.13272800379E+02  0.24572864060E+02  0.47787271189E+02  0.20000000658E+02 0.  0.
         12    1    1    2    0    0  0.33220932909E+02  0.13272800379E+02 -0.24572864060E+02  0.43400728811E+02  0.00000000000E+00 0. -1.
         11    1    3    3    0    0 -0.61986588796E+01 -0.56806703797E+01 -0.92375108984E-01  0.84084434523E+01  0.51100000000E-03 0.  1.
        -11    1    3    3    0    0 -0.72848914282E+00 -0.20240223577E+00  0.65757705092E+01  0.66190951909E+01  0.51100000000E-03 0. -1.
         12    1    3    3    0    0 -0.26293784886E+02 -0.73897277632E+01  0.18089468660E+02  0.32759732546E+02  0.00000000000E+00 0. -1.
</event>
<event>
 7    1  0.2328615E-009  0.4778727E+02  0.7816164E-02  0.1312668E+00
        -11   -1    0    0    0    0  0.00000000000E+00  0.00000000000E+00  0.45593999997E+02  0.45594000000E+02  0.51100000000E-03 0.  1.
         11   -1    0    0    0    0 -0.00000000000E+00 -0.00000000000E+00 -0.45593999997E+02  0.45594000000E+02  0.51100000000E-03 0. -1.
    9900012    2    1    2    0    0 -0.42524498038E+02 -0.46618713995E+01 -0.73182820530E+01  0.47787271544E+02  0.20000002278E+02 0.  0.
         12    1    1    2    0    0  0.42524498038E+02  0.46618713995E+01  0.73182820530E+01  0.43400728456E+02  0.00000000000E+00 0. -1.
         11    1    3    3    0    0 -0.20206099857E+02 -0.23404079473E+00 -0.19998809246E+01  0.20306175674E+02  0.51100000000E-03 0. -1.
        -11    1    3    3    0    0 -0.14783065007E+02 -0.69009714999E+01  0.23097427788E+01  0.16477176051E+02  0.51100000000E-03 0.  1.
         12    1    3    3    0    0 -0.75353331741E+01  0.24731408952E+01 -0.76281439073E+01  0.11003919820E+02  0.00000000000E+00 0. -1.
</event>
<event>
 7    1  0.2328615E-009  0.4778727E+02  0.7816164E-02  0.1312668E+00
        -11   -1    0    0    0    0  0.00000000000E+00  0.00000000000E+00  0.45593999997E+02  0.45594000000E+02  0.51100000000E-03 0. -1.
         11   -1    0    0    0    0 -0.00000000000E+00 -0.00000000000E+00 -0.45593999997E+02  0.45594000000E+02  0.51100000000E-03 0.  1.
    9900012    2    1    2    0    0  0.22610016161E+02  0.34534757706E+00 -0.37044451007E+02  0.47787269059E+02  0.19999990948E+02 0.  0.
         12    1    1    2    0    0 -0.22610016161E+02 -0.34534757706E+00  0.37044451007E+02  0.43400730941E+02  0.00000000000E+00 0. -1.
         11    1    3    3    0    0  0.35430186087E+01  0.85986513657E-01 -0.64894952169E+01  0.73941816974E+01  0.51100000000E-03 0. -1.
        -11    1    3    3    0    0  0.16256443865E+02  0.62727466017E+01 -0.28570893573E+02  0.33465135244E+02  0.51100000000E-03 0.  1.
         12    1    3    3    0    0  0.28105536876E+01 -0.60133855383E+01 -0.19840622175E+01  0.69279521178E+01  0.00000000000E+00 0. -1.
</event>
<event>
 7    1  0.2328615E-009  0.4778727E+02  0.7816164E-02  0.1312668E+00
        -11   -1    0    0    0    0  0.00000000000E+00  0.00000000000E+00  0.45593999997E+02  0.45594000000E+02  0.51100000000E-03 0. -1.
         11   -1    0    0    0    0 -0.00000000000E+00 -0.00000000000E+00 -0.45593999997E+02  0.45594000000E+02  0.51100000000E-03 0.  1.
    9900012    2    1    2    0    0 -0.19977811248E+02  0.97584597122E+01 -0.37273082853E+02  0.47787272084E+02  0.20000004742E+02 0.  0.
         12    1    1    2    0    0  0.19977811248E+02 -0.97584597122E+01  0.37273082853E+02  0.43400727916E+02  0.00000000000E+00 0. -1.
         11    1    3    3    0    0 -0.20502065813E+01 -0.13375611224E+01 -0.21822587915E+01  0.32794314257E+01  0.51100000000E-03 0. -1.
        -11    1    3    3    0    0 -0.13274532639E+01  0.73564667402E+01 -0.27526277000E+01  0.79659710383E+01  0.51100000000E-03 0.  1.
        -12    1    3    3    0    0 -0.16600151403E+02  0.37395540944E+01 -0.32338196362E+02  0.36541869620E+02  0.00000000000E+00 0.  1.
</event>
<event>
 7    1  0.2328615E-009  0.4778724E+02  0.7816164E-02  0.1312668E+00
        -11   -1    0    0    0    0  0.00000000000E+00  0.00000000000E+00  0.45593999997E+02  0.45594000000E+02  0.51100000000E-03 0.  1.
         11   -1    0    0    0    0 -0.00000000000E+00 -0.00000000000E+00 -0.45593999997E+02  0.45594000000E+02  0.51100000000E-03 0. -1.
    9900012    2    1    2    0    0  0.20553934472E+02 -0.19345296139E+02  0.32968486963E+02  0.47787241509E+02  0.19999865335E+02 0.  0.
         12    1    1    2    0    0 -0.20553934472E+02  0.19345296139E+02 -0.32968486963E+02  0.43400758491E+02  0.00000000000E+00 0. -1.
         11    1    3    3    0    0 -0.17896365361E+01 -0.15108932752E+01 -0.32452013956E+00  0.23645107322E+01  0.51100000000E-03 0. -1.
        -11    1    3    3    0    0  0.47996577695E+01  0.61324211704E+00  0.24291327962E+01  0.54141912601E+01  0.51100000000E-03 0.  1.
        -12    1    3    3    0    0  0.17543913238E+02 -0.18447644981E+02  0.30863874307E+02  0.40008539517E+02  0.00000000000E+00 0.  1.
</event>
<event>
 7    1  0.2328615E-009  0.4778729E+02  0.7816164E-02  0.1312668E+00
        -11   -1    0    0    0    0  0.00000000000E+00  0.00000000000E+00  0.45593999997E+02  0.45594000000E+02  0.51100000000E-03 0.  1.
         11   -1    0    0    0    0 -0.00000000000E+00 -0.00000000000E+00 -0.45593999997E+02  0.45594000000E+02  0.51100000000E-03 0. -1.
    9900012    2    1    2    0    0  0.31854294735E+02  0.29477534498E+02  0.13400649804E-01  0.47787293638E+02  0.20000103011E+02 0.  0.
         12    1    1    2    0    0 -0.31854294735E+02 -0.29477534498E+02 -0.13400649804E-01  0.43400706362E+02  0.00000000000E+00 0. -1.
         11    1    3    3    0    0  0.69393244320E+01  0.16379853243E+00 -0.18111250802E+01  0.71736481548E+01  0.51100000000E-03 0. -1.
        -11    1    3    3    0    0 -0.13919681255E+01  0.32283150639E+01 -0.91450415352E-01  0.35168106082E+01  0.51100000000E-03 0.  1.
        -12    1    3    3    0    0  0.26306938429E+02  0.26085420902E+02  0.19159761454E+01  0.37096834875E+02  0.00000000000E+00 0.  1.
</event>
<event>
 7    1  0.2328615E-009  0.4778728E+02  0.7816164E-02  0.1312668E+00
        -11   -1    0    0    0    0  0.00000000000E+00  0.00000000000E+00  0.45593999997E+02  0.45594000000E+02  0.51100000000E-03 0.  1.
         11   -1    0    0    0    0 -0.00000000000E+00 -0.00000000000E+00 -0.45593999997E+02  0.45594000000E+02  0.51100000000E-03 0. -1.
    9900012    2    1    2    0    0  0.35844803198E+02 -0.19298478487E+02  0.15044655970E+02  0.47787275795E+02  0.20000021660E+02 0.  0.
         12    1    1    2    0    0 -0.35844803198E+02  0.19298478487E+02 -0.15044655970E+02  0.43400724205E+02  0.00000000000E+00 0. -1.
         11    1    3    3    0    0 -0.16360439160E+01 -0.11054187813E+01 -0.29115802480E+00  0.19958365748E+01  0.51100000000E-03 0. -1.
        -11    1    3    3    0    0  0.75904848858E+01 -0.91190794140E+01  0.32951462810E+01  0.12313856400E+02  0.51100000000E-03 0.  1.
        -12    1    3    3    0    0  0.29890362229E+02 -0.90739802918E+01  0.12040667714E+02  0.33477582820E+02  0.00000000000E+00 0.  1.
</event>
<event>
 7    1  0.2328615E-009  0.4778727E+02  0.7816164E-02  0.1312668E+00
        -11   -1    0    0    0    0  0.00000000000E+00  0.00000000000E+00  0.45593999997E+02  0.45594000000E+02  0.51100000000E-03 0. -1.
         11   -1    0    0    0    0 -0.00000000000E+00 -0.00000000000E+00 -0.45593999997E+02  0.45594000000E+02  0.51100000000E-03 0.  1.
    9900012    2    1    2    0    0  0.70329418965E+01 -0.41647921226E+02 -0.99805641033E+01  0.47787271043E+02  0.19999999993E+02 0.  0.
         12    1    1    2    0    0 -0.70329418965E+01  0.41647921226E+02  0.99805641033E+01  0.43400728957E+02  0.00000000000E+00 0. -1.
         11    1    3    3    0    0 -0.32149160310E+01 -0.11265437481E+02 -0.14742422689E+01  0.11807588969E+02  0.51100000000E-03 0. -1.
        -11    1    3    3    0    0  0.25314437970E+00 -0.71034480736E+01 -0.79159766470E+01  0.10638878848E+02  0.51100000000E-03 0.  1.
         12    1    3    3    0    0  0.99947135478E+01 -0.23279035671E+02 -0.59034518743E+00  0.25340803226E+02  0.00000000000E+00 0. -1.
</event>
<event>
 7    1  0.2328615E-009  0.4778727E+02  0.7816164E-02  0.1312668E+00
        -11   -1    0    0    0    0  0.00000000000E+00  0.00000000000E+00  0.45593999997E+02  0.45594000000E+02  0.51100000000E-03 0.  1.
         11   -1    0    0    0    0 -0.00000000000E+00 -0.00000000000E+00 -0.45593999997E+02  0.45594000000E+02  0.51100000000E-03 0. -1.
    9900012    2    1    2    0    0  0.25869198034E+02  0.15247574935E+02  0.31335589260E+02  0.47787273018E+02  0.20000008998E+02 0.  0.
         12    1    1    2    0    0 -0.25869198034E+02 -0.15247574935E+02 -0.31335589260E+02  0.43400726982E+02  0.00000000000E+00 0. -1.
         11    1    3    3    0    0  0.90441323867E+01  0.12445058245E+02  0.14216076105E+02  0.20946900139E+02  0.51100000000E-03 0. -1.
        -11    1    3    3    0    0  0.44652347035E+01  0.63638523352E+01  0.72140676763E+01  0.10605645204E+02  0.51100000000E-03 0.  1.
         12    1    3    3    0    0  0.12359830944E+02 -0.35613356454E+01  0.99054454784E+01  0.16234727674E+02  0.00000000000E+00 0. -1.
</event>
<event>
 7    1  0.2328615E-009  0.4778727E+02  0.7816164E-02  0.1312668E+00
        -11   -1    0    0    0    0  0.00000000000E+00  0.00000000000E+00  0.45593999997E+02  0.45594000000E+02  0.51100000000E-03 0.  1.
         11   -1    0    0    0    0 -0.00000000000E+00 -0.00000000000E+00 -0.45593999997E+02  0.45594000000E+02  0.51100000000E-03 0. -1.
    9900012    2    1    2    0    0  0.22562970977E+02  0.65070356827E+01  0.36499232742E+02  0.47787272317E+02  0.20000005801E+02 0.  0.
         12    1    1    2    0    0 -0.22562970977E+02 -0.65070356827E+01 -0.36499232742E+02  0.43400727683E+02  0.00000000000E+00 0. -1.
         11    1    3    3    0    0  0.31401068295E+01 -0.29932312923E+01 -0.38635903549E+00  0.43553390265E+01  0.51100000000E-03 0. -1.
        -11    1    3    3    0    0  0.30339906087E+01 -0.12501561524E+01  0.43546549348E+01  0.54526149030E+01  0.51100000000E-03 0.  1.
        -12    1    3    3    0    0  0.16388873539E+02  0.10750423128E+02  0.32530936843E+02  0.37979318387E+02  0.00000000000E+00 0.  1.
</event>
<event>
 7    1  0.2328615E-009  0.4778728E+02  0.7816164E-02  0.1312668E+00
        -11   -1    0    0    0    0  0.00000000000E+00  0.00000000000E+00  0.45593999997E+02  0.45594000000E+02  0.51100000000E-03 0.  1.
         11   -1    0    0    0    0 -0.00000000000E+00 -0.00000000000E+00 -0.45593999997E+02  0.45594000000E+02  0.51100000000E-03 0. -1.
    9900012    2    1    2    0    0 -0.35956746278E+02  0.19179767263E+02  0.14928877041E+02  0.47787280595E+02  0.20000043544E+02 0.  0.
         12    1    1    2    0    0  0.35956746278E+02 -0.19179767263E+02 -0.14928877041E+02  0.43400719405E+02  0.00000000000E+00 0. -1.
         11    1    3    3    0    0 -0.71095834491E+01  0.30048612656E+01  0.68447376091E+01  0.10316288152E+02  0.51100000000E-03 0. -1.
        -11    1    3    3    0    0 -0.21826176951E+02  0.17477318845E+02  0.10595389532E+02  0.29901520930E+02  0.51100000000E-03 0.  1.
         12    1    3    3    0    0 -0.70209858775E+01 -0.13024128471E+01 -0.25112501000E+01  0.75694715127E+01  0.00000000000E+00 0. -1.
</event>
<event>
 7    1  0.2328615E-009  0.4778729E+02  0.7816164E-02  0.1312668E+00
        -11   -1    0    0    0    0  0.00000000000E+00  0.00000000000E+00  0.45593999997E+02  0.45594000000E+02  0.51100000000E-03 0. -1.
         11   -1    0    0    0    0 -0.00000000000E+00 -0.00000000000E+00 -0.45593999997E+02  0.45594000000E+02  0.51100000000E-03 0.  1.
    9900012    2    1    2    0    0  0.46855718209E+01  0.23879915730E+02 -0.35936282360E+02  0.47787293226E+02  0.20000101136E+02 0.  0.
         12    1    1    2    0    0 -0.46855718209E+01 -0.23879915730E+02  0.35936282360E+02  0.43400706774E+02  0.00000000000E+00 0. -1.
         11    1    3    3    0    0  0.87029632686E+00 -0.62800739087E-01 -0.79022633996E+01  0.79502909838E+01  0.51100000000E-03 0. -1.
        -11    1    3    3    0    0 -0.16528609719E+01  0.26526813837E+01  0.11243519138E+01  0.33215712250E+01  0.51100000000E-03 0.  1.
        -12    1    3    3    0    0  0.54681364660E+01  0.21290035086E+02 -0.29158370874E+02  0.36515431018E+02  0.00000000000E+00 0.  1.
</event>
<event>
 7    1  0.2328615E-009  0.4778728E+02  0.7816164E-02  0.1312668E+00
        -11   -1    0    0    0    0  0.00000000000E+00  0.00000000000E+00  0.45593999997E+02  0.45594000000E+02  0.51100000000E-03 0.  1.
         11   -1    0    0    0    0 -0.00000000000E+00 -0.00000000000E+00 -0.45593999997E+02  0.45594000000E+02  0.51100000000E-03 0. -1.
    9900012    2    1    2    0    0  0.14367355426E+02  0.14260981909E+02  0.38390443324E+02  0.47787278283E+02  0.20000033003E+02 0.  0.
         12    1    1    2    0    0 -0.14367355426E+02 -0.14260981909E+02 -0.38390443324E+02  0.43400721717E+02  0.00000000000E+00 0. -1.
         11    1    3    3    0    0  0.10297446348E+02  0.11937845476E+02  0.18774423587E+02  0.24515883366E+02  0.51100000000E-03 0. -1.
        -11    1    3    3    0    0  0.79997066890E+01  0.21244243154E+00  0.13637890993E+02  0.15812416320E+02  0.51100000000E-03 0.  1.
        -12    1    3    3    0    0 -0.39297976105E+01  0.21106940006E+01  0.59781287441E+01  0.74589785967E+01  0.00000000000E+00 0.  1.
</event>
<event>
 7    1  0.2328615E-009  0.4778727E+02  0.7816164E-02  0.1312668E+00
        -11   -1    0    0    0    0  0.00000000000E+00  0.00000000000E+00  0.45593999997E+02  0.45594000000E+02  0.51100000000E-03 0.  1.
         11   -1    0    0    0    0 -0.00000000000E+00 -0.00000000000E+00 -0.45593999997E+02  0.45594000000E+02  0.51100000000E-03 0. -1.
    9900012    2    1    2    0    0  0.77475231939E+01  0.13813789704E+02  0.40407651230E+02  0.47787272131E+02  0.20000004953E+02 0.  0.
         12    1    1    2    0    0 -0.77475231939E+01 -0.13813789704E+02 -0.40407651230E+02  0.43400727869E+02  0.00000000000E+00 0. -1.
         11    1    3    3    0    0  0.16283263929E+01  0.53192245196E+01  0.22662825045E+01  0.60067988966E+01  0.51100000000E-03 0. -1.
        -11    1    3    3    0    0 -0.44230702728E+00  0.74105678582E+01  0.79988123971E+01  0.10912980872E+02  0.51100000000E-03 0.  1.
        -12    1    3    3    0    0  0.65615038282E+01  0.10839973262E+01  0.30142556329E+02  0.30867492362E+02  0.00000000000E+00 0.  1.
</event>
<event>
 7    1  0.2328615E-009  0.4778727E+02  0.7816164E-02  0.1312668E+00
        -11   -1    0    0    0    0  0.00000000000E+00  0.00000000000E+00  0.45593999997E+02  0.45594000000E+02  0.51100000000E-03 0.  1.
         11   -1    0    0    0    0 -0.00000000000E+00 -0.00000000000E+00 -0.45593999997E+02  0.45594000000E+02  0.51100000000E-03 0. -1.
    9900012    2    1    2    0    0  0.41841325714E+02 -0.20893693397E+01 -0.11338496721E+02  0.47787268328E+02  0.19999987615E+02 0.  0.
         12    1    1    2    0    0 -0.41841325714E+02  0.20893693397E+01  0.11338496721E+02  0.43400731672E+02  0.00000000000E+00 0. -1.
         11    1    3    3    0    0  0.64481482864E+01 -0.54151508025E+01 -0.20185943872E+01  0.86589374694E+01  0.51100000000E-03 0. -1.
        -11    1    3    3    0    0 -0.19978139911E+00 -0.58678335930E+00 -0.26291576952E+01  0.27012400422E+01  0.51100000000E-03 0.  1.
        -12    1    3    3    0    0  0.35592958827E+02  0.39125648221E+01 -0.66907446382E+01  0.36427090817E+02  0.00000000000E+00 0.  1.
</event>
<event>
 7    1  0.2328615E-009  0.4778727E+02  0.7816164E-02  0.1312668E+00
        -11   -1    0    0    0    0  0.00000000000E+00  0.00000000000E+00  0.45593999997E+02  0.45594000000E+02  0.51100000000E-03 0.  1.
         11   -1    0    0    0    0 -0.00000000000E+00 -0.00000000000E+00 -0.45593999997E+02  0.45594000000E+02  0.51100000000E-03 0. -1.
    9900012    2    1    2    0    0  0.35223520053E+02  0.24211156725E+02  0.75330463798E+01  0.47787271174E+02  0.20000000589E+02 0.  0.
         12    1    1    2    0    0 -0.35223520053E+02 -0.24211156725E+02 -0.75330463798E+01  0.43400728826E+02  0.00000000000E+00 0. -1.
         11    1    3    3    0    0  0.19661417493E+02  0.11624875685E+02  0.97372739491E+01  0.24829892806E+02  0.51100000000E-03 0.  1.
        -11    1    3    3    0    0  0.22512397548E+00 -0.16322759309E+01  0.79508454666E+00  0.18295259540E+01  0.51100000000E-03 0. -1.
         12    1    3    3    0    0  0.15336978584E+02  0.14218556972E+02 -0.29993121159E+01  0.21127852414E+02  0.00000000000E+00 0. -1.
</event>
<event>
 7    1  0.2328615E-009  0.4778727E+02  0.7816164E-02  0.1312668E+00
        -11   -1    0    0    0    0  0.00000000000E+00  0.00000000000E+00  0.45593999997E+02  0.45594000000E+02  0.51100000000E-03 0. -1.
         11   -1    0    0    0    0 -0.00000000000E+00 -0.00000000000E+00 -0.45593999997E+02  0.45594000000E+02  0.51100000000E-03 0.  1.
    9900012    2    1    2    0    0 -0.12211543184E+02 -0.34007856233E+02 -0.24040945109E+02  0.47787272884E+02  0.20000008386E+02 0.  0.
         12    1    1    2    0    0  0.12211543184E+02  0.34007856233E+02  0.24040945109E+02  0.43400727116E+02  0.00000000000E+00 0. -1.
         11    1    3    3    0    0 -0.13033606863E+01 -0.57367390845E+01 -0.76614728395E+00  0.59326137852E+01  0.51100000000E-03 0. -1.
        -11    1    3    3    0    0 -0.14302242781E+02 -0.21047265916E+02 -0.12244360624E+02  0.28239439060E+02  0.51100000000E-03 0.  1.
         12    1    3    3    0    0  0.33940602839E+01 -0.72238512332E+01 -0.11030437201E+02  0.13615220038E+02  0.00000000000E+00 0. -1.
</event>
<event>
 7    1  0.2328615E-009  0.4778727E+02  0.7816164E-02  0.1312668E+00
        -11   -1    0    0    0    0  0.00000000000E+00  0.00000000000E+00  0.45593999997E+02  0.45594000000E+02  0.51100000000E-03 0.  1.
         11   -1    0    0    0    0 -0.00000000000E+00 -0.00000000000E+00 -0.45593999997E+02  0.45594000000E+02  0.51100000000E-03 0. -1.
    9900012    2    1    2    0    0 -0.84124286732E+01  0.29566199494E+02  0.30638119857E+02  0.47787268473E+02  0.19999988275E+02 0.  0.
         12    1    1    2    0    0  0.84124286732E+01 -0.29566199494E+02 -0.30638119857E+02  0.43400731527E+02  0.00000000000E+00 0. -1.
         11    1    3    3    0    0 -0.65861698749E+01  0.27112301811E+01  0.80962316857E+01  0.10783198528E+02  0.51100000000E-03 0. -1.
        -11    1    3    3    0    0  0.58787772366E+00  0.49584157240E+01  0.11120544515E+02  0.12190077821E+02  0.51100000000E-03 0.  1.
         12    1    3    3    0    0 -0.24141365220E+01  0.21896553589E+02  0.11421343657E+02  0.24813992125E+02  0.00000000000E+00 0. -1.
</event>
<event>
 7    1  0.2328615E-009  0.4778727E+02  0.7816164E-02  0.1312668E+00
        -11   -1    0    0    0    0  0.00000000000E+00  0.00000000000E+00  0.45593999997E+02  0.45594000000E+02  0.51100000000E-03 0.  1.
         11   -1    0    0    0    0 -0.00000000000E+00 -0.00000000000E+00 -0.45593999997E+02  0.45594000000E+02  0.51100000000E-03 0. -1.
    9900012    2    1    2    0    0 -0.22414587925E+01  0.16366960371E+01  0.43311897314E+02  0.47787270048E+02  0.19999995458E+02 0.  0.
         12    1    1    2    0    0  0.22414587925E+01 -0.16366960371E+01 -0.43311897314E+02  0.43400729952E+02  0.00000000000E+00 0. -1.
         11    1    3    3    0    0 -0.15573193667E+01 -0.69647541824E+01  0.24520349009E+02  0.25537826067E+02  0.51100000000E-03 0. -1.
        -11    1    3    3    0    0 -0.39379785289E+01  0.18625893805E+01  0.57557684872E+01  0.72184337106E+01  0.51100000000E-03 0.  1.
         12    1    3    3    0    0  0.32538391031E+01  0.67388608390E+01  0.13035779817E+02  0.15031010271E+02  0.00000000000E+00 0. -1.
</event>
<event>
 7    1  0.2328615E-009  0.4778727E+02  0.7816164E-02  0.1312668E+00
        -11   -1    0    0    0    0  0.00000000000E+00  0.00000000000E+00  0.45593999997E+02  0.45594000000E+02  0.51100000000E-03 0.  1.
         11   -1    0    0    0    0 -0.00000000000E+00 -0.00000000000E+00 -0.45593999997E+02  0.45594000000E+02  0.51100000000E-03 0. -1.
    9900012    2    1    2    0    0  0.40052373953E+02 -0.16668029472E+02  0.12680334441E+01  0.47787265276E+02  0.19999973699E+02 0.  0.
         12    1    1    2    0    0 -0.40052373953E+02  0.16668029472E+02 -0.12680334441E+01  0.43400734724E+02  0.00000000000E+00 0. -1.
         11    1    3    3    0    0  0.10425203608E+01 -0.40245069542E+01 -0.77340377287E+00  0.42286710187E+01  0.51100000000E-03 0. -1.
        -11    1    3    3    0    0  0.77093031166E+01 -0.83332938554E+01  0.36415828084E+01  0.11922175415E+02  0.51100000000E-03 0.  1.
         12    1    3    3    0    0  0.31300550476E+02 -0.43102286621E+01 -0.16001455915E+01  0.31636418842E+02  0.00000000000E+00 0. -1.
</event>
<event>
 7    1  0.2328615E-009  0.4778727E+02  0.7816164E-02  0.1312668E+00
        -11   -1    0    0    0    0  0.00000000000E+00  0.00000000000E+00  0.45593999997E+02  0.45594000000E+02  0.51100000000E-03 0.  1.
         11   -1    0    0    0    0 -0.00000000000E+00 -0.00000000000E+00 -0.45593999997E+02  0.45594000000E+02  0.51100000000E-03 0. -1.
    9900012    2    1    2    0    0  0.24451848208E+02 -0.30601101171E+02  0.18689651023E+02  0.47787270408E+02  0.19999997100E+02 0.  0.
         12    1    1    2    0    0 -0.24451848208E+02  0.30601101171E+02 -0.18689651023E+02  0.43400729592E+02  0.00000000000E+00 0. -1.
         11    1    3    3    0    0  0.30252635722E+00  0.18351182804E+01  0.30442364915E+01  0.35674300802E+01  0.51100000000E-03 0. -1.
        -11    1    3    3    0    0 -0.32427595237E+00 -0.56524834441E+00  0.14722897312E+01  0.16100614578E+01  0.51100000000E-03 0.  1.
        -12    1    3    3    0    0  0.24473597803E+02 -0.31870971107E+02  0.14173124801E+02  0.42609778870E+02  0.00000000000E+00 0.  1.
</event>
<event>
 7    1  0.2328615E-009  0.4778728E+02  0.7816164E-02  0.1312668E+00
        -11   -1    0    0    0    0  0.00000000000E+00  0.00000000000E+00  0.45593999997E+02  0.45594000000E+02  0.51100000000E-03 0.  1.
         11   -1    0    0    0    0 -0.00000000000E+00 -0.00000000000E+00 -0.45593999997E+02  0.45594000000E+02  0.51100000000E-03 0. -1.
    9900012    2    1    2    0    0 -0.10443163152E+01 -0.40367408028E+02  0.15906120059E+02  0.47787275550E+02  0.20000020543E+02 0.  0.
         12    1    1    2    0    0  0.10443163152E+01  0.40367408028E+02 -0.15906120059E+02  0.43400724450E+02  0.00000000000E+00 0. -1.
         11    1    3    3    0    0 -0.63195101209E+01 -0.12041518316E+02  0.62504399193E+01  0.14966708755E+02  0.51100000000E-03 0. -1.
        -11    1    3    3    0    0 -0.34280460966E+01 -0.14789108726E+02  0.59547537387E+01  0.16307309076E+02  0.51100000000E-03 0.  1.
         12    1    3    3    0    0  0.87032399023E+01 -0.13536780986E+02  0.37009264005E+01  0.16513257719E+02  0.00000000000E+00 0. -1.
</event>
<event>
 7    1  0.2328615E-009  0.4778727E+02  0.7816164E-02  0.1312668E+00
        -11   -1    0    0    0    0  0.00000000000E+00  0.00000000000E+00  0.45593999997E+02  0.45594000000E+02  0.51100000000E-03 0.  1.
         11   -1    0    0    0    0 -0.00000000000E+00 -0.00000000000E+00 -0.45593999997E+02  0.45594000000E+02  0.51100000000E-03 0. -1.
    9900012    2    1    2    0    0  0.17882410913E+02 -0.97479156512E+01  0.38325200438E+02  0.47787268805E+02  0.19999989792E+02 0.  0.
         12    1    1    2    0    0 -0.17882410913E+02  0.97479156512E+01 -0.38325200438E+02  0.43400731195E+02  0.00000000000E+00 0. -1.
         11    1    3    3    0    0  0.82182823331E+00 -0.36108648258E+01  0.85089646740E+00  0.37997067643E+01  0.51100000000E-03 0. -1.
        -11    1    3    3    0    0  0.13614957839E+02 -0.40131750473E+01  0.13217028936E+02  0.19394909257E+02  0.51100000000E-03 0.  1.
        -12    1    3    3    0    0  0.34456248405E+01 -0.21238757781E+01  0.24257275035E+02  0.24592652785E+02  0.00000000000E+00 0.  1.
</event>
<event>
 7    1  0.2328615E-009  0.4778730E+02  0.7816164E-02  0.1312668E+00
        -11   -1    0    0    0    0  0.00000000000E+00  0.00000000000E+00  0.45593999997E+02  0.45594000000E+02  0.51100000000E-03 0. -1.
         11   -1    0    0    0    0 -0.00000000000E+00 -0.00000000000E+00 -0.45593999997E+02  0.45594000000E+02  0.51100000000E-03 0.  1.
    9900012    2    1    2    0    0 -0.28530672254E+02 -0.25986431861E+02 -0.19857656102E+02  0.47787304084E+02  0.20000150640E+02 0.  0.
         12    1    1    2    0    0  0.28530672254E+02  0.25986431861E+02  0.19857656102E+02  0.43400695916E+02  0.00000000000E+00 0. -1.
         11    1    3    3    0    0 -0.11018346605E+02 -0.12966196854E+02 -0.19470853740E+01  0.17126510576E+02  0.51100000000E-03 0. -1.
        -11    1    3    3    0    0 -0.40925023824E+01 -0.86807405692E+01 -0.28143912365E+01  0.10001231468E+02  0.51100000000E-03 0.  1.
        -12    1    3    3    0    0 -0.13419823266E+02 -0.43394944376E+01 -0.15096179492E+02  0.20659562041E+02  0.00000000000E+00 0.  1.
</event>
<event>
 7    1  0.2328615E-009  0.4778727E+02  0.7816164E-02  0.1312668E+00
        -11   -1    0    0    0    0  0.00000000000E+00  0.00000000000E+00  0.45593999997E+02  0.45594000000E+02  0.51100000000E-03 0.  1.
         11   -1    0    0    0    0 -0.00000000000E+00 -0.00000000000E+00 -0.45593999997E+02  0.45594000000E+02  0.51100000000E-03 0. -1.
    9900012    2    1    2    0    0  0.18166669059E+02  0.88849642003E+01  0.38401209977E+02  0.47787269807E+02  0.19999994359E+02 0.  0.
         12    1    1    2    0    0 -0.18166669059E+02 -0.88849642003E+01 -0.38401209977E+02  0.43400730193E+02  0.00000000000E+00 0. -1.
         11    1    3    3    0    0  0.18305359795E+01  0.21107852750E+01  0.85556304532E+01  0.90002827268E+01  0.51100000000E-03 0. -1.
        -11    1    3    3    0    0  0.11365521516E+02  0.11586201863E+02  0.13764552828E+02  0.21280932022E+02  0.51100000000E-03 0.  1.
        -12    1    3    3    0    0  0.49706115640E+01 -0.48120229380E+01  0.16081026697E+02  0.17506055058E+02  0.00000000000E+00 0.  1.
</event>
<event>
 7    1  0.2328615E-009  0.4778727E+02  0.7816164E-02  0.1312668E+00
        -11   -1    0    0    0    0  0.00000000000E+00  0.00000000000E+00  0.45593999997E+02  0.45594000000E+02  0.51100000000E-03 0.  1.
         11   -1    0    0    0    0 -0.00000000000E+00 -0.00000000000E+00 -0.45593999997E+02  0.45594000000E+02  0.51100000000E-03 0. -1.
    9900012    2    1    2    0    0 -0.23126349963E+02 -0.13694441280E+02  0.34077226613E+02  0.47787272377E+02  0.20000006075E+02 0.  0.
         12    1    1    2    0    0  0.23126349963E+02  0.13694441280E+02 -0.34077226613E+02  0.43400727623E+02  0.00000000000E+00 0. -1.
         11    1    3    3    0    0 -0.17273831452E+01 -0.49128776800E+01  0.24387412323E+01  0.57504503031E+01  0.51100000000E-03 0. -1.
        -11    1    3    3    0    0  0.95159920768E+00 -0.27370396336E+01  0.97620599922E+01  0.10183061551E+02  0.51100000000E-03 0.  1.
         12    1    3    3    0    0 -0.22350566025E+02 -0.60445239667E+01  0.21876425389E+02  0.31853760522E+02  0.00000000000E+00 0. -1.
</event>
<event>
 7    1  0.2328615E-009  0.4778727E+02  0.7816164E-02  0.1312668E+00
        -11   -1    0    0    0    0  0.00000000000E+00  0.00000000000E+00  0.45593999997E+02  0.45594000000E+02  0.51100000000E-03 0.  1.
         11   -1    0    0    0    0 -0.00000000000E+00 -0.00000000000E+00 -0.45593999997E+02  0.45594000000E+02  0.51100000000E-03 0. -1.
    9900012    2    1    2    0    0  0.19163962412E+02 -0.20516365644E+02  0.33097502743E+02  0.47787269564E+02  0.19999993250E+02 0.  0.
         12    1    1    2    0    0 -0.19163962412E+02  0.20516365644E+02 -0.33097502743E+02  0.43400730436E+02  0.00000000000E+00 0. -1.
         11    1    3    3    0    0  0.93007152487E+01 -0.14430828457E+02  0.25171563827E+02  0.30468996371E+02  0.51100000000E-03 0.  1.
        -11    1    3    3    0    0  0.61002661453E+00  0.14818917774E+01  0.46581115023E+01  0.49260672691E+01  0.51100000000E-03 0. -1.
        -12    1    3    3    0    0  0.92532205487E+01 -0.75674289642E+01  0.32678274135E+01  0.12392205924E+02  0.00000000000E+00 0.  1.
</event>
<event>
 7    1  0.2328615E-009  0.4778728E+02  0.7816164E-02  0.1312668E+00
        -11   -1    0    0    0    0  0.00000000000E+00  0.00000000000E+00  0.45593999997E+02  0.45594000000E+02  0.51100000000E-03 0.  1.
         11   -1    0    0    0    0 -0.00000000000E+00 -0.00000000000E+00 -0.45593999997E+02  0.45594000000E+02  0.51100000000E-03 0. -1.
    9900012    2    1    2    0    0  0.20905562919E+02  0.37017408335E+02  0.87344996584E+01  0.47787279210E+02  0.20000037230E+02 0.  0.
         12    1    1    2    0    0 -0.20905562919E+02 -0.37017408335E+02 -0.87344996584E+01  0.43400720790E+02  0.00000000000E+00 0. -1.
         11    1    3    3    0    0  0.88544847304E-01 -0.38994210469E+00  0.31558153145E+01  0.31810478769E+01  0.51100000000E-03 0. -1.
        -11    1    3    3    0    0  0.44817645075E+01  0.18340506853E+01 -0.91058812333E+00  0.49273853115E+01  0.51100000000E-03 0.  1.
        -12    1    3    3    0    0  0.16335253564E+02  0.35573299755E+02  0.64892724672E+01  0.39678846021E+02  0.00000000000E+00 0.  1.
</event>
<event>
 7    1  0.2612873E-009  0.4778727E+02  0.7816164E-02  0.1312668E+00
        -11   -1    0    0    0    0  0.00000000000E+00  0.00000000000E+00  0.45593999997E+02  0.45594000000E+02  0.51100000000E-03 0.  1.
         11   -1    0    0    0    0 -0.00000000000E+00 -0.00000000000E+00 -0.45593999997E+02  0.45594000000E+02  0.51100000000E-03 0. -1.
    9900012    2    1    2    0    0 -0.14287248794E+02 -0.40739200349E+02 -0.44514414050E+01  0.47787271276E+02  0.20000001055E+02 0.  0.
         12    1    1    2    0    0  0.14287248794E+02  0.40739200349E+02  0.44514414050E+01  0.43400728724E+02  0.00000000000E+00 0. -1.
         11    1    3    3    0    0  0.13603891130E+01  0.44431556048E+00  0.15330724396E+01  0.20972329918E+01  0.51100000000E-03 0. -1.
        -11    1    3    3    0    0 -0.97290894080E+00 -0.11796702383E+02  0.16940707996E+01  0.11957366560E+02  0.51100000000E-03 0.  1.
        -12    1    3    3    0    0 -0.14674728966E+02 -0.29386813527E+02 -0.76785846442E+01  0.33732671724E+02  0.00000000000E+00 0.  1.
</event>
<event>
 7    1  0.2328615E-009  0.4778731E+02  0.7816164E-02  0.1312668E+00
        -11   -1    0    0    0    0  0.00000000000E+00  0.00000000000E+00  0.45593999997E+02  0.45594000000E+02  0.51100000000E-03 0.  1.
         11   -1    0    0    0    0 -0.00000000000E+00 -0.00000000000E+00 -0.45593999997E+02  0.45594000000E+02  0.51100000000E-03 0. -1.
    9900012    2    1    2    0    0 -0.12531109123E+02  0.16548852474E+02  0.38114656261E+02  0.47787306043E+02  0.20000159573E+02 0.  0.
         12    1    1    2    0    0  0.12531109123E+02 -0.16548852474E+02 -0.38114656261E+02  0.43400693957E+02  0.00000000000E+00 0. -1.
         11    1    3    3    0    0 -0.56924661928E+00 -0.13567529612E+00  0.49959658887E-01  0.58732080516E+00  0.51100000000E-03 0. -1.
        -11    1    3    3    0    0  0.35437620965E+01 -0.16385170509E+01  0.51532273423E+01  0.64651945234E+01  0.51100000000E-03 0.  1.
        -12    1    3    3    0    0 -0.15505624600E+02  0.18323044821E+02  0.32911469260E+02  0.40734790715E+02  0.00000000000E+00 0.  1.
</event>
<event>
 7    1  0.2328615E-009  0.4778727E+02  0.7816164E-02  0.1312668E+00
        -11   -1    0    0    0    0  0.00000000000E+00  0.00000000000E+00  0.45593999997E+02  0.45594000000E+02  0.51100000000E-03 0. -1.
         11   -1    0    0    0    0 -0.00000000000E+00 -0.00000000000E+00 -0.45593999997E+02  0.45594000000E+02  0.51100000000E-03 0.  1.
    9900012    2    1    2    0    0 -0.14963094159E+02  0.38167975042E+02 -0.14245514609E+02  0.47787271987E+02  0.20000004297E+02 0.  0.
         12    1    1    2    0    0  0.14963094159E+02 -0.38167975042E+02  0.14245514609E+02  0.43400728013E+02  0.00000000000E+00 0. -1.
         11    1    3    3    0    0  0.84975301372E+00  0.96368082337E+01  0.51908399280E+00  0.96881165130E+01  0.51100000000E-03 0. -1.
        -11    1    3    3    0    0  0.59641647719E+00  0.73297938952E+01  0.27486811463E+00  0.73591537490E+01  0.51100000000E-03 0.  1.
        -12    1    3    3    0    0 -0.16409263650E+02  0.21201372913E+02 -0.15039466717E+02  0.30740001725E+02  0.00000000000E+00 0.  1.
</event>
<event>
 7    1  0.2328615E-009  0.4778727E+02  0.7816164E-02  0.1312668E+00
        -11   -1    0    0    0    0  0.00000000000E+00  0.00000000000E+00  0.45593999997E+02  0.45594000000E+02  0.51100000000E-03 0.  1.
         11   -1    0    0    0    0 -0.00000000000E+00 -0.00000000000E+00 -0.45593999997E+02  0.45594000000E+02  0.51100000000E-03 0. -1.
    9900012    2    1    2    0    0  0.74520176166E+01 -0.31643574460E+02  0.28753692446E+02  0.47787271891E+02  0.20000003858E+02 0.  0.
         12    1    1    2    0    0 -0.74520176166E+01  0.31643574460E+02 -0.28753692446E+02  0.43400728109E+02  0.00000000000E+00 0. -1.
         11    1    3    3    0    0 -0.12283732285E+01 -0.42963976050E+01  0.12362600829E+01  0.46364072753E+01  0.51100000000E-03 0. -1.
        -11    1    3    3    0    0  0.94880817754E+01 -0.13070357968E+02  0.58252122797E+01  0.17169480235E+02  0.51100000000E-03 0.  1.
        -12    1    3    3    0    0 -0.80769093026E+00 -0.14276818887E+02  0.21692220083E+02  0.25981384380E+02  0.00000000000E+00 0.  1.
</event>
<event>
 7    1  0.2328615E-009  0.4778728E+02  0.7816164E-02  0.1312668E+00
        -11   -1    0    0    0    0  0.00000000000E+00  0.00000000000E+00  0.45593999997E+02  0.45594000000E+02  0.51100000000E-03 0.  1.
         11   -1    0    0    0    0 -0.00000000000E+00 -0.00000000000E+00 -0.45593999997E+02  0.45594000000E+02  0.51100000000E-03 0. -1.
    9900012    2    1    2    0    0  0.30083407128E+02  0.12739608216E+02  0.28571199924E+02  0.47787280340E+02  0.20000042381E+02 0.  0.
         12    1    1    2    0    0 -0.30083407128E+02 -0.12739608216E+02 -0.28571199924E+02  0.43400719660E+02  0.00000000000E+00 0. -1.
         11    1    3    3    0    0  0.12775978130E+00  0.15899897644E+01  0.31204715421E+01  0.35045303421E+01  0.51100000000E-03 0.  1.
        -11    1    3    3    0    0  0.49855695709E+01  0.10006544415E+02  0.90829637513E+01  0.14404411333E+02  0.51100000000E-03 0. -1.
         12    1    3    3    0    0  0.24970077776E+02  0.11430740369E+01  0.16367764631E+02  0.29878338665E+02  0.00000000000E+00 0. -1.
</event>
<event>
 7    1  0.2328615E-009  0.4778727E+02  0.7816164E-02  0.1312668E+00
        -11   -1    0    0    0    0  0.00000000000E+00  0.00000000000E+00  0.45593999997E+02  0.45594000000E+02  0.51100000000E-03 0. -1.
         11   -1    0    0    0    0 -0.00000000000E+00 -0.00000000000E+00 -0.45593999997E+02  0.45594000000E+02  0.51100000000E-03 0.  1.
    9900012    2    1    2    0    0  0.19492660700E+02  0.36377138839E+02 -0.13429949270E+02  0.47787267418E+02  0.19999983464E+02 0.  0.
         12    1    1    2    0    0 -0.19492660700E+02 -0.36377138839E+02  0.13429949270E+02  0.43400732582E+02  0.00000000000E+00 0. -1.
         11    1    3    3    0    0  0.79690912658E+01  0.11753539581E+02 -0.32081650612E+01  0.14558311427E+02  0.51100000000E-03 0.  1.
        -11    1    3    3    0    0  0.58338820661E+01  0.71383768870E+01 -0.11567875383E+02  0.14792104167E+02  0.51100000000E-03 0. -1.
         12    1    3    3    0    0  0.56896873682E+01  0.17485222371E+02  0.13460911742E+01  0.18436851824E+02  0.00000000000E+00 0. -1.
</event>
<event>
 7    1  0.2328615E-009  0.4778728E+02  0.7816164E-02  0.1312668E+00
        -11   -1    0    0    0    0  0.00000000000E+00  0.00000000000E+00  0.45593999997E+02  0.45594000000E+02  0.51100000000E-03 0. -1.
         11   -1    0    0    0    0 -0.00000000000E+00 -0.00000000000E+00 -0.45593999997E+02  0.45594000000E+02  0.51100000000E-03 0.  1.
    9900012    2    1    2    0    0  0.13725264230E+02 -0.39699776635E+02  0.10916393650E+02  0.47787276580E+02  0.20000025238E+02 0.  0.
         12    1    1    2    0    0 -0.13725264230E+02  0.39699776635E+02 -0.10916393650E+02  0.43400723420E+02  0.00000000000E+00 0. -1.
         11    1    3    3    0    0  0.26102007640E+01 -0.12396938138E+02  0.11158709938E+02  0.16882358572E+02  0.51100000000E-03 0. -1.
        -11    1    3    3    0    0  0.14233607524E+01 -0.89433436593E-01 -0.13939894990E+01  0.19942821153E+01  0.51100000000E-03 0.  1.
         12    1    3    3    0    0  0.96917027140E+01 -0.27213405061E+02  0.11516732103E+01  0.28910635892E+02  0.00000000000E+00 0. -1.
</event>
<event>
 7    1  0.2328615E-009  0.4778728E+02  0.7816164E-02  0.1312668E+00
        -11   -1    0    0    0    0  0.00000000000E+00  0.00000000000E+00  0.45593999997E+02  0.45594000000E+02  0.51100000000E-03 0. -1.
         11   -1    0    0    0    0 -0.00000000000E+00 -0.00000000000E+00 -0.45593999997E+02  0.45594000000E+02  0.51100000000E-03 0.  1.
    9900012    2    1    2    0    0  0.29506741858E+02  0.29759558135E+02  0.11284636308E+02  0.47787284198E+02  0.20000059974E+02 0.  0.
         12    1    1    2    0    0 -0.29506741858E+02 -0.29759558135E+02 -0.11284636308E+02  0.43400715802E+02  0.00000000000E+00 0. -1.
         11    1    3    3    0    0  0.66109257592E+01  0.50652466175E+01 -0.40798628976E+01  0.92739605463E+01  0.51100000000E-03 0. -1.
        -11    1    3    3    0    0  0.86005583509E+01  0.14974586852E+02  0.37036447803E+01  0.17661394063E+02  0.51100000000E-03 0.  1.
        -12    1    3    3    0    0  0.14295257748E+02  0.97197246658E+01  0.11660854425E+02  0.20851929589E+02  0.00000000000E+00 0.  1.
</event>
<event>
 7    1  0.2328615E-009  0.4778727E+02  0.7816164E-02  0.1312668E+00
        -11   -1    0    0    0    0  0.00000000000E+00  0.00000000000E+00  0.45593999997E+02  0.45594000000E+02  0.51100000000E-03 0.  1.
         11   -1    0    0    0    0 -0.00000000000E+00 -0.00000000000E+00 -0.45593999997E+02  0.45594000000E+02  0.51100000000E-03 0. -1.
    9900012    2    1    2    0    0  0.22840236801E+02  0.22985763418E+02  0.28872152928E+02  0.47787274755E+02  0.20000016920E+02 0.  0.
         12    1    1    2    0    0 -0.22840236801E+02 -0.22985763418E+02 -0.28872152928E+02  0.43400725245E+02  0.00000000000E+00 0. -1.
         11    1    3    3    0    0 -0.74043132473E+00  0.69985526946E+01  0.30274472886E+01  0.76611628172E+01  0.51100000000E-03 0. -1.
        -11    1    3    3    0    0  0.10559790936E+02  0.13824266253E+02  0.13086082269E+02  0.21768442100E+02  0.51100000000E-03 0.  1.
        -12    1    3    3    0    0  0.13020877189E+02  0.21629444703E+01  0.12758623371E+02  0.18357669838E+02  0.00000000000E+00 0.  1.
</event>
<event>
 7    1  0.2328615E-009  0.4778726E+02  0.7816164E-02  0.1312668E+00
        -11   -1    0    0    0    0  0.00000000000E+00  0.00000000000E+00  0.45593999997E+02  0.45594000000E+02  0.51100000000E-03 0.  1.
         11   -1    0    0    0    0 -0.00000000000E+00 -0.00000000000E+00 -0.45593999997E+02  0.45594000000E+02  0.51100000000E-03 0. -1.
    9900012    2    1    2    0    0 -0.36310115463E+02 -0.69044280960E+01  0.22749251417E+02  0.47787262077E+02  0.19999959113E+02 0.  0.
         12    1    1    2    0    0  0.36310115463E+02  0.69044280960E+01 -0.22749251417E+02  0.43400737923E+02  0.00000000000E+00 0. -1.
         11    1    3    3    0    0 -0.10156266841E+02 -0.45420071849E+01  0.10624828331E+02  0.15383970968E+02  0.51100000000E-03 0. -1.
        -11    1    3    3    0    0  0.31949941880E+00 -0.22552626310E+01  0.41852074575E+01  0.47648978097E+01  0.51100000000E-03 0.  1.
         12    1    3    3    0    0 -0.26473348041E+02 -0.10715828006E+00  0.79392156279E+01  0.27638393299E+02  0.00000000000E+00 0. -1.
</event>
<event>
 7    1  0.2328615E-009  0.4778727E+02  0.7816164E-02  0.1312668E+00
        -11   -1    0    0    0    0  0.00000000000E+00  0.00000000000E+00  0.45593999997E+02  0.45594000000E+02  0.51100000000E-03 0.  1.
         11   -1    0    0    0    0 -0.00000000000E+00 -0.00000000000E+00 -0.45593999997E+02  0.45594000000E+02  0.51100000000E-03 0. -1.
    9900012    2    1    2    0    0  0.91340218051E+01  0.40291018077E+02  0.13297632659E+02  0.47787268136E+02  0.19999986741E+02 0.  0.
         12    1    1    2    0    0 -0.91340218051E+01 -0.40291018077E+02 -0.13297632659E+02  0.43400731864E+02  0.00000000000E+00 0. -1.
         11    1    3    3    0    0  0.30739132749E+01  0.61547172639E+01  0.77312546970E+01  0.10348999317E+02  0.51100000000E-03 0. -1.
        -11    1    3    3    0    0 -0.48840402371E+00  0.12532181475E+02  0.77742345857E+01  0.14755772927E+02  0.51100000000E-03 0.  1.
         12    1    3    3    0    0  0.65485125539E+01  0.21604119337E+02 -0.22078566242E+01  0.22682495892E+02  0.00000000000E+00 0. -1.
</event>
<event>
 7    1  0.2328615E-009  0.4778727E+02  0.7816164E-02  0.1312668E+00
        -11   -1    0    0    0    0  0.00000000000E+00  0.00000000000E+00  0.45593999997E+02  0.45594000000E+02  0.51100000000E-03 0.  1.
         11   -1    0    0    0    0 -0.00000000000E+00 -0.00000000000E+00 -0.45593999997E+02  0.45594000000E+02  0.51100000000E-03 0. -1.
    9900012    2    1    2    0    0 -0.21218356484E+02 -0.31775836600E+02  0.20583998024E+02  0.47787269382E+02  0.19999992420E+02 0.  0.
         12    1    1    2    0    0  0.21218356484E+02  0.31775836600E+02 -0.20583998024E+02  0.43400730618E+02  0.00000000000E+00 0. -1.
         11    1    3    3    0    0 -0.33429636553E+00 -0.55885964076E+01  0.41274007262E+01  0.69555446144E+01  0.51100000000E-03 0. -1.
        -11    1    3    3    0    0 -0.21361512209E+02 -0.28149398876E+02  0.15326286980E+02  0.38517501655E+02  0.51100000000E-03 0.  1.
        -12    1    3    3    0    0  0.47745208970E+00  0.19621586836E+01  0.11303103181E+01  0.23142231121E+01  0.00000000000E+00 0.  1.
</event>
<event>
 7    1  0.2328615E-009  0.4778729E+02  0.7816164E-02  0.1312668E+00
        -11   -1    0    0    0    0  0.00000000000E+00  0.00000000000E+00  0.45593999997E+02  0.45594000000E+02  0.51100000000E-03 0.  1.
         11   -1    0    0    0    0 -0.00000000000E+00 -0.00000000000E+00 -0.45593999997E+02  0.45594000000E+02  0.51100000000E-03 0. -1.
    9900012    2    1    2    0    0  0.25497124488E+02  0.73318829967E+01  0.34347665301E+02  0.47787285985E+02  0.20000068118E+02 0.  0.
         12    1    1    2    0    0 -0.25497124488E+02 -0.73318829967E+01 -0.34347665301E+02  0.43400714015E+02  0.00000000000E+00 0. -1.
         11    1    3    3    0    0  0.33665078855E+00 -0.14887295691E+01  0.98064497944E+00  0.18141979826E+01  0.51100000000E-03 0. -1.
        -11    1    3    3    0    0  0.23074755453E+02  0.10927219676E+02  0.20425334974E+02  0.32696219630E+02  0.51100000000E-03 0.  1.
        -12    1    3    3    0    0  0.20857182461E+01 -0.21066071099E+01  0.12941685348E+02  0.13276868372E+02  0.00000000000E+00 0.  1.
</event>
<event>
 7    1  0.2328615E-009  0.4778727E+02  0.7816164E-02  0.1312668E+00
        -11   -1    0    0    0    0  0.00000000000E+00  0.00000000000E+00  0.45593999997E+02  0.45594000000E+02  0.51100000000E-03 0.  1.
         11   -1    0    0    0    0 -0.00000000000E+00 -0.00000000000E+00 -0.45593999997E+02  0.45594000000E+02  0.51100000000E-03 0. -1.
    9900012    2    1    2    0    0  0.39780583895E+02  0.11681652772E+02 -0.12832284934E+02  0.47787269555E+02  0.19999993209E+02 0.  0.
         12    1    1    2    0    0 -0.39780583895E+02 -0.11681652772E+02  0.12832284934E+02  0.43400730445E+02  0.00000000000E+00 0. -1.
         11    1    3    3    0    0  0.38751890787E+01 -0.17117804473E+01 -0.14979003332E+01  0.44934383677E+01  0.51100000000E-03 0. -1.
        -11    1    3    3    0    0  0.17514440011E+02  0.14754843025E+01 -0.12144327089E+02  0.21363926220E+02  0.51100000000E-03 0.  1.
         12    1    3    3    0    0  0.18390954806E+02  0.11917948917E+02  0.80994248790E+00  0.21929904968E+02  0.00000000000E+00 0. -1.
</event>
<event>
 7    1  0.2328615E-009  0.4778728E+02  0.7816164E-02  0.1312668E+00
        -11   -1    0    0    0    0  0.00000000000E+00  0.00000000000E+00  0.45593999997E+02  0.45594000000E+02  0.51100000000E-03 0.  1.
         11   -1    0    0    0    0 -0.00000000000E+00 -0.00000000000E+00 -0.45593999997E+02  0.45594000000E+02  0.51100000000E-03 0. -1.
    9900012    2    1    2    0    0  0.42140919973E+02 -0.10214197525E+02  0.18535500942E+01  0.47787278633E+02  0.20000034598E+02 0.  0.
         12    1    1    2    0    0 -0.42140919973E+02  0.10214197525E+02 -0.18535500942E+01  0.43400721367E+02  0.00000000000E+00 0. -1.
         11    1    3    3    0    0  0.10853463161E+02 -0.17375135308E+01 -0.41945774261E+01  0.11764824517E+02  0.51100000000E-03 0. -1.
        -11    1    3    3    0    0  0.28120910054E+02 -0.22266873124E+01  0.29536914843E+01  0.28363145317E+02  0.51100000000E-03 0.  1.
        -12    1    3    3    0    0  0.31665467578E+01 -0.62499966818E+01  0.30944360361E+01  0.76593087987E+01  0.00000000000E+00 0.  1.
</event>
<event>
 7    1  0.2328615E-009  0.4778727E+02  0.7816164E-02  0.1312668E+00
        -11   -1    0    0    0    0  0.00000000000E+00  0.00000000000E+00  0.45593999997E+02  0.45594000000E+02  0.51100000000E-03 0.  1.
         11   -1    0    0    0    0 -0.00000000000E+00 -0.00000000000E+00 -0.45593999997E+02  0.45594000000E+02  0.51100000000E-03 0. -1.
    9900012    2    1    2    0    0  0.41337576409E+02  0.70371641212E+01  0.11194023035E+02  0.47787273578E+02  0.20000011553E+02 0.  0.
         12    1    1    2    0    0 -0.41337576409E+02 -0.70371641212E+01 -0.11194023035E+02  0.43400726422E+02  0.00000000000E+00 0. -1.
         11    1    3    3    0    0  0.53945814316E+01  0.50239519408E+01  0.39911128247E+00  0.73824719440E+01  0.51100000000E-03 0. -1.
        -11    1    3    3    0    0  0.93899149787E+01  0.52902965746E+01 -0.16399965169E+01  0.10901712250E+02  0.51100000000E-03 0.  1.
         12    1    3    3    0    0  0.26553079999E+02 -0.32770843942E+01  0.12434908269E+02  0.29503089384E+02  0.00000000000E+00 0. -1.
</event>
<event>
 7    1  0.2328615E-009  0.4778727E+02  0.7816164E-02  0.1312668E+00
        -11   -1    0    0    0    0  0.00000000000E+00  0.00000000000E+00  0.45593999997E+02  0.45594000000E+02  0.51100000000E-03 0.  1.
         11   -1    0    0    0    0 -0.00000000000E+00 -0.00000000000E+00 -0.45593999997E+02  0.45594000000E+02  0.51100000000E-03 0. -1.
    9900012    2    1    2    0    0  0.12584816724E+02 -0.21558563914E+02  0.35503156212E+02  0.47787269694E+02  0.19999993844E+02 0.  0.
         12    1    1    2    0    0 -0.12584816724E+02  0.21558563914E+02 -0.35503156212E+02  0.43400730306E+02  0.00000000000E+00 0. -1.
         11    1    3    3    0    0  0.10633054991E+01 -0.30698792523E+01 -0.31434849382E+00  0.32639841367E+01  0.51100000000E-03 0. -1.
        -11    1    3    3    0    0  0.10246370959E+02 -0.85627085544E+01  0.95579218110E+01  0.16421387433E+02  0.51100000000E-03 0.  1.
        -12    1    3    3    0    0  0.12751402665E+01 -0.99259761073E+01  0.26259582895E+02  0.28101898125E+02  0.00000000000E+00 0.  1.
</event>
<event>
 7    1  0.2328615E-009  0.4778728E+02  0.7816164E-02  0.1312668E+00
        -11   -1    0    0    0    0  0.00000000000E+00  0.00000000000E+00  0.45593999997E+02  0.45594000000E+02  0.51100000000E-03 0.  1.
         11   -1    0    0    0    0 -0.00000000000E+00 -0.00000000000E+00 -0.45593999997E+02  0.45594000000E+02  0.51100000000E-03 0. -1.
    9900012    2    1    2    0    0  0.84106774402E+01 -0.44234684905E+01  0.42347565209E+02  0.47787275955E+02  0.20000022391E+02 0.  0.
         12    1    1    2    0    0 -0.84106774402E+01  0.44234684905E+01 -0.42347565209E+02  0.43400724045E+02  0.00000000000E+00 0. -1.
         11    1    3    3    0    0  0.10774757977E+01 -0.20392497647E+01 -0.32139114613E+00  0.23286876621E+01  0.51100000000E-03 0. -1.
        -11    1    3    3    0    0  0.68978944411E+01 -0.57052159059E+01  0.14150829943E+02  0.16744444589E+02  0.51100000000E-03 0.  1.
         12    1    3    3    0    0  0.43530720146E+00  0.33209971801E+01  0.28518126412E+02  0.28714143704E+02  0.00000000000E+00 0. -1.
</event>
<event>
 7    1  0.2328615E-009  0.4778727E+02  0.7816164E-02  0.1312668E+00
        -11   -1    0    0    0    0  0.00000000000E+00  0.00000000000E+00  0.45593999997E+02  0.45594000000E+02  0.51100000000E-03 0. -1.
         11   -1    0    0    0    0 -0.00000000000E+00 -0.00000000000E+00 -0.45593999997E+02  0.45594000000E+02  0.51100000000E-03 0.  1.
    9900012    2    1    2    0    0 -0.42514292992E+02  0.51299530420E+01  0.70598812115E+01  0.47787269021E+02  0.19999990773E+02 0.  0.
         12    1    1    2    0    0  0.42514292992E+02 -0.51299530420E+01 -0.70598812115E+01  0.43400730979E+02  0.00000000000E+00 0. -1.
         11    1    3    3    0    0 -0.17183601833E+02  0.45816705150E+01 -0.41374638625E+01  0.18258874120E+02  0.51100000000E-03 0. -1.
        -11    1    3    3    0    0 -0.35261430386E+01 -0.34228101845E+01  0.56426321843E+00  0.49464843605E+01  0.51100000000E-03 0.  1.
        -12    1    3    3    0    0 -0.21804548120E+02  0.39710927115E+01  0.10633081856E+02  0.24581910540E+02  0.00000000000E+00 0.  1.
</event>
<event>
 7    1  0.2328615E-009  0.4778727E+02  0.7816164E-02  0.1312668E+00
        -11   -1    0    0    0    0  0.00000000000E+00  0.00000000000E+00  0.45593999997E+02  0.45594000000E+02  0.51100000000E-03 0. -1.
         11   -1    0    0    0    0 -0.00000000000E+00 -0.00000000000E+00 -0.45593999997E+02  0.45594000000E+02  0.51100000000E-03 0.  1.
    9900012    2    1    2    0    0  0.40704152895E+02  0.39098032573E+01  0.14543333281E+02  0.47787272272E+02  0.20000005596E+02 0.  0.
         12    1    1    2    0    0 -0.40704152895E+02 -0.39098032573E+01 -0.14543333281E+02  0.43400727728E+02  0.00000000000E+00 0. -1.
         11    1    3    3    0    0  0.51520952566E+01  0.48354630804E+00  0.39985794514E+01  0.65396131732E+01  0.51100000000E-03 0. -1.
        -11    1    3    3    0    0  0.31112152733E+02 -0.90948125498E+00  0.26960573871E+01  0.31241989846E+02  0.51100000000E-03 0.  1.
        -12    1    3    3    0    0  0.44399049054E+01  0.43357382042E+01  0.78486964425E+01  0.10005669252E+02  0.00000000000E+00 0.  1.
</event>
<event>
 7    1  0.2328615E-009  0.4778728E+02  0.7816164E-02  0.1312668E+00
        -11   -1    0    0    0    0  0.00000000000E+00  0.00000000000E+00  0.45593999997E+02  0.45594000000E+02  0.51100000000E-03 0.  1.
         11   -1    0    0    0    0 -0.00000000000E+00 -0.00000000000E+00 -0.45593999997E+02  0.45594000000E+02  0.51100000000E-03 0. -1.
    9900012    2    1    2    0    0  0.76964238041E+01  0.84172315323E+01  0.41875268480E+02  0.47787276085E+02  0.20000022984E+02 0.  0.
         12    1    1    2    0    0 -0.76964238041E+01 -0.84172315323E+01 -0.41875268480E+02  0.43400723915E+02  0.00000000000E+00 0. -1.
         11    1    3    3    0    0  0.53730785290E+00 -0.20159135136E+01 -0.26320572292E+00  0.21028277477E+01  0.51100000000E-03 0. -1.
        -11    1    3    3    0    0  0.16484668141E+01  0.40568124072E+01  0.22649491611E+01  0.49300268465E+01  0.51100000000E-03 0.  1.
        -12    1    3    3    0    0  0.55106491371E+01  0.63763326387E+01  0.39873525042E+02  0.40754421491E+02  0.00000000000E+00 0.  1.
</event>
<event>
 7    1  0.2328615E-009  0.4778726E+02  0.7816164E-02  0.1312668E+00
        -11   -1    0    0    0    0  0.00000000000E+00  0.00000000000E+00  0.45593999997E+02  0.45594000000E+02  0.51100000000E-03 0. -1.
         11   -1    0    0    0    0 -0.00000000000E+00 -0.00000000000E+00 -0.45593999997E+02  0.45594000000E+02  0.51100000000E-03 0.  1.
    9900012    2    1    2    0    0 -0.15146385365E+02  0.35033641079E+02 -0.20660476714E+02  0.47787259281E+02  0.19999946366E+02 0.  0.
         12    1    1    2    0    0  0.15146385365E+02 -0.35033641079E+02  0.20660476714E+02  0.43400740719E+02  0.00000000000E+00 0. -1.
         11    1    3    3    0    0 -0.79482696408E+01  0.67327893746E+01 -0.75823022897E+01  0.12883972653E+02  0.51100000000E-03 0. -1.
        -11    1    3    3    0    0 -0.68107351627E+01  0.46670559521E+01 -0.60755329809E+01  0.10250835380E+02  0.51100000000E-03 0.  1.
        -12    1    3    3    0    0 -0.38738056135E+00  0.23633795753E+02 -0.70026414433E+01  0.24652451249E+02  0.00000000000E+00 0.  1.
</event>
<event>
 7    1  0.2328615E-009  0.4778727E+02  0.7816164E-02  0.1312668E+00
        -11   -1    0    0    0    0  0.00000000000E+00  0.00000000000E+00  0.45593999997E+02  0.45594000000E+02  0.51100000000E-03 0. -1.
         11   -1    0    0    0    0 -0.00000000000E+00 -0.00000000000E+00 -0.45593999997E+02  0.45594000000E+02  0.51100000000E-03 0.  1.
    9900012    2    1    2    0    0 -0.27269552147E+01  0.43117838321E+02  0.41278726408E+01  0.47787267302E+02  0.19999982937E+02 0.  0.
         12    1    1    2    0    0  0.27269552147E+01 -0.43117838321E+02 -0.41278726408E+01  0.43400732698E+02  0.00000000000E+00 0. -1.
         11    1    3    3    0    0 -0.39073214359E+01  0.11642372826E+02  0.49365778439E+01  0.13235626426E+02  0.51100000000E-03 0. -1.
        -11    1    3    3    0    0 -0.13195363078E+01  0.26768381490E+02  0.43296313298E+01  0.27148354119E+02  0.51100000000E-03 0.  1.
        -12    1    3    3    0    0  0.24999025290E+01  0.47070840053E+01 -0.51383365329E+01  0.74032867574E+01  0.00000000000E+00 0.  1.
</event>
<event>
 7    1  0.2328615E-009  0.4778727E+02  0.7816164E-02  0.1312668E+00
        -11   -1    0    0    0    0  0.00000000000E+00  0.00000000000E+00  0.45593999997E+02  0.45594000000E+02  0.51100000000E-03 0.  1.
         11   -1    0    0    0    0 -0.00000000000E+00 -0.00000000000E+00 -0.45593999997E+02  0.45594000000E+02  0.51100000000E-03 0. -1.
    9900012    2    1    2    0    0 -0.31837071032E+01 -0.38403910840E+02  0.19965641634E+02  0.47787271842E+02  0.20000003637E+02 0.  0.
         12    1    1    2    0    0  0.31837071032E+01  0.38403910840E+02 -0.19965641634E+02  0.43400728158E+02  0.00000000000E+00 0. -1.
         11    1    3    3    0    0  0.63713738895E+01 -0.95799692488E+01  0.60687141159E+01  0.13007671096E+02  0.51100000000E-03 0. -1.
        -11    1    3    3    0    0 -0.33613184888E+01 -0.22837368946E+02  0.11750857705E+02  0.25902249698E+02  0.51100000000E-03 0.  1.
         12    1    3    3    0    0 -0.61937625039E+01 -0.59865726457E+01  0.21460698135E+01  0.88773510486E+01  0.00000000000E+00 0. -1.
</event>
<event>
 7    1  0.2328615E-009  0.4778727E+02  0.7816164E-02  0.1312668E+00
        -11   -1    0    0    0    0  0.00000000000E+00  0.00000000000E+00  0.45593999997E+02  0.45594000000E+02  0.51100000000E-03 0. -1.
         11   -1    0    0    0    0 -0.00000000000E+00 -0.00000000000E+00 -0.45593999997E+02  0.45594000000E+02  0.51100000000E-03 0.  1.
    9900012    2    1    2    0    0  0.39710323367E+02 -0.15873943535E+02  0.73980709577E+01  0.47787270523E+02  0.19999997622E+02 0.  0.
         12    1    1    2    0    0 -0.39710323367E+02  0.15873943535E+02 -0.73980709577E+01  0.43400729477E+02  0.00000000000E+00 0. -1.
         11    1    3    3    0    0  0.51793314424E+01  0.74787145818E+00  0.21809712959E+01  0.56693405227E+01  0.51100000000E-03 0. -1.
        -11    1    3    3    0    0  0.35778739280E+02 -0.17045236578E+02  0.32690744220E+01  0.39766130341E+02  0.51100000000E-03 0.  1.
         12    1    3    3    0    0 -0.12477473555E+01  0.42342158500E+00  0.19480252398E+01  0.23517996592E+01  0.00000000000E+00 0. -1.
</event>
<event>
 7    1  0.2626489E-009  0.4778728E+02  0.7816164E-02  0.1312668E+00
        -11   -1    0    0    0    0  0.00000000000E+00  0.00000000000E+00  0.45593999997E+02  0.45594000000E+02  0.51100000000E-03 0. -1.
         11   -1    0    0    0    0 -0.00000000000E+00 -0.00000000000E+00 -0.45593999997E+02  0.45594000000E+02  0.51100000000E-03 0.  1.
    9900012    2    1    2    0    0 -0.32858582437E+02  0.24773338500E+02 -0.13791953820E+02  0.47787277306E+02  0.20000028547E+02 0.  0.
         12    1    1    2    0    0  0.32858582437E+02 -0.24773338500E+02  0.13791953820E+02  0.43400722694E+02  0.00000000000E+00 0. -1.
         11    1    3    3    0    0 -0.26031027243E+01  0.74543817009E+01 -0.55179641356E+00  0.79150761132E+01  0.51100000000E-03 0. -1.
        -11    1    3    3    0    0 -0.89879918813E+01  0.57634952311E+01 -0.11367912256E+02  0.15595874604E+02  0.51100000000E-03 0.  1.
        -12    1    3    3    0    0 -0.21267487832E+02  0.11555461568E+02 -0.18722451503E+01  0.24276326588E+02  0.00000000000E+00 0.  1.
</event>
<event>
 7    1  0.2328615E-009  0.4778728E+02  0.7816164E-02  0.1312668E+00
        -11   -1    0    0    0    0  0.00000000000E+00  0.00000000000E+00  0.45593999997E+02  0.45594000000E+02  0.51100000000E-03 0.  1.
         11   -1    0    0    0    0 -0.00000000000E+00 -0.00000000000E+00 -0.45593999997E+02  0.45594000000E+02  0.51100000000E-03 0. -1.
    9900012    2    1    2    0    0 -0.26423533728E+02 -0.33119378849E+02  0.94088346309E+01  0.47787279279E+02  0.20000037544E+02 0.  0.
         12    1    1    2    0    0  0.26423533728E+02  0.33119378849E+02 -0.94088346309E+01  0.43400720721E+02  0.00000000000E+00 0. -1.
         11    1    3    3    0    0 -0.54288092371E+01 -0.93431651353E+01 -0.25205067509E+01  0.11095929840E+02  0.51100000000E-03 0. -1.
        -11    1    3    3    0    0 -0.16154793992E+02 -0.23537205414E+02  0.13524951804E+02  0.31589582605E+02  0.51100000000E-03 0.  1.
         12    1    3    3    0    0 -0.48399304987E+01 -0.23900829966E+00 -0.15956104223E+01  0.51017668331E+01  0.00000000000E+00 0. -1.
</event>
<event>
 7    1  0.2328615E-009  0.4778727E+02  0.7816164E-02  0.1312668E+00
        -11   -1    0    0    0    0  0.00000000000E+00  0.00000000000E+00  0.45593999997E+02  0.45594000000E+02  0.51100000000E-03 0.  1.
         11   -1    0    0    0    0 -0.00000000000E+00 -0.00000000000E+00 -0.45593999997E+02  0.45594000000E+02  0.51100000000E-03 0. -1.
    9900012    2    1    2    0    0 -0.21277728587E+02 -0.30924791965E+02  0.21783911353E+02  0.47787270908E+02  0.19999999376E+02 0.  0.
         12    1    1    2    0    0  0.21277728587E+02  0.30924791965E+02 -0.21783911353E+02  0.43400729092E+02  0.00000000000E+00 0. -1.
         11    1    3    3    0    0 -0.16582117805E+01 -0.54792590267E+01 -0.15653055705E+01  0.59348232982E+01  0.51100000000E-03 0. -1.
        -11    1    3    3    0    0 -0.70228939204E+01 -0.17727124704E+02  0.84023001363E+01  0.20836761675E+02  0.51100000000E-03 0.  1.
        -12    1    3    3    0    0 -0.12596622887E+02 -0.77184082344E+01  0.14946916788E+02  0.21015685934E+02  0.00000000000E+00 0.  1.
</event>
<event>
 7    1  0.2328615E-009  0.4778727E+02  0.7816164E-02  0.1312668E+00
        -11   -1    0    0    0    0  0.00000000000E+00  0.00000000000E+00  0.45593999997E+02  0.45594000000E+02  0.51100000000E-03 0. -1.
         11   -1    0    0    0    0 -0.00000000000E+00 -0.00000000000E+00 -0.45593999997E+02  0.45594000000E+02  0.51100000000E-03 0.  1.
    9900012    2    1    2    0    0 -0.10368544263E+02 -0.11681181228E+02 -0.40492797011E+02  0.47787270573E+02  0.19999997849E+02 0.  0.
         12    1    1    2    0    0  0.10368544263E+02  0.11681181228E+02  0.40492797011E+02  0.43400729427E+02  0.00000000000E+00 0. -1.
         11    1    3    3    0    0 -0.76494352620E+01 -0.42673248894E+01 -0.19782060317E+02  0.21634551814E+02  0.51100000000E-03 0. -1.
        -11    1    3    3    0    0 -0.10478504912E+01 -0.42453183831E+01 -0.21935315119E+02  0.22366912359E+02  0.51100000000E-03 0.  1.
         12    1    3    3    0    0 -0.16712585101E+01 -0.31685379552E+01  0.12245784246E+01  0.37858064001E+01  0.00000000000E+00 0. -1.
</event>
<event>
 7    1  0.2328615E-009  0.4778727E+02  0.7816164E-02  0.1312668E+00
        -11   -1    0    0    0    0  0.00000000000E+00  0.00000000000E+00  0.45593999997E+02  0.45594000000E+02  0.51100000000E-03 0.  1.
         11   -1    0    0    0    0 -0.00000000000E+00 -0.00000000000E+00 -0.45593999997E+02  0.45594000000E+02  0.51100000000E-03 0. -1.
    9900012    2    1    2    0    0  0.19586385051E+02  0.37413488022E+02  0.10011362087E+02  0.47787274935E+02  0.20000017738E+02 0.  0.
         12    1    1    2    0    0 -0.19586385051E+02 -0.37413488022E+02 -0.10011362087E+02  0.43400725065E+02  0.00000000000E+00 0. -1.
         11    1    3    3    0    0  0.85807180718E+01  0.49084029432E+01  0.65283470263E+01  0.11846537774E+02  0.51100000000E-03 0. -1.
        -11    1    3    3    0    0  0.86159712769E+01  0.12551915464E+02 -0.13116765412E+01  0.15280904374E+02  0.51100000000E-03 0.  1.
        -12    1    3    3    0    0  0.23896957023E+01  0.19953169615E+02  0.47946916016E+01  0.20659832787E+02  0.00000000000E+00 0.  1.
</event>
<event>
 7    1  0.2328615E-009  0.4778728E+02  0.7816164E-02  0.1312668E+00
        -11   -1    0    0    0    0  0.00000000000E+00  0.00000000000E+00  0.45593999997E+02  0.45594000000E+02  0.51100000000E-03 0.  1.
         11   -1    0    0    0    0 -0.00000000000E+00 -0.00000000000E+00 -0.45593999997E+02  0.45594000000E+02  0.51100000000E-03 0. -1.
    9900012    2    1    2    0    0  0.23367968818E+01  0.42067413913E+02 -0.10416087155E+02  0.47787276451E+02  0.20000024651E+02 0.  0.
         12    1    1    2    0    0 -0.23367968818E+01 -0.42067413913E+02  0.10416087155E+02  0.43400723549E+02  0.00000000000E+00 0. -1.
         11    1    3    3    0    0  0.41184934078E+01  0.76433503967E+01  0.18987263849E+01  0.88875168288E+01  0.51100000000E-03 0. -1.
        -11    1    3    3    0    0  0.43272987415E+01  0.50671069722E+01 -0.54124894803E+00  0.66853599867E+01  0.51100000000E-03 0.  1.
        -12    1    3    3    0    0 -0.61089952675E+01  0.29356956544E+02 -0.11773564592E+02  0.32214399636E+02  0.00000000000E+00 0.  1.
</event>
<event>
 7    1  0.2328615E-009  0.4778727E+02  0.7816164E-02  0.1312668E+00
        -11   -1    0    0    0    0  0.00000000000E+00  0.00000000000E+00  0.45593999997E+02  0.45594000000E+02  0.51100000000E-03 0.  1.
         11   -1    0    0    0    0 -0.00000000000E+00 -0.00000000000E+00 -0.45593999997E+02  0.45594000000E+02  0.51100000000E-03 0. -1.
    9900012    2    1    2    0    0 -0.32603331817E+02 -0.28194437933E+02  0.50714622962E+01  0.47787270677E+02  0.19999998324E+02 0.  0.
         12    1    1    2    0    0  0.32603331817E+02  0.28194437933E+02 -0.50714622962E+01  0.43400729323E+02  0.00000000000E+00 0. -1.
         11    1    3    3    0    0 -0.71110195755E+01 -0.93654138316E+01  0.42043825583E+01  0.12488170747E+02  0.51100000000E-03 0. -1.
        -11    1    3    3    0    0 -0.20489967159E+02 -0.10632923288E+02  0.67337703221E+01  0.24046652050E+02  0.51100000000E-03 0.  1.
        -12    1    3    3    0    0 -0.50023450832E+01 -0.81961008140E+01 -0.58666905842E+01  0.11252447880E+02  0.00000000000E+00 0.  1.
</event>
<event>
 7    1  0.2328615E-009  0.4778727E+02  0.7816164E-02  0.1312668E+00
        -11   -1    0    0    0    0  0.00000000000E+00  0.00000000000E+00  0.45593999997E+02  0.45594000000E+02  0.51100000000E-03 0.  1.
         11   -1    0    0    0    0 -0.00000000000E+00 -0.00000000000E+00 -0.45593999997E+02  0.45594000000E+02  0.51100000000E-03 0. -1.
    9900012    2    1    2    0    0 -0.42568865151E+01 -0.20879654241E+02  0.37809288607E+02  0.47787270179E+02  0.19999996053E+02 0.  0.
         12    1    1    2    0    0  0.42568865151E+01  0.20879654241E+02 -0.37809288607E+02  0.43400729821E+02  0.00000000000E+00 0. -1.
         11    1    3    3    0    0  0.28137882814E+01 -0.15431600646E+01  0.13501386149E+02  0.13877542134E+02  0.51100000000E-03 0. -1.
        -11    1    3    3    0    0 -0.27989833527E+01 -0.83590987771E+00  0.91775013880E+01  0.96311777639E+01  0.51100000000E-03 0.  1.
         12    1    3    3    0    0 -0.42716914439E+01 -0.18500584299E+02  0.15130401071E+02  0.24278550281E+02  0.00000000000E+00 0. -1.
</event>
<event>
 7    1  0.2328615E-009  0.4778727E+02  0.7816164E-02  0.1312668E+00
        -11   -1    0    0    0    0  0.00000000000E+00  0.00000000000E+00  0.45593999997E+02  0.45594000000E+02  0.51100000000E-03 0.  1.
         11   -1    0    0    0    0 -0.00000000000E+00 -0.00000000000E+00 -0.45593999997E+02  0.45594000000E+02  0.51100000000E-03 0. -1.
    9900012    2    1    2    0    0  0.24200031244E+02 -0.12834171910E+02  0.33664014511E+02  0.47787270124E+02  0.19999995803E+02 0.  0.
         12    1    1    2    0    0 -0.24200031244E+02  0.12834171910E+02 -0.33664014511E+02  0.43400729876E+02  0.00000000000E+00 0. -1.
         11    1    3    3    0    0  0.23630008477E+01  0.16308924612E+01 -0.31521978701E+00  0.28884160022E+01  0.51100000000E-03 0. -1.
        -11    1    3    3    0    0  0.13484791719E+02 -0.13255582909E+01  0.18622141928E+02  0.23029999625E+02  0.51100000000E-03 0.  1.
        -12    1    3    3    0    0  0.83522386771E+01 -0.13139506080E+02  0.15357092370E+02  0.21868854497E+02  0.00000000000E+00 0.  1.
</event>
<event>
 7    1  0.2328615E-009  0.4778727E+02  0.7816164E-02  0.1312668E+00
        -11   -1    0    0    0    0  0.00000000000E+00  0.00000000000E+00  0.45593999997E+02  0.45594000000E+02  0.51100000000E-03 0. -1.
         11   -1    0    0    0    0 -0.00000000000E+00 -0.00000000000E+00 -0.45593999997E+02  0.45594000000E+02  0.51100000000E-03 0.  1.
    9900012    2    1    2    0    0  0.28083521328E+02  0.26159569502E+02 -0.20263671247E+02  0.47787267067E+02  0.19999981866E+02 0.  0.
         12    1    1    2    0    0 -0.28083521328E+02 -0.26159569502E+02  0.20263671247E+02  0.43400732933E+02  0.00000000000E+00 0. -1.
         11    1    3    3    0    0 -0.16953892789E+01 -0.54332719452E+00  0.97996076960E+00  0.20322088029E+01  0.51100000000E-03 0. -1.
        -11    1    3    3    0    0  0.89737212053E+00 -0.31809226810E+00 -0.28335768892E+00  0.99335353964E+00  0.51100000000E-03 0.  1.
         12    1    3    3    0    0  0.28881538486E+02  0.27020988965E+02 -0.20960274328E+02  0.44761704725E+02  0.00000000000E+00 0. -1.
</event>
<event>
 7    1  0.2328615E-009  0.4778727E+02  0.7816164E-02  0.1312668E+00
        -11   -1    0    0    0    0  0.00000000000E+00  0.00000000000E+00  0.45593999997E+02  0.45594000000E+02  0.51100000000E-03 0. -1.
         11   -1    0    0    0    0 -0.00000000000E+00 -0.00000000000E+00 -0.45593999997E+02  0.45594000000E+02  0.51100000000E-03 0.  1.
    9900012    2    1    2    0    0  0.31558146164E+02  0.46742034535E+01 -0.29425472538E+02  0.47787271880E+02  0.20000003811E+02 0.  0.
         12    1    1    2    0    0 -0.31558146164E+02 -0.46742034535E+01  0.29425472538E+02  0.43400728120E+02  0.00000000000E+00 0. -1.
         11    1    3    3    0    0  0.91134321341E+01 -0.15517672183E+01 -0.58942621731E+01  0.10963801968E+02  0.51100000000E-03 0. -1.
        -11    1    3    3    0    0 -0.24755432814E+01 -0.19146737719E+00 -0.30607789283E+01  0.39412361264E+01  0.51100000000E-03 0.  1.
        -12    1    3    3    0    0  0.24920257311E+02  0.64174380490E+01 -0.20470431436E+02  0.32882233786E+02  0.00000000000E+00 0.  1.
</event>
<event>
 7    1  0.2328615E-009  0.4778727E+02  0.7816164E-02  0.1312668E+00
        -11   -1    0    0    0    0  0.00000000000E+00  0.00000000000E+00  0.45593999997E+02  0.45594000000E+02  0.51100000000E-03 0. -1.
         11   -1    0    0    0    0 -0.00000000000E+00 -0.00000000000E+00 -0.45593999997E+02  0.45594000000E+02  0.51100000000E-03 0.  1.
    9900012    2    1    2    0    0 -0.89020985508E+01 -0.34590013046E+02 -0.24655768267E+02  0.47787271089E+02  0.20000000204E+02 0.  0.
         12    1    1    2    0    0  0.89020985508E+01  0.34590013046E+02  0.24655768267E+02  0.43400728911E+02  0.00000000000E+00 0. -1.
         11    1    3    3    0    0 -0.13663646100E+01 -0.79763379993E+01 -0.84154619715E+01  0.11675141138E+02  0.51100000000E-03 0. -1.
        -11    1    3    3    0    0 -0.11885406568E+02 -0.14884616845E+02 -0.60747901379E+01  0.19992943340E+02  0.51100000000E-03 0.  1.
        -12    1    3    3    0    0  0.43496726275E+01 -0.11729058202E+02 -0.10165516158E+02  0.16119186612E+02  0.00000000000E+00 0.  1.
</event>
<event>
 7    1  0.2328615E-009  0.4778728E+02  0.7816164E-02  0.1312668E+00
        -11   -1    0    0    0    0  0.00000000000E+00  0.00000000000E+00  0.45593999997E+02  0.45594000000E+02  0.51100000000E-03 0.  1.
         11   -1    0    0    0    0 -0.00000000000E+00 -0.00000000000E+00 -0.45593999997E+02  0.45594000000E+02  0.51100000000E-03 0. -1.
    9900012    2    1    2    0    0  0.13434690148E+01 -0.18016640422E+02  0.39461608618E+02  0.47787276552E+02  0.20000025113E+02 0.  0.
         12    1    1    2    0    0 -0.13434690148E+01  0.18016640422E+02 -0.39461608618E+02  0.43400723448E+02  0.00000000000E+00 0. -1.
         11    1    3    3    0    0  0.43293163683E+01 -0.54626380771E+01  0.15657519255E+02  0.17138882824E+02  0.51100000000E-03 0. -1.
        -11    1    3    3    0    0 -0.48619953716E+01 -0.10075725336E+02  0.24943758489E+02  0.27337708899E+02  0.51100000000E-03 0.  1.
         12    1    3    3    0    0  0.18761480182E+01 -0.24782770086E+01 -0.11396691266E+01  0.33106848287E+01  0.00000000000E+00 0. -1.
</event>
<event>
 7    1  0.2328615E-009  0.4778727E+02  0.7816164E-02  0.1312668E+00
        -11   -1    0    0    0    0  0.00000000000E+00  0.00000000000E+00  0.45593999997E+02  0.45594000000E+02  0.51100000000E-03 0.  1.
         11   -1    0    0    0    0 -0.00000000000E+00 -0.00000000000E+00 -0.45593999997E+02  0.45594000000E+02  0.51100000000E-03 0. -1.
    9900012    2    1    2    0    0  0.68019627706E+01  0.95699020772E+01  0.41782454151E+02  0.47787271916E+02  0.20000003975E+02 0.  0.
         12    1    1    2    0    0 -0.68019627706E+01 -0.95699020772E+01 -0.41782454151E+02  0.43400728084E+02  0.00000000000E+00 0. -1.
         11    1    3    3    0    0  0.19017781679E+01  0.64154349457E+01  0.15463262667E+02  0.16848948285E+02  0.51100000000E-03 0.  1.
        -11    1    3    3    0    0  0.68220923283E+01  0.56792093343E+01  0.26308110510E+02  0.27765284822E+02  0.51100000000E-03 0. -1.
         12    1    3    3    0    0 -0.19219077255E+01 -0.25247422028E+01  0.11080974527E-01  0.31730388091E+01  0.00000000000E+00 0. -1.
</event>
<event>
 7    1  0.2328615E-009  0.4778727E+02  0.7816164E-02  0.1312668E+00
        -11   -1    0    0    0    0  0.00000000000E+00  0.00000000000E+00  0.45593999997E+02  0.45594000000E+02  0.51100000000E-03 0.  1.
         11   -1    0    0    0    0 -0.00000000000E+00 -0.00000000000E+00 -0.45593999997E+02  0.45594000000E+02  0.51100000000E-03 0. -1.
    9900012    2    1    2    0    0  0.14730225882E+02  0.13811954245E+02  0.38417099325E+02  0.47787272412E+02  0.20000006237E+02 0.  0.
         12    1    1    2    0    0 -0.14730225882E+02 -0.13811954245E+02 -0.38417099325E+02  0.43400727588E+02  0.00000000000E+00 0. -1.
         11    1    3    3    0    0  0.88595689848E+01  0.24320704922E+01  0.20683713984E+02  0.22632343094E+02  0.51100000000E-03 0. -1.
        -11    1    3    3    0    0  0.96752607293E+01  0.94821512457E+01  0.14213702503E+02  0.19635457762E+02  0.51100000000E-03 0.  1.
         12    1    3    3    0    0 -0.38046038317E+01  0.18977325069E+01  0.35196828380E+01  0.55194715566E+01  0.00000000000E+00 0. -1.
</event>
<event>
 7    1  0.2328615E-009  0.4778727E+02  0.7816164E-02  0.1312668E+00
        -11   -1    0    0    0    0  0.00000000000E+00  0.00000000000E+00  0.45593999997E+02  0.45594000000E+02  0.51100000000E-03 0. -1.
         11   -1    0    0    0    0 -0.00000000000E+00 -0.00000000000E+00 -0.45593999997E+02  0.45594000000E+02  0.51100000000E-03 0.  1.
    9900012    2    1    2    0    0 -0.32921151075E+02 -0.22064532397E+01 -0.28194905730E+02  0.47787270362E+02  0.19999996887E+02 0.  0.
         12    1    1    2    0    0  0.32921151075E+02  0.22064532397E+01  0.28194905730E+02  0.43400729638E+02  0.00000000000E+00 0. -1.
         11    1    3    3    0    0 -0.34069461590E+00  0.49329065271E+01 -0.33098591544E+01  0.59501939052E+01  0.51100000000E-03 0. -1.
        -11    1    3    3    0    0 -0.30029264209E+01 -0.11918045148E+01 -0.40101238234E+01  0.51496658563E+01  0.51100000000E-03 0.  1.
         12    1    3    3    0    0 -0.29577530038E+02 -0.59475552520E+01 -0.20874922752E+02  0.36687410600E+02  0.00000000000E+00 0. -1.
</event>
<event>
 7    1  0.2328615E-009  0.4778727E+02  0.7816164E-02  0.1312668E+00
        -11   -1    0    0    0    0  0.00000000000E+00  0.00000000000E+00  0.45593999997E+02  0.45594000000E+02  0.51100000000E-03 0.  1.
         11   -1    0    0    0    0 -0.00000000000E+00 -0.00000000000E+00 -0.45593999997E+02  0.45594000000E+02  0.51100000000E-03 0. -1.
    9900012    2    1    2    0    0  0.31980573670E+02  0.29330547123E+02  0.76495890393E+00  0.47787271332E+02  0.20000001311E+02 0.  0.
         12    1    1    2    0    0 -0.31980573670E+02 -0.29330547123E+02 -0.76495890393E+00  0.43400728668E+02  0.00000000000E+00 0. -1.
         11    1    3    3    0    0  0.89205236779E+01  0.10568501524E+02 -0.56144068087E+01  0.14926169342E+02  0.51100000000E-03 0. -1.
        -11    1    3    3    0    0  0.15553389601E+02  0.18411395180E+02  0.20506360024E+01  0.24188685553E+02  0.51100000000E-03 0.  1.
         12    1    3    3    0    0  0.75066603915E+01  0.35065041953E+00  0.43287297102E+01  0.86724164369E+01  0.00000000000E+00 0. -1.
</event>
<event>
 7    1  0.2328615E-009  0.4778727E+02  0.7816164E-02  0.1312668E+00
        -11   -1    0    0    0    0  0.00000000000E+00  0.00000000000E+00  0.45593999997E+02  0.45594000000E+02  0.51100000000E-03 0. -1.
         11   -1    0    0    0    0 -0.00000000000E+00 -0.00000000000E+00 -0.45593999997E+02  0.45594000000E+02  0.51100000000E-03 0.  1.
    9900012    2    1    2    0    0 -0.40046572666E+02 -0.15584691839E+02  0.60837991294E+01  0.47787271736E+02  0.20000003152E+02 0.  0.
         12    1    1    2    0    0  0.40046572666E+02  0.15584691839E+02 -0.60837991294E+01  0.43400728264E+02  0.00000000000E+00 0. -1.
         11    1    3    3    0    0 -0.57211773292E+01 -0.40764873345E+01 -0.34056412643E+01  0.78069207567E+01  0.51100000000E-03 0. -1.
        -11    1    3    3    0    0 -0.24611838715E+02 -0.14633889752E+02  0.70033731930E+01  0.29477797926E+02  0.51100000000E-03 0.  1.
         12    1    3    3    0    0 -0.97135566220E+01  0.31256852471E+01  0.24860672007E+01  0.10502553053E+02  0.00000000000E+00 0. -1.
</event>
<event>
 7    1  0.2328615E-009  0.4778727E+02  0.7816164E-02  0.1312668E+00
        -11   -1    0    0    0    0  0.00000000000E+00  0.00000000000E+00  0.45593999997E+02  0.45594000000E+02  0.51100000000E-03 0. -1.
         11   -1    0    0    0    0 -0.00000000000E+00 -0.00000000000E+00 -0.45593999997E+02  0.45594000000E+02  0.51100000000E-03 0.  1.
    9900012    2    1    2    0    0  0.26659621593E+02  0.16253995203E+02 -0.30144584923E+02  0.47787265171E+02  0.19999973220E+02 0.  0.
         12    1    1    2    0    0 -0.26659621593E+02 -0.16253995203E+02  0.30144584923E+02  0.43400734829E+02  0.00000000000E+00 0. -1.
         11    1    3    3    0    0  0.93162622317E+01  0.58477150465E+01 -0.46649412216E+01  0.11947811101E+02  0.51100000000E-03 0. -1.
        -11    1    3    3    0    0  0.24676633124E+01  0.34064099495E+01  0.13116493931E+01  0.44060657461E+01  0.51100000000E-03 0.  1.
        -12    1    3    3    0    0  0.14875696048E+02  0.69998702073E+01 -0.26791293095E+02  0.31433388324E+02  0.00000000000E+00 0.  1.
</event>
<event>
 7    1  0.2328615E-009  0.4778727E+02  0.7816164E-02  0.1312668E+00
        -11   -1    0    0    0    0  0.00000000000E+00  0.00000000000E+00  0.45593999997E+02  0.45594000000E+02  0.51100000000E-03 0.  1.
         11   -1    0    0    0    0 -0.00000000000E+00 -0.00000000000E+00 -0.45593999997E+02  0.45594000000E+02  0.51100000000E-03 0. -1.
    9900012    2    1    2    0    0  0.12355745684E+02 -0.11745357439E+02  0.39912475622E+02  0.47787267483E+02  0.19999983760E+02 0.  0.
         12    1    1    2    0    0 -0.12355745684E+02  0.11745357439E+02 -0.39912475622E+02  0.43400732517E+02  0.00000000000E+00 0. -1.
         11    1    3    3    0    0  0.58060977855E+00  0.24280023304E+01  0.60426896010E+01  0.65380731799E+01  0.51100000000E-03 0. -1.
        -11    1    3    3    0    0  0.74960597734E+01 -0.59589481533E+01  0.29486028448E+02  0.31002029758E+02  0.51100000000E-03 0.  1.
         12    1    3    3    0    0  0.42790761324E+01 -0.82144116160E+01  0.43837575723E+01  0.10247164544E+02  0.00000000000E+00 0. -1.
</event>
<event>
 7    1  0.2328615E-009  0.4778727E+02  0.7816164E-02  0.1312668E+00
        -11   -1    0    0    0    0  0.00000000000E+00  0.00000000000E+00  0.45593999997E+02  0.45594000000E+02  0.51100000000E-03 0.  1.
         11   -1    0    0    0    0 -0.00000000000E+00 -0.00000000000E+00 -0.45593999997E+02  0.45594000000E+02  0.51100000000E-03 0. -1.
    9900012    2    1    2    0    0 -0.16690321095E+01 -0.24645861658E+02  0.35685000937E+02  0.47787268935E+02  0.19999990384E+02 0.  0.
         12    1    1    2    0    0  0.16690321095E+01  0.24645861658E+02 -0.35685000937E+02  0.43400731065E+02  0.00000000000E+00 0. -1.
         11    1    3    3    0    0  0.24136451270E+01 -0.14948703357E+02  0.97160782701E+01  0.17991431073E+02  0.51100000000E-03 0. -1.
        -11    1    3    3    0    0  0.17447372398E+01  0.95486946642E+00  0.15385196193E+01  0.25145430229E+01  0.51100000000E-03 0.  1.
        -12    1    3    3    0    0 -0.58274144763E+01 -0.10652027768E+02  0.24430403048E+02  0.27281294840E+02  0.00000000000E+00 0.  1.
</event>
<event>
 7    1  0.2328615E-009  0.4778727E+02  0.7816164E-02  0.1312668E+00
        -11   -1    0    0    0    0  0.00000000000E+00  0.00000000000E+00  0.45593999997E+02  0.45594000000E+02  0.51100000000E-03 0.  1.
         11   -1    0    0    0    0 -0.00000000000E+00 -0.00000000000E+00 -0.45593999997E+02  0.45594000000E+02  0.51100000000E-03 0. -1.
    9900012    2    1    2    0    0 -0.28333616273E+02 -0.11325973191E+02  0.30863440696E+02  0.47787268999E+02  0.19999990672E+02 0.  0.
         12    1    1    2    0    0  0.28333616273E+02  0.11325973191E+02 -0.30863440696E+02  0.43400731001E+02  0.00000000000E+00 0. -1.
         11    1    3    3    0    0 -0.20112670735E+02 -0.13552557815E+02  0.23828083893E+02  0.33999543081E+02  0.51100000000E-03 0. -1.
        -11    1    3    3    0    0 -0.55777680153E+01 -0.27514070730E+01  0.38182712305E+01  0.72980087945E+01  0.51100000000E-03 0.  1.
        -12    1    3    3    0    0 -0.26431775232E+01  0.49779916973E+01  0.32170855721E+01  0.64897171230E+01  0.00000000000E+00 0.  1.
</event>
<event>
 7    1  0.2328615E-009  0.4778727E+02  0.7816164E-02  0.1312668E+00
        -11   -1    0    0    0    0  0.00000000000E+00  0.00000000000E+00  0.45593999997E+02  0.45594000000E+02  0.51100000000E-03 0.  1.
         11   -1    0    0    0    0 -0.00000000000E+00 -0.00000000000E+00 -0.45593999997E+02  0.45594000000E+02  0.51100000000E-03 0. -1.
    9900012    2    1    2    0    0 -0.14348507572E+02  0.39170553833E+02 -0.11975443821E+02  0.47787271759E+02  0.20000003258E+02 0.  0.
         12    1    1    2    0    0  0.14348507572E+02 -0.39170553833E+02  0.11975443821E+02  0.43400728241E+02  0.00000000000E+00 0. -1.
         11    1    3    3    0    0 -0.78001219794E+01  0.12192904885E+02 -0.10704084206E+02  0.18002395712E+02  0.51100000000E-03 0. -1.
        -11    1    3    3    0    0 -0.60505217230E+01  0.20865759641E+02 -0.54075559689E+01  0.22388175458E+02  0.51100000000E-03 0.  1.
         12    1    3    3    0    0 -0.49786386998E+00  0.61118893069E+01  0.41361963534E+01  0.73967005892E+01  0.00000000000E+00 0. -1.
</event>
<event>
 7    1  0.2328615E-009  0.4778727E+02  0.7816164E-02  0.1312668E+00
        -11   -1    0    0    0    0  0.00000000000E+00  0.00000000000E+00  0.45593999997E+02  0.45594000000E+02  0.51100000000E-03 0.  1.
         11   -1    0    0    0    0 -0.00000000000E+00 -0.00000000000E+00 -0.45593999997E+02  0.45594000000E+02  0.51100000000E-03 0. -1.
    9900012    2    1    2    0    0 -0.34329066911E+01 -0.16745497333E+02  0.39892690426E+02  0.47787270989E+02  0.19999999746E+02 0.  0.
         12    1    1    2    0    0  0.34329066911E+01  0.16745497333E+02 -0.39892690426E+02  0.43400729011E+02  0.00000000000E+00 0. -1.
         11    1    3    3    0    0 -0.19184248442E-01  0.32926794513E+01  0.10765187509E+02  0.11257502759E+02  0.51100000000E-03 0. -1.
        -11    1    3    3    0    0 -0.18855150172E+01 -0.60222992733E+01  0.16260376780E+02  0.17441992681E+02  0.51100000000E-03 0.  1.
         12    1    3    3    0    0 -0.15282074255E+01 -0.14015877511E+02  0.12867126137E+02  0.19087775548E+02  0.00000000000E+00 0. -1.
</event>
<event>
 7    1  0.2328615E-009  0.4778726E+02  0.7816164E-02  0.1312668E+00
        -11   -1    0    0    0    0  0.00000000000E+00  0.00000000000E+00  0.45593999997E+02  0.45594000000E+02  0.51100000000E-03 0.  1.
         11   -1    0    0    0    0 -0.00000000000E+00 -0.00000000000E+00 -0.45593999997E+02  0.45594000000E+02  0.51100000000E-03 0. -1.
    9900012    2    1    2    0    0  0.11599052703E+02 -0.88420572216E+00  0.41812730532E+02  0.47787259478E+02  0.19999947262E+02 0.  0.
         12    1    1    2    0    0 -0.11599052703E+02  0.88420572216E+00 -0.41812730532E+02  0.43400740522E+02  0.00000000000E+00 0. -1.
         11    1    3    3    0    0  0.44242392393E+01  0.20689474721E+01  0.13299807248E+02  0.14168250054E+02  0.51100000000E-03 0. -1.
        -11    1    3    3    0    0  0.49738809826E+01 -0.54869578502E+01  0.29258284700E+02  0.30181010956E+02  0.51100000000E-03 0.  1.
         12    1    3    3    0    0  0.22009324807E+01  0.25338046559E+01 -0.74536141690E+00  0.34379984672E+01  0.00000000000E+00 0. -1.
</event>
<event>
 7    1  0.2328615E-009  0.4778727E+02  0.7816164E-02  0.1312668E+00
        -11   -1    0    0    0    0  0.00000000000E+00  0.00000000000E+00  0.45593999997E+02  0.45594000000E+02  0.51100000000E-03 0. -1.
         11   -1    0    0    0    0 -0.00000000000E+00 -0.00000000000E+00 -0.45593999997E+02  0.45594000000E+02  0.51100000000E-03 0.  1.
    9900012    2    1    2    0    0  0.16908988761E+02  0.36560851416E+02  0.16155919107E+02  0.47787268678E+02  0.19999989209E+02 0.  0.
         12    1    1    2    0    0 -0.16908988761E+02 -0.36560851416E+02 -0.16155919107E+02  0.43400731322E+02  0.00000000000E+00 0. -1.
         11    1    3    3    0    0  0.62050376708E+00  0.87596779971E+01  0.26944207355E+01  0.91856892447E+01  0.51100000000E-03 0. -1.
        -11    1    3    3    0    0  0.14976140080E+01  0.18799317698E+02  0.73256187447E+01  0.20231704918E+02  0.51100000000E-03 0.  1.
         12    1    3    3    0    0  0.14790870985E+02  0.90018557205E+01  0.61358796264E+01  0.18369874515E+02  0.00000000000E+00 0. -1.
</event>
<event>
 7    1  0.2328615E-009  0.4778727E+02  0.7816164E-02  0.1312668E+00
        -11   -1    0    0    0    0  0.00000000000E+00  0.00000000000E+00  0.45593999997E+02  0.45594000000E+02  0.51100000000E-03 0. -1.
         11   -1    0    0    0    0 -0.00000000000E+00 -0.00000000000E+00 -0.45593999997E+02  0.45594000000E+02  0.51100000000E-03 0.  1.
    9900012    2    1    2    0    0 -0.21364180091E+02 -0.27448453643E+02 -0.25957222795E+02  0.47787271739E+02  0.20000003169E+02 0.  0.
         12    1    1    2    0    0  0.21364180091E+02  0.27448453643E+02  0.25957222795E+02  0.43400728261E+02  0.00000000000E+00 0. -1.
         11    1    3    3    0    0 -0.10356470497E+02 -0.21637779227E+02 -0.15797729743E+02  0.28723130684E+02  0.51100000000E-03 0. -1.
        -11    1    3    3    0    0  0.46875590512E+00 -0.45512426643E+01 -0.32015424828E+01  0.55842113515E+01  0.51100000000E-03 0.  1.
        -12    1    3    3    0    0 -0.11476465499E+02 -0.12594317512E+01 -0.69579505699E+01  0.13479929704E+02  0.00000000000E+00 0.  1.
</event>
<event>
 7    1  0.2328615E-009  0.4778727E+02  0.7816164E-02  0.1312668E+00
        -11   -1    0    0    0    0  0.00000000000E+00  0.00000000000E+00  0.45593999997E+02  0.45594000000E+02  0.51100000000E-03 0.  1.
         11   -1    0    0    0    0 -0.00000000000E+00 -0.00000000000E+00 -0.45593999997E+02  0.45594000000E+02  0.51100000000E-03 0. -1.
    9900012    2    1    2    0    0  0.41947289497E+02 -0.59769683779E+01 -0.93980901010E+01  0.47787270229E+02  0.19999996281E+02 0.  0.
         12    1    1    2    0    0 -0.41947289497E+02  0.59769683779E+01  0.93980901010E+01  0.43400729771E+02  0.00000000000E+00 0. -1.
         11    1    3    3    0    0  0.11644424068E+02 -0.20447185718E+01 -0.37315809799E+01  0.12397507120E+02  0.51100000000E-03 0. -1.
        -11    1    3    3    0    0  0.23793434106E+02 -0.88232105224E+01  0.16076988663E+00  0.25377202322E+02  0.51100000000E-03 0.  1.
         12    1    3    3    0    0  0.65094313230E+01  0.48909607163E+01 -0.58272790077E+01  0.10012560787E+02  0.00000000000E+00 0. -1.
</event>
<event>
 7    1  0.2328615E-009  0.4778727E+02  0.7816164E-02  0.1312668E+00
        -11   -1    0    0    0    0  0.00000000000E+00  0.00000000000E+00  0.45593999997E+02  0.45594000000E+02  0.51100000000E-03 0.  1.
         11   -1    0    0    0    0 -0.00000000000E+00 -0.00000000000E+00 -0.45593999997E+02  0.45594000000E+02  0.51100000000E-03 0. -1.
    9900012    2    1    2    0    0  0.20165677125E+02  0.94560770867E+01  0.37249850431E+02  0.47787270917E+02  0.19999999419E+02 0.  0.
         12    1    1    2    0    0 -0.20165677125E+02 -0.94560770867E+01 -0.37249850431E+02  0.43400729083E+02  0.00000000000E+00 0. -1.
         11    1    3    3    0    0  0.67003627141E+01 -0.24634903463E+00  0.23320804119E+02  0.24265519845E+02  0.51100000000E-03 0. -1.
        -11    1    3    3    0    0  0.29099358064E+00 -0.11171179112E+01 -0.43069652664E+00  0.12321239591E+01  0.51100000000E-03 0.  1.
        -12    1    3    3    0    0  0.13174320831E+02  0.10819544033E+02  0.14359742839E+02  0.22289627113E+02  0.00000000000E+00 0.  1.
</event>
<event>
 7    1  0.2328615E-009  0.4778727E+02  0.7816164E-02  0.1312668E+00
        -11   -1    0    0    0    0  0.00000000000E+00  0.00000000000E+00  0.45593999997E+02  0.45594000000E+02  0.51100000000E-03 0.  1.
         11   -1    0    0    0    0 -0.00000000000E+00 -0.00000000000E+00 -0.45593999997E+02  0.45594000000E+02  0.51100000000E-03 0. -1.
    9900012    2    1    2    0    0  0.19781749378E+02 -0.25767715808E+02  0.28780729122E+02  0.47787272412E+02  0.20000006235E+02 0.  0.
         12    1    1    2    0    0 -0.19781749378E+02  0.25767715808E+02 -0.28780729122E+02  0.43400727588E+02  0.00000000000E+00 0. -1.
         11    1    3    3    0    0  0.27588106341E+01  0.13053243296E+00  0.72299950598E+01  0.77395674076E+01  0.51100000000E-03 0.  1.
        -11    1    3    3    0    0 -0.20580048844E+01 -0.51329071416E+01  0.29850646972E+01  0.62843242546E+01  0.51100000000E-03 0. -1.
        -12    1    3    3    0    0  0.19080943628E+02 -0.20765341099E+02  0.18565669365E+02  0.33763380750E+02  0.00000000000E+00 0.  1.
</event>
<event>
 7    1  0.2328615E-009  0.4778727E+02  0.7816164E-02  0.1312668E+00
        -11   -1    0    0    0    0  0.00000000000E+00  0.00000000000E+00  0.45593999997E+02  0.45594000000E+02  0.51100000000E-03 0.  1.
         11   -1    0    0    0    0 -0.00000000000E+00 -0.00000000000E+00 -0.45593999997E+02  0.45594000000E+02  0.51100000000E-03 0. -1.
    9900012    2    1    2    0    0  0.32387419368E+02  0.59972028520E+01  0.28261486263E+02  0.47787274416E+02  0.20000015373E+02 0.  0.
         12    1    1    2    0    0 -0.32387419368E+02 -0.59972028520E+01 -0.28261486263E+02  0.43400725584E+02  0.00000000000E+00 0. -1.
         11    1    3    3    0    0  0.38115092420E+01 -0.34544063268E+01  0.71145155819E+01  0.87793426860E+01  0.51100000000E-03 0.  1.
        -11    1    3    3    0    0  0.19994926401E+02  0.87300858909E+00  0.93703617337E+01  0.22098934478E+02  0.51100000000E-03 0. -1.
        -12    1    3    3    0    0  0.85809837254E+01  0.85786005897E+01  0.11776608948E+02  0.16908997252E+02  0.00000000000E+00 0.  1.
</event>
<event>
 7    1  0.2328615E-009  0.4778727E+02  0.7816164E-02  0.1312668E+00
        -11   -1    0    0    0    0  0.00000000000E+00  0.00000000000E+00  0.45593999997E+02  0.45594000000E+02  0.51100000000E-03 0.  1.
         11   -1    0    0    0    0 -0.00000000000E+00 -0.00000000000E+00 -0.45593999997E+02  0.45594000000E+02  0.51100000000E-03 0. -1.
    9900012    2    1    2    0    0  0.21398569502E+02  0.36435167761E+02  0.99097410308E+01  0.47787271967E+02  0.20000004207E+02 0.  0.
         12    1    1    2    0    0 -0.21398569502E+02 -0.36435167761E+02 -0.99097410308E+01  0.43400728033E+02  0.00000000000E+00 0. -1.
         11    1    3    3    0    0  0.12940555306E+02  0.17594050928E+02  0.10401186122E+02  0.24190768336E+02  0.51100000000E-03 0.  1.
        -11    1    3    3    0    0  0.29522530759E+01  0.26663861562E+01 -0.45409954881E+01  0.60370567036E+01  0.51100000000E-03 0. -1.
         12    1    3    3    0    0  0.55057611199E+01  0.16174730677E+02  0.40495503969E+01  0.17559446927E+02  0.00000000000E+00 0. -1.
</event>
<event>
 7    1  0.2328615E-009  0.4778727E+02  0.7816164E-02  0.1312668E+00
        -11   -1    0    0    0    0  0.00000000000E+00  0.00000000000E+00  0.45593999997E+02  0.45594000000E+02  0.51100000000E-03 0. -1.
         11   -1    0    0    0    0 -0.00000000000E+00 -0.00000000000E+00 -0.45593999997E+02  0.45594000000E+02  0.51100000000E-03 0.  1.
    9900012    2    1    2    0    0  0.40513943638E+02 -0.66556879112E+01 -0.14069305785E+02  0.47787272173E+02  0.20000005144E+02 0.  0.
         12    1    1    2    0    0 -0.40513943638E+02  0.66556879112E+01  0.14069305785E+02  0.43400727827E+02  0.00000000000E+00 0. -1.
         11    1    3    3    0    0  0.21709947365E+02 -0.40927432244E+01 -0.12332819169E+02  0.25301596602E+02  0.51100000000E-03 0. -1.
        -11    1    3    3    0    0  0.14471403378E+02 -0.11186291107E+01 -0.64849514577E+01  0.15897403640E+02  0.51100000000E-03 0.  1.
         12    1    3    3    0    0  0.43325928954E+01 -0.14443155761E+01  0.47484648420E+01  0.65882719310E+01  0.00000000000E+00 0. -1.
</event>
<event>
 7    1  0.2328615E-009  0.4778725E+02  0.7816164E-02  0.1312668E+00
        -11   -1    0    0    0    0  0.00000000000E+00  0.00000000000E+00  0.45593999997E+02  0.45594000000E+02  0.51100000000E-03 0. -1.
         11   -1    0    0    0    0 -0.00000000000E+00 -0.00000000000E+00 -0.45593999997E+02  0.45594000000E+02  0.51100000000E-03 0.  1.
    9900012    2    1    2    0    0 -0.97583192679E+01 -0.29862804796E+02 -0.29943494627E+02  0.47787253743E+02  0.19999921114E+02 0.  0.
         12    1    1    2    0    0  0.97583192679E+01  0.29862804796E+02  0.29943494627E+02  0.43400746257E+02  0.00000000000E+00 0. -1.
         11    1    3    3    0    0 -0.25809979137E+01 -0.23652236681E+01 -0.11016168921E+01  0.36700672022E+01  0.51100000000E-03 0. -1.
        -11    1    3    3    0    0 -0.76270660004E+01 -0.21120604614E+01 -0.81913919787E+01  0.11389988498E+02  0.51100000000E-03 0.  1.
         12    1    3    3    0    0  0.44974464626E+00 -0.25385520667E+02 -0.20650485756E+02  0.32727198043E+02  0.00000000000E+00 0. -1.
</event>
<event>
 7    1  0.2328615E-009  0.4778728E+02  0.7816164E-02  0.1312668E+00
        -11   -1    0    0    0    0  0.00000000000E+00  0.00000000000E+00  0.45593999997E+02  0.45594000000E+02  0.51100000000E-03 0.  1.
         11   -1    0    0    0    0 -0.00000000000E+00 -0.00000000000E+00 -0.45593999997E+02  0.45594000000E+02  0.51100000000E-03 0. -1.
    9900012    2    1    2    0    0 -0.18027394636E+02 -0.64292125304E-01  0.39479511177E+02  0.47787275425E+02  0.20000019972E+02 0.  0.
         12    1    1    2    0    0  0.18027394636E+02  0.64292125304E-01 -0.39479511177E+02  0.43400724575E+02  0.00000000000E+00 0. -1.
         11    1    3    3    0    0 -0.21453460357E+01 -0.31851838993E+01  0.17936559942E+02  0.18343066508E+02  0.51100000000E-03 0. -1.
        -11    1    3    3    0    0 -0.11098689405E+02 -0.12401712670E+01  0.19813642571E+02  0.22744216044E+02  0.51100000000E-03 0.  1.
        -12    1    3    3    0    0 -0.47833591956E+01  0.43610630410E+01  0.17293086640E+01  0.66999928729E+01  0.00000000000E+00 0.  1.
</event>
<event>
 7    1  0.2328615E-009  0.4778726E+02  0.7816164E-02  0.1312668E+00
        -11   -1    0    0    0    0  0.00000000000E+00  0.00000000000E+00  0.45593999997E+02  0.45594000000E+02  0.51100000000E-03 0.  1.
         11   -1    0    0    0    0 -0.00000000000E+00 -0.00000000000E+00 -0.45593999997E+02  0.45594000000E+02  0.51100000000E-03 0. -1.
    9900012    2    1    2    0    0 -0.24861089512E+02  0.18310256954E+02  0.30500570107E+02  0.47787262008E+02  0.19999958797E+02 0.  0.
         12    1    1    2    0    0  0.24861089512E+02 -0.18310256954E+02 -0.30500570107E+02  0.43400737992E+02  0.00000000000E+00 0. -1.
         11    1    3    3    0    0 -0.10019190982E+02  0.62799803122E+01  0.21088076799E+02  0.24177041259E+02  0.51100000000E-03 0.  1.
        -11    1    3    3    0    0 -0.49919552700E+00  0.41244590516E+01  0.52819876257E+01  0.67201006080E+01  0.51100000000E-03 0. -1.
        -12    1    3    3    0    0 -0.14342703002E+02  0.79058175901E+01  0.41305056819E+01  0.16890120141E+02  0.00000000000E+00 0.  1.
</event>
<event>
 7    1  0.2328615E-009  0.4778728E+02  0.7816164E-02  0.1312668E+00
        -11   -1    0    0    0    0  0.00000000000E+00  0.00000000000E+00  0.45593999997E+02  0.45594000000E+02  0.51100000000E-03 0.  1.
         11   -1    0    0    0    0 -0.00000000000E+00 -0.00000000000E+00 -0.45593999997E+02  0.45594000000E+02  0.51100000000E-03 0. -1.
    9900012    2    1    2    0    0  0.75712467900E+01  0.37415218501E+02  0.20649463000E+02  0.47787277937E+02  0.20000031424E+02 0.  0.
         12    1    1    2    0    0 -0.75712467900E+01 -0.37415218501E+02 -0.20649463000E+02  0.43400722063E+02  0.00000000000E+00 0. -1.
         11    1    3    3    0    0 -0.36757569324E+00  0.35640677643E+01  0.56146195581E+01  0.66604537354E+01  0.51100000000E-03 0. -1.
        -11    1    3    3    0    0  0.89926413525E+01  0.85355380437E+01  0.17612023687E+01  0.12522972580E+02  0.51100000000E-03 0.  1.
        -12    1    3    3    0    0 -0.10538188693E+01  0.25315612693E+02  0.13273641074E+02  0.28603851621E+02  0.00000000000E+00 0.  1.
</event>
<event>
 7    1  0.2328615E-009  0.4778725E+02  0.7816164E-02  0.1312668E+00
        -11   -1    0    0    0    0  0.00000000000E+00  0.00000000000E+00  0.45593999997E+02  0.45594000000E+02  0.51100000000E-03 0. -1.
         11   -1    0    0    0    0 -0.00000000000E+00 -0.00000000000E+00 -0.45593999997E+02  0.45594000000E+02  0.51100000000E-03 0.  1.
    9900012    2    1    2    0    0 -0.21953753339E+02 -0.34354497001E+02  0.14880387034E+02  0.47787254982E+02  0.19999926763E+02 0.  0.
         12    1    1    2    0    0  0.21953753339E+02  0.34354497001E+02 -0.14880387034E+02  0.43400745018E+02  0.00000000000E+00 0. -1.
         11    1    3    3    0    0 -0.49661476462E+01 -0.31876270161E+01  0.19173231030E+01  0.62048139843E+01  0.51100000000E-03 0. -1.
        -11    1    3    3    0    0 -0.13303485315E+02 -0.12157905092E+02  0.12996882673E+02  0.22219728559E+02  0.51100000000E-03 0.  1.
         12    1    3    3    0    0 -0.36841203775E+01 -0.19008964893E+02 -0.33818742255E-01  0.19362712438E+02  0.00000000000E+00 0. -1.
</event>
<event>
 7    1  0.2328615E-009  0.4778727E+02  0.7816164E-02  0.1312668E+00
        -11   -1    0    0    0    0  0.00000000000E+00  0.00000000000E+00  0.45593999997E+02  0.45594000000E+02  0.51100000000E-03 0.  1.
         11   -1    0    0    0    0 -0.00000000000E+00 -0.00000000000E+00 -0.45593999997E+02  0.45594000000E+02  0.51100000000E-03 0. -1.
    9900012    2    1    2    0    0  0.14121891986E+02  0.40550700851E+02 -0.63115842342E+01  0.47787271108E+02  0.20000000290E+02 0.  0.
         12    1    1    2    0    0 -0.14121891986E+02 -0.40550700851E+02  0.63115842342E+01  0.43400728892E+02  0.00000000000E+00 0. -1.
         11    1    3    3    0    0  0.34519078455E+01  0.10854366453E+02 -0.66257756889E+01  0.13177019489E+02  0.51100000000E-03 0.  1.
        -11    1    3    3    0    0  0.60102082080E+01  0.23601461468E+02 -0.55193052268E+01  0.24972270953E+02  0.51100000000E-03 0. -1.
        -12    1    3    3    0    0  0.46597759326E+01  0.60948729312E+01  0.58334966815E+01  0.96379806662E+01  0.00000000000E+00 0.  1.
</event>
<event>
 7    1  0.2328615E-009  0.4778726E+02  0.7816164E-02  0.1312668E+00
        -11   -1    0    0    0    0  0.00000000000E+00  0.00000000000E+00  0.45593999997E+02  0.45594000000E+02  0.51100000000E-03 0.  1.
         11   -1    0    0    0    0 -0.00000000000E+00 -0.00000000000E+00 -0.45593999997E+02  0.45594000000E+02  0.51100000000E-03 0. -1.
    9900012    2    1    2    0    0  0.30381796923E+02  0.19289394990E+02  0.24258808514E+02  0.47787261137E+02  0.19999954826E+02 0.  0.
         12    1    1    2    0    0 -0.30381796923E+02 -0.19289394990E+02 -0.24258808514E+02  0.43400738863E+02  0.00000000000E+00 0. -1.
         11    1    3    3    0    0  0.10138044329E+02  0.68889014399E+01  0.26204840156E+01  0.12534107173E+02  0.51100000000E-03 0. -1.
        -11    1    3    3    0    0  0.14198624676E+02  0.64903993889E+00  0.82167910718E+01  0.16417607966E+02  0.51100000000E-03 0.  1.
        -12    1    3    3    0    0  0.60451279173E+01  0.11751453612E+02  0.13421533427E+02  0.18835545998E+02  0.00000000000E+00 0.  1.
</event>
<event>
 7    1 -0.2328615E-009  0.4778727E+02  0.7816164E-02  0.1312668E+00
        -11   -1    0    0    0    0  0.00000000000E+00  0.00000000000E+00  0.45593999997E+02  0.45594000000E+02  0.51100000000E-03 0. -1.
         11   -1    0    0    0    0 -0.00000000000E+00 -0.00000000000E+00 -0.45593999997E+02  0.45594000000E+02  0.51100000000E-03 0.  1.
    9900012    2    1    2    0    0  0.12691344220E+02  0.20366558414E+02 -0.36162916687E+02  0.47787268866E+02  0.19999990065E+02 0.  0.
         12    1    1    2    0    0 -0.12691344220E+02 -0.20366558414E+02  0.36162916687E+02  0.43400731134E+02  0.00000000000E+00 0. -1.
         11    1    3    3    0    0  0.21335793694E+01 -0.21761883073E+00 -0.51031734389E+01  0.55355124686E+01  0.51100000000E-03 0. -1.
        -11    1    3    3    0    0 -0.33077923924E+01  0.33129479353E+01 -0.12524570929E+02  0.13370938327E+02  0.51100000000E-03 0.  1.
        -12    1    3    3    0    0  0.13865557243E+02  0.17271229309E+02 -0.18535172319E+02  0.28880818070E+02  0.00000000000E+00 0.  1.
</event>
<event>
 7    1  0.2328615E-009  0.4778727E+02  0.7816164E-02  0.1312668E+00
        -11   -1    0    0    0    0  0.00000000000E+00  0.00000000000E+00  0.45593999997E+02  0.45594000000E+02  0.51100000000E-03 0. -1.
         11   -1    0    0    0    0 -0.00000000000E+00 -0.00000000000E+00 -0.45593999997E+02  0.45594000000E+02  0.51100000000E-03 0.  1.
    9900012    2    1    2    0    0 -0.11584980530E+02  0.54859818001E+01 -0.41464628272E+02  0.47787272265E+02  0.20000005565E+02 0.  0.
         12    1    1    2    0    0  0.11584980530E+02 -0.54859818001E+01  0.41464628272E+02  0.43400727735E+02  0.00000000000E+00 0. -1.
         11    1    3    3    0    0 -0.23065207237E+01 -0.41751356527E+00 -0.87437116272E+00  0.25017754930E+01  0.51100000000E-03 0. -1.
        -11    1    3    3    0    0 -0.58067648082E+00  0.49323326740E+01 -0.33919731309E+02  0.34281383623E+02  0.51100000000E-03 0.  1.
        -12    1    3    3    0    0 -0.86977833251E+01  0.97116269136E+00 -0.66705258007E+01  0.11004113149E+02  0.00000000000E+00 0.  1.
</event>
<event>
 7    1  0.2328615E-009  0.4778727E+02  0.7816164E-02  0.1312668E+00
        -11   -1    0    0    0    0  0.00000000000E+00  0.00000000000E+00  0.45593999997E+02  0.45594000000E+02  0.51100000000E-03 0.  1.
         11   -1    0    0    0    0 -0.00000000000E+00 -0.00000000000E+00 -0.45593999997E+02  0.45594000000E+02  0.51100000000E-03 0. -1.
    9900012    2    1    2    0    0  0.96731478921E+00 -0.20028802888E+02  0.38490710358E+02  0.47787269282E+02  0.19999991964E+02 0.  0.
         12    1    1    2    0    0 -0.96731478921E+00  0.20028802888E+02 -0.38490710358E+02  0.43400730718E+02  0.00000000000E+00 0. -1.
         11    1    3    3    0    0  0.18166428041E+01 -0.48839029615E+01  0.17036085108E+01  0.54822423728E+01  0.51100000000E-03 0. -1.
        -11    1    3    3    0    0 -0.62386404546E+01 -0.75254467392E+01  0.10201212220E+02  0.14128613320E+02  0.51100000000E-03 0.  1.
         12    1    3    3    0    0  0.53893124396E+01 -0.76194531873E+01  0.26585889627E+02  0.28176413589E+02  0.00000000000E+00 0. -1.
</event>
<event>
 7    1  0.2328615E-009  0.4778727E+02  0.7816164E-02  0.1312668E+00
        -11   -1    0    0    0    0  0.00000000000E+00  0.00000000000E+00  0.45593999997E+02  0.45594000000E+02  0.51100000000E-03 0. -1.
         11   -1    0    0    0    0 -0.00000000000E+00 -0.00000000000E+00 -0.45593999997E+02  0.45594000000E+02  0.51100000000E-03 0.  1.
    9900012    2    1    2    0    0 -0.33665719215E+01  0.42276235653E+02 -0.92200728832E+01  0.47787266694E+02  0.19999980166E+02 0.  0.
         12    1    1    2    0    0  0.33665719215E+01 -0.42276235653E+02  0.92200728832E+01  0.43400733306E+02  0.00000000000E+00 0. -1.
         11    1    3    3    0    0 -0.19579012520E+01  0.90268271022E+01  0.24000750909E+01  0.95434451614E+01  0.51100000000E-03 0. -1.
        -11    1    3    3    0    0 -0.40348246344E+01  0.12382848640E+02  0.20161178729E+01  0.13178751147E+02  0.51100000000E-03 0.  1.
         12    1    3    3    0    0  0.26261539649E+01  0.20866559911E+02 -0.13636265847E+02  0.25065070386E+02  0.00000000000E+00 0. -1.
</event>
<event>
 7    1  0.2328615E-009  0.4778728E+02  0.7816164E-02  0.1312668E+00
        -11   -1    0    0    0    0  0.00000000000E+00  0.00000000000E+00  0.45593999997E+02  0.45594000000E+02  0.51100000000E-03 0. -1.
         11   -1    0    0    0    0 -0.00000000000E+00 -0.00000000000E+00 -0.45593999997E+02  0.45594000000E+02  0.51100000000E-03 0.  1.
    9900012    2    1    2    0    0  0.16698373034E+02  0.10356585458E+02 -0.38697911841E+02  0.47787275292E+02  0.20000019366E+02 0.  0.
         12    1    1    2    0    0 -0.16698373034E+02 -0.10356585458E+02  0.38697911841E+02  0.43400724708E+02  0.00000000000E+00 0. -1.
         11    1    3    3    0    0 -0.72811186816E+00 -0.20271800780E+01 -0.54402193689E+01  0.58511189531E+01  0.51100000000E-03 0. -1.
        -11    1    3    3    0    0  0.18765609853E+01 -0.29091515640E+01 -0.26836294622E+01  0.43802410100E+01  0.51100000000E-03 0.  1.
        -12    1    3    3    0    0  0.15549923917E+02  0.15292917100E+02 -0.30574063010E+02  0.37555915329E+02  0.00000000000E+00 0.  1.
</event>
<event>
 7    1  0.2328615E-009  0.4778727E+02  0.7816164E-02  0.1312668E+00
        -11   -1    0    0    0    0  0.00000000000E+00  0.00000000000E+00  0.45593999997E+02  0.45594000000E+02  0.51100000000E-03 0.  1.
         11   -1    0    0    0    0 -0.00000000000E+00 -0.00000000000E+00 -0.45593999997E+02  0.45594000000E+02  0.51100000000E-03 0. -1.
    9900012    2    1    2    0    0 -0.11578863726E+02  0.10695103664E+02  0.40437213664E+02  0.47787267558E+02  0.19999984106E+02 0.  0.
         12    1    1    2    0    0  0.11578863726E+02 -0.10695103664E+02 -0.40437213664E+02  0.43400732442E+02  0.00000000000E+00 0. -1.
         11    1    3    3    0    0 -0.12942820814E+02  0.27914452551E+01  0.20380623642E+02  0.24303880297E+02  0.51100000000E-03 0.  1.
        -11    1    3    3    0    0 -0.77340444819E+00 -0.68747475763E+00  0.10129216517E+02  0.10181935154E+02  0.51100000000E-03 0. -1.
        -12    1    3    3    0    0  0.21373615365E+01  0.85911331667E+01  0.99273735057E+01  0.13301452107E+02  0.00000000000E+00 0.  1.
</event>
<event>
 7    1  0.2328615E-009  0.4778727E+02  0.7816164E-02  0.1312668E+00
        -11   -1    0    0    0    0  0.00000000000E+00  0.00000000000E+00  0.45593999997E+02  0.45594000000E+02  0.51100000000E-03 0.  1.
         11   -1    0    0    0    0 -0.00000000000E+00 -0.00000000000E+00 -0.45593999997E+02  0.45594000000E+02  0.51100000000E-03 0. -1.
    9900012    2    1    2    0    0 -0.12057357944E+02 -0.40242731842E+02  0.10897974678E+02  0.47787271910E+02  0.20000003946E+02 0.  0.
         12    1    1    2    0    0  0.12057357944E+02  0.40242731842E+02 -0.10897974678E+02  0.43400728090E+02  0.00000000000E+00 0. -1.
         11    1    3    3    0    0  0.25319126222E+01 -0.18806494877E+01  0.22973536954E+01  0.39019557000E+01  0.51100000000E-03 0. -1.
        -11    1    3    3    0    0 -0.56334820792E+01 -0.22564675537E+02  0.10708169224E+02  0.25604015130E+02  0.51100000000E-03 0.  1.
         12    1    3    3    0    0 -0.89557884866E+01 -0.15797406817E+02 -0.21075482408E+01  0.18281301079E+02  0.00000000000E+00 0. -1.
</event>
<event>
 7    1  0.2328615E-009  0.4778727E+02  0.7816164E-02  0.1312668E+00
        -11   -1    0    0    0    0  0.00000000000E+00  0.00000000000E+00  0.45593999997E+02  0.45594000000E+02  0.51100000000E-03 0.  1.
         11   -1    0    0    0    0 -0.00000000000E+00 -0.00000000000E+00 -0.45593999997E+02  0.45594000000E+02  0.51100000000E-03 0. -1.
    9900012    2    1    2    0    0  0.34958224516E+02 -0.11184615444E+02  0.23161395590E+02  0.47787270402E+02  0.19999997071E+02 0.  0.
         12    1    1    2    0    0 -0.34958224516E+02  0.11184615444E+02 -0.23161395590E+02  0.43400729598E+02  0.00000000000E+00 0. -1.
         11    1    3    3    0    0  0.69565657930E+01  0.23209643572E+00  0.92750297382E+01  0.11596286185E+02  0.51100000000E-03 0. -1.
        -11    1    3    3    0    0  0.28147105582E+02 -0.13291302634E+02  0.14316886425E+02  0.34262100279E+02  0.51100000000E-03 0.  1.
         12    1    3    3    0    0 -0.14544685899E+00  0.18745907537E+01 -0.43052057288E+00  0.19288839380E+01  0.00000000000E+00 0. -1.
</event>
<event>
 7    1  0.2328615E-009  0.4778727E+02  0.7816164E-02  0.1312668E+00
        -11   -1    0    0    0    0  0.00000000000E+00  0.00000000000E+00  0.45593999997E+02  0.45594000000E+02  0.51100000000E-03 0.  1.
         11   -1    0    0    0    0 -0.00000000000E+00 -0.00000000000E+00 -0.45593999997E+02  0.45594000000E+02  0.51100000000E-03 0. -1.
    9900012    2    1    2    0    0 -0.18579374787E+02  0.12269193583E+02  0.37254490033E+02  0.47787270671E+02  0.19999998298E+02 0.  0.
         12    1    1    2    0    0  0.18579374787E+02 -0.12269193583E+02 -0.37254490033E+02  0.43400729329E+02  0.00000000000E+00 0. -1.
         11    1    3    3    0    0 -0.27449246206E+01  0.31831556591E+01  0.18670503342E+02  0.19137784261E+02  0.51100000000E-03 0. -1.
        -11    1    3    3    0    0  0.90091995965E+00 -0.33613540126E+00  0.50836026200E+01  0.51737471566E+01  0.51100000000E-03 0.  1.
         12    1    3    3    0    0 -0.16735370126E+02  0.94221733254E+01  0.13500384071E+02  0.23475739253E+02  0.00000000000E+00 0. -1.
</event>
<event>
 7    1  0.2328615E-009  0.4778727E+02  0.7816164E-02  0.1312668E+00
        -11   -1    0    0    0    0  0.00000000000E+00  0.00000000000E+00  0.45593999997E+02  0.45594000000E+02  0.51100000000E-03 0.  1.
         11   -1    0    0    0    0 -0.00000000000E+00 -0.00000000000E+00 -0.45593999997E+02  0.45594000000E+02  0.51100000000E-03 0. -1.
    9900012    2    1    2    0    0 -0.24304882202E+01  0.26407966497E+02  0.34356009617E+02  0.47787270003E+02  0.19999995252E+02 0.  0.
         12    1    1    2    0    0  0.24304882202E+01 -0.26407966497E+02 -0.34356009617E+02  0.43400729997E+02  0.00000000000E+00 0. -1.
         11    1    3    3    0    0  0.27427332781E+01  0.62533221440E+01  0.54778065437E+01  0.87540269854E+01  0.51100000000E-03 0. -1.
        -11    1    3    3    0    0  0.34422437657E+01  0.65132506772E+01  0.19154672817E+01  0.76118651916E+01  0.51100000000E-03 0.  1.
         12    1    3    3    0    0 -0.86154652640E+01  0.13641393676E+02  0.26962735791E+02  0.31421377826E+02  0.00000000000E+00 0. -1.
</event>
<event>
 7    1  0.2328615E-009  0.4778726E+02  0.7816164E-02  0.1312668E+00
        -11   -1    0    0    0    0  0.00000000000E+00  0.00000000000E+00  0.45593999997E+02  0.45594000000E+02  0.51100000000E-03 0.  1.
         11   -1    0    0    0    0 -0.00000000000E+00 -0.00000000000E+00 -0.45593999997E+02  0.45594000000E+02  0.51100000000E-03 0. -1.
    9900012    2    1    2    0    0 -0.43302735634E+02  0.27337125457E+01  0.10119711862E+01  0.47787260567E+02  0.19999952228E+02 0.  0.
         12    1    1    2    0    0  0.43302735634E+02 -0.27337125457E+01 -0.10119711862E+01  0.43400739433E+02  0.00000000000E+00 0. -1.
         11    1    3    3    0    0 -0.27324054261E+01 -0.41365505472E+01 -0.80161191259E+00  0.50219191313E+01  0.51100000000E-03 0. -1.
        -11    1    3    3    0    0 -0.10116642139E+02 -0.24946910019E+01  0.31221122237E+01  0.10877385548E+02  0.51100000000E-03 0.  1.
         12    1    3    3    0    0 -0.30453688069E+02  0.93649540947E+01 -0.13085291249E+01  0.31887955887E+02  0.00000000000E+00 0. -1.
</event>
<event>
 7    1  0.2328615E-009  0.4778727E+02  0.7816164E-02  0.1312668E+00
        -11   -1    0    0    0    0  0.00000000000E+00  0.00000000000E+00  0.45593999997E+02  0.45594000000E+02  0.51100000000E-03 0.  1.
         11   -1    0    0    0    0 -0.00000000000E+00 -0.00000000000E+00 -0.45593999997E+02  0.45594000000E+02  0.51100000000E-03 0. -1.
    9900012    2    1    2    0    0  0.41601508892E+02 -0.37803968548E+01  0.11774813769E+02  0.47787272106E+02  0.20000004840E+02 0.  0.
         12    1    1    2    0    0 -0.41601508892E+02  0.37803968548E+01 -0.11774813769E+02  0.43400727894E+02  0.00000000000E+00 0. -1.
         11    1    3    3    0    0  0.24056497034E+01 -0.22717654301E+01 -0.67277439203E+00  0.33764914199E+01  0.51100000000E-03 0. -1.
        -11    1    3    3    0    0  0.19930090209E+01 -0.39682978883E+01 -0.13722582399E+01  0.46478560677E+01  0.51100000000E-03 0.  1.
        -12    1    3    3    0    0  0.37202850167E+02  0.24596664637E+01  0.13819846401E+02  0.39762924618E+02  0.00000000000E+00 0.  1.
</event>
<event>
 7    1  0.2328615E-009  0.4778727E+02  0.7816164E-02  0.1312668E+00
        -11   -1    0    0    0    0  0.00000000000E+00  0.00000000000E+00  0.45593999997E+02  0.45594000000E+02  0.51100000000E-03 0.  1.
         11   -1    0    0    0    0 -0.00000000000E+00 -0.00000000000E+00 -0.45593999997E+02  0.45594000000E+02  0.51100000000E-03 0. -1.
    9900012    2    1    2    0    0 -0.14087909248E+02 -0.22945600872E+02  0.34039001722E+02  0.47787269308E+02  0.19999992083E+02 0.  0.
         12    1    1    2    0    0  0.14087909248E+02  0.22945600872E+02 -0.34039001722E+02  0.43400730692E+02  0.00000000000E+00 0. -1.
         11    1    3    3    0    0  0.64837920407E+00  0.16255197364E+00  0.11558987890E+02  0.11578299532E+02  0.51100000000E-03 0.  1.
        -11    1    3    3    0    0 -0.58379149432E+01 -0.35000521748E+01  0.62997300890E+01  0.92746005610E+01  0.51100000000E-03 0. -1.
        -12    1    3    3    0    0 -0.88983735090E+01 -0.19608100671E+02  0.16180283743E+02  0.26934369215E+02  0.00000000000E+00 0.  1.
</event>
<event>
 7    1  0.2328615E-009  0.4778727E+02  0.7816164E-02  0.1312668E+00
        -11   -1    0    0    0    0  0.00000000000E+00  0.00000000000E+00  0.45593999997E+02  0.45594000000E+02  0.51100000000E-03 0. -1.
         11   -1    0    0    0    0 -0.00000000000E+00 -0.00000000000E+00 -0.45593999997E+02  0.45594000000E+02  0.51100000000E-03 0.  1.
    9900012    2    1    2    0    0  0.17586260103E+02 -0.27414679066E+02 -0.28684181398E+02  0.47787269187E+02  0.19999991529E+02 0.  0.
         12    1    1    2    0    0 -0.17586260103E+02  0.27414679066E+02  0.28684181398E+02  0.43400730813E+02  0.00000000000E+00 0. -1.
         11    1    3    3    0    0  0.29636018998E+01  0.13359874572E+01 -0.13455908169E+01  0.35182969764E+01  0.51100000000E-03 0. -1.
        -11    1    3    3    0    0 -0.10502546217E+01  0.33949228762E-01 -0.37332048236E+01  0.38782735640E+01  0.51100000000E-03 0.  1.
         12    1    3    3    0    0  0.15672912825E+02 -0.28784615752E+02 -0.23605385757E+02  0.40390698646E+02  0.00000000000E+00 0. -1.
</event>
<event>
 7    1  0.2328615E-009  0.4778727E+02  0.7816164E-02  0.1312668E+00
        -11   -1    0    0    0    0  0.00000000000E+00  0.00000000000E+00  0.45593999997E+02  0.45594000000E+02  0.51100000000E-03 0.  1.
         11   -1    0    0    0    0 -0.00000000000E+00 -0.00000000000E+00 -0.45593999997E+02  0.45594000000E+02  0.51100000000E-03 0. -1.
    9900012    2    1    2    0    0  0.14690696604E+02  0.40793059137E+02 -0.19320179501E+01  0.47787274962E+02  0.20000017862E+02 0.  0.
         12    1    1    2    0    0 -0.14690696604E+02 -0.40793059137E+02  0.19320179501E+01  0.43400725038E+02  0.00000000000E+00 0. -1.
         11    1    3    3    0    0 -0.68497155799E+00  0.60559464298E+01 -0.20977988105E+01  0.64454971342E+01  0.51100000000E-03 0. -1.
        -11    1    3    3    0    0 -0.13192894091E+01  0.13480397907E+02  0.38043330641E+01  0.14068923292E+02  0.51100000000E-03 0.  1.
         12    1    3    3    0    0  0.16694957571E+02  0.21256714800E+02 -0.36385522037E+01  0.27272854536E+02  0.00000000000E+00 0. -1.
</event>
<event>
 7    1  0.2328615E-009  0.4778727E+02  0.7816164E-02  0.1312668E+00
        -11   -1    0    0    0    0  0.00000000000E+00  0.00000000000E+00  0.45593999997E+02  0.45594000000E+02  0.51100000000E-03 0.  1.
         11   -1    0    0    0    0 -0.00000000000E+00 -0.00000000000E+00 -0.45593999997E+02  0.45594000000E+02  0.51100000000E-03 0. -1.
    9900012    2    1    2    0    0  0.17884422087E+02  0.37233414195E+02  0.13320796739E+02  0.47787270608E+02  0.19999998009E+02 0.  0.
         12    1    1    2    0    0 -0.17884422087E+02 -0.37233414195E+02 -0.13320796739E+02  0.43400729392E+02  0.00000000000E+00 0. -1.
         11    1    3    3    0    0  0.42204653159E+01  0.11235248007E+02 -0.23258523815E+01  0.12225085473E+02  0.51100000000E-03 0. -1.
        -11    1    3    3    0    0  0.93479903914E+01  0.10678888625E+02  0.15058423666E+01  0.14272040783E+02  0.51100000000E-03 0.  1.
        -12    1    3    3    0    0  0.43159663799E+01  0.15319277563E+02  0.14140806754E+02  0.21290144351E+02  0.00000000000E+00 0.  1.
</event>
<event>
 7    1  0.2328615E-009  0.4778727E+02  0.7816164E-02  0.1312668E+00
        -11   -1    0    0    0    0  0.00000000000E+00  0.00000000000E+00  0.45593999997E+02  0.45594000000E+02  0.51100000000E-03 0.  1.
         11   -1    0    0    0    0 -0.00000000000E+00 -0.00000000000E+00 -0.45593999997E+02  0.45594000000E+02  0.51100000000E-03 0. -1.
    9900012    2    1    2    0    0 -0.31007647950E+02  0.30366687739E+02 -0.11580426182E+00  0.47787269980E+02  0.19999995147E+02 0.  0.
         12    1    1    2    0    0  0.31007647950E+02 -0.30366687739E+02  0.11580426182E+00  0.43400730020E+02  0.00000000000E+00 0. -1.
         11    1    3    3    0    0 -0.12219266451E+02  0.15649595144E+02 -0.26266487394E+01  0.20027970058E+02  0.51100000000E-03 0.  1.
        -11    1    3    3    0    0 -0.62467580520E+01  0.23298680272E+01 -0.52624999178E+01  0.84937728266E+01  0.51100000000E-03 0. -1.
         12    1    3    3    0    0 -0.12541623447E+02  0.12387224568E+02  0.77733443954E+01  0.19265527096E+02  0.00000000000E+00 0. -1.
</event>
<event>
 7    1  0.2328615E-009  0.4778727E+02  0.7816164E-02  0.1312668E+00
        -11   -1    0    0    0    0  0.00000000000E+00  0.00000000000E+00  0.45593999997E+02  0.45594000000E+02  0.51100000000E-03 0. -1.
         11   -1    0    0    0    0 -0.00000000000E+00 -0.00000000000E+00 -0.45593999997E+02  0.45594000000E+02  0.51100000000E-03 0.  1.
    9900012    2    1    2    0    0  0.21721063303E+02 -0.25705207105E+02 -0.27405492393E+02  0.47787271013E+02  0.19999999858E+02 0.  0.
         12    1    1    2    0    0 -0.21721063303E+02  0.25705207105E+02  0.27405492393E+02  0.43400728987E+02  0.00000000000E+00 0. -1.
         11    1    3    3    0    0  0.26113516245E+01 -0.12083335571E+02 -0.12313722538E+02  0.17448607934E+02  0.51100000000E-03 0. -1.
        -11    1    3    3    0    0  0.13529247419E+01 -0.73523096795E+01 -0.47016172561E+01  0.88313117975E+01  0.51100000000E-03 0.  1.
        -12    1    3    3    0    0  0.17756786936E+02 -0.62695618542E+01 -0.10390152598E+02  0.21507351282E+02  0.00000000000E+00 0.  1.
</event>
<event>
 7    1  0.2328615E-009  0.4778727E+02  0.7816164E-02  0.1312668E+00
        -11   -1    0    0    0    0  0.00000000000E+00  0.00000000000E+00  0.45593999997E+02  0.45594000000E+02  0.51100000000E-03 0.  1.
         11   -1    0    0    0    0 -0.00000000000E+00 -0.00000000000E+00 -0.45593999997E+02  0.45594000000E+02  0.51100000000E-03 0. -1.
    9900012    2    1    2    0    0 -0.21999732068E+02  0.37389405590E+02  0.12912820955E+01  0.47787271079E+02  0.20000000159E+02 0.  0.
         12    1    1    2    0    0  0.21999732068E+02 -0.37389405590E+02 -0.12912820955E+01  0.43400728921E+02  0.00000000000E+00 0. -1.
         11    1    3    3    0    0 -0.49351824743E+01  0.27551751960E+01  0.42024999959E+00  0.56677708791E+01  0.51100000000E-03 0. -1.
        -11    1    3    3    0    0 -0.91536109707E-01  0.18235615604E+02  0.27586921490E+01  0.18443330446E+02  0.51100000000E-03 0.  1.
        -12    1    3    3    0    0 -0.16973013484E+02  0.16398614790E+02 -0.18876600530E+01  0.23676169754E+02  0.00000000000E+00 0.  1.
</event>
<event>
 7    1  0.2328615E-009  0.4778727E+02  0.7816164E-02  0.1312668E+00
        -11   -1    0    0    0    0  0.00000000000E+00  0.00000000000E+00  0.45593999997E+02  0.45594000000E+02  0.51100000000E-03 0.  1.
         11   -1    0    0    0    0 -0.00000000000E+00 -0.00000000000E+00 -0.45593999997E+02  0.45594000000E+02  0.51100000000E-03 0. -1.
    9900012    2    1    2    0    0  0.13416268763E+02 -0.31596938943E+02  0.26556740951E+02  0.47787270651E+02  0.19999998208E+02 0.  0.
         12    1    1    2    0    0 -0.13416268763E+02  0.31596938943E+02 -0.26556740951E+02  0.43400729349E+02  0.00000000000E+00 0. -1.
         11    1    3    3    0    0 -0.34099058190E+01 -0.70160801237E+01  0.40867515267E+01  0.88064962556E+01  0.51100000000E-03 0. -1.
        -11    1    3    3    0    0  0.49007842262E+01 -0.15244090422E+02  0.15580845200E+02  0.22341949696E+02  0.51100000000E-03 0.  1.
         12    1    3    3    0    0  0.11925390356E+02 -0.93367683972E+01  0.68891442241E+01  0.16638824700E+02  0.00000000000E+00 0. -1.
</event>
<event>
 7    1  0.2328615E-009  0.4778726E+02  0.7816164E-02  0.1312668E+00
        -11   -1    0    0    0    0  0.00000000000E+00  0.00000000000E+00  0.45593999997E+02  0.45594000000E+02  0.51100000000E-03 0.  1.
         11   -1    0    0    0    0 -0.00000000000E+00 -0.00000000000E+00 -0.45593999997E+02  0.45594000000E+02  0.51100000000E-03 0. -1.
    9900012    2    1    2    0    0  0.32221348801E+02  0.12487121293E+02  0.26257964979E+02  0.47787259896E+02  0.19999949170E+02 0.  0.
         12    1    1    2    0    0 -0.32221348801E+02 -0.12487121293E+02 -0.26257964979E+02  0.43400740104E+02  0.00000000000E+00 0. -1.
         11    1    3    3    0    0  0.61779243319E+01 -0.75090581840E+00  0.97548652470E-01  0.62241565372E+01  0.51100000000E-03 0. -1.
        -11    1    3    3    0    0  0.22661145737E+01  0.45322373321E+01 -0.12066690260E+00  0.50686301165E+01  0.51100000000E-03 0.  1.
        -12    1    3    3    0    0  0.23777309895E+02  0.87057897791E+01  0.26281083229E+02  0.36494473242E+02  0.00000000000E+00 0.  1.
</event>
<event>
 7    1  0.2328615E-009  0.4778727E+02  0.7816164E-02  0.1312668E+00
        -11   -1    0    0    0    0  0.00000000000E+00  0.00000000000E+00  0.45593999997E+02  0.45594000000E+02  0.51100000000E-03 0. -1.
         11   -1    0    0    0    0 -0.00000000000E+00 -0.00000000000E+00 -0.45593999997E+02  0.45594000000E+02  0.51100000000E-03 0.  1.
    9900012    2    1    2    0    0  0.24867075825E+02 -0.34992782416E+02  0.63841207432E+01  0.47787270986E+02  0.19999999734E+02 0.  0.
         12    1    1    2    0    0 -0.24867075825E+02  0.34992782416E+02 -0.63841207432E+01  0.43400729014E+02  0.00000000000E+00 0. -1.
         11    1    3    3    0    0  0.20512557655E+01 -0.12533731404E+01 -0.22699045950E+01  0.33062155974E+01  0.51100000000E-03 0. -1.
        -11    1    3    3    0    0  0.13034120393E+02 -0.21254694709E+02 -0.25493102105E+01  0.25062907341E+02  0.51100000000E-03 0.  1.
         12    1    3    3    0    0  0.97816996669E+01 -0.12484714566E+02  0.11203335549E+02  0.19418148047E+02  0.00000000000E+00 0. -1.
</event>
<event>
 7    1  0.2328615E-009  0.4778727E+02  0.7816164E-02  0.1312668E+00
        -11   -1    0    0    0    0  0.00000000000E+00  0.00000000000E+00  0.45593999997E+02  0.45594000000E+02  0.51100000000E-03 0.  1.
         11   -1    0    0    0    0 -0.00000000000E+00 -0.00000000000E+00 -0.45593999997E+02  0.45594000000E+02  0.51100000000E-03 0. -1.
    9900012    2    1    2    0    0 -0.20649048712E+02  0.32676010878E+02  0.19736217600E+02  0.47787272071E+02  0.20000004682E+02 0.  0.
         12    1    1    2    0    0  0.20649048712E+02 -0.32676010878E+02 -0.19736217600E+02  0.43400727929E+02  0.00000000000E+00 0. -1.
         11    1    3    3    0    0  0.62027565629E+00  0.53983043863E+01  0.52377281254E+01  0.75472000314E+01  0.51100000000E-03 0. -1.
        -11    1    3    3    0    0 -0.78274068026E+01  0.21179681307E+02  0.67371294212E+01  0.23563448615E+02  0.51100000000E-03 0.  1.
         12    1    3    3    0    0 -0.13441917565E+02  0.60980251845E+01  0.77613600538E+01  0.16676623425E+02  0.00000000000E+00 0. -1.
</event>
<event>
 7    1  0.2328615E-009  0.4778727E+02  0.7816164E-02  0.1312668E+00
        -11   -1    0    0    0    0  0.00000000000E+00  0.00000000000E+00  0.45593999997E+02  0.45594000000E+02  0.51100000000E-03 0. -1.
         11   -1    0    0    0    0 -0.00000000000E+00 -0.00000000000E+00 -0.45593999997E+02  0.45594000000E+02  0.51100000000E-03 0.  1.
    9900012    2    1    2    0    0 -0.43158035555E+02  0.38347477373E+01  0.25103198472E+01  0.47787273867E+02  0.20000012868E+02 0.  0.
         12    1    1    2    0    0  0.43158035555E+02 -0.38347477373E+01 -0.25103198472E+01  0.43400726133E+02  0.00000000000E+00 0. -1.
         11    1    3    3    0    0 -0.16503921123E+02  0.73986098080E+01  0.13655302641E+01  0.18137902654E+02  0.51100000000E-03 0. -1.
        -11    1    3    3    0    0 -0.26006627702E+02 -0.38148109015E-01  0.14821485312E+01  0.26048856102E+02  0.51100000000E-03 0.  1.
        -12    1    3    3    0    0 -0.64748673074E+00 -0.35257139616E+01 -0.33735894804E+00  0.36005151112E+01  0.00000000000E+00 0.  1.
</event>
<event>
 7    1  0.2328615E-009  0.4778727E+02  0.7816164E-02  0.1312668E+00
        -11   -1    0    0    0    0  0.00000000000E+00  0.00000000000E+00  0.45593999997E+02  0.45594000000E+02  0.51100000000E-03 0. -1.
         11   -1    0    0    0    0 -0.00000000000E+00 -0.00000000000E+00 -0.45593999997E+02  0.45594000000E+02  0.51100000000E-03 0.  1.
    9900012    2    1    2    0    0  0.48356129189E+01 -0.34181660013E+02 -0.26303121126E+02  0.47787271729E+02  0.20000003119E+02 0.  0.
         12    1    1    2    0    0 -0.48356129189E+01  0.34181660013E+02  0.26303121126E+02  0.43400728271E+02  0.00000000000E+00 0. -1.
         11    1    3    3    0    0  0.28876566796E+01 -0.13953166683E+02 -0.73586340481E+01  0.16036798836E+02  0.51100000000E-03 0. -1.
        -11    1    3    3    0    0  0.99102949904E+00 -0.20380200316E+02 -0.21121532788E+02  0.29367564624E+02  0.51100000000E-03 0.  1.
         12    1    3    3    0    0  0.95692674030E+00  0.15170698573E+00  0.21770457099E+01  0.23829082691E+01  0.00000000000E+00 0. -1.
</event>
<event>
 7    1  0.2328615E-009  0.4778727E+02  0.7816164E-02  0.1312668E+00
        -11   -1    0    0    0    0  0.00000000000E+00  0.00000000000E+00  0.45593999997E+02  0.45594000000E+02  0.51100000000E-03 0. -1.
         11   -1    0    0    0    0 -0.00000000000E+00 -0.00000000000E+00 -0.45593999997E+02  0.45594000000E+02  0.51100000000E-03 0.  1.
    9900012    2    1    2    0    0 -0.98539544399E+01  0.11813180297E+02 -0.40582901676E+02  0.47787267802E+02  0.19999985218E+02 0.  0.
         12    1    1    2    0    0  0.98539544399E+01 -0.11813180297E+02  0.40582901676E+02  0.43400732198E+02  0.00000000000E+00 0. -1.
         11    1    3    3    0    0 -0.23704532152E+01  0.11267383997E+02 -0.15240390754E+02  0.19100850797E+02  0.51100000000E-03 0. -1.
        -11    1    3    3    0    0 -0.15868878091E+01  0.53389648163E+01 -0.13637565932E+02  0.14731122260E+02  0.51100000000E-03 0.  1.
        -12    1    3    3    0    0 -0.58966134156E+01 -0.47931685163E+01 -0.11704944991E+02  0.13955294746E+02  0.00000000000E+00 0.  1.
</event>
<event>
 7    1  0.2328615E-009  0.4778727E+02  0.7816164E-02  0.1312668E+00
        -11   -1    0    0    0    0  0.00000000000E+00  0.00000000000E+00  0.45593999997E+02  0.45594000000E+02  0.51100000000E-03 0. -1.
         11   -1    0    0    0    0 -0.00000000000E+00 -0.00000000000E+00 -0.45593999997E+02  0.45594000000E+02  0.51100000000E-03 0.  1.
    9900012    2    1    2    0    0 -0.35009047549E+02 -0.82003036453E+01  0.24305243192E+02  0.47787271471E+02  0.20000001947E+02 0.  0.
         12    1    1    2    0    0  0.35009047549E+02  0.82003036453E+01 -0.24305243192E+02  0.43400728529E+02  0.00000000000E+00 0. -1.
         11    1    3    3    0    0 -0.15744459485E+02 -0.94035960630E+01  0.66700667656E+01  0.19514236196E+02  0.51100000000E-03 0. -1.
        -11    1    3    3    0    0 -0.18522294659E+02 -0.13892257070E+01  0.12249219287E+02  0.22249690355E+02  0.51100000000E-03 0.  1.
         12    1    3    3    0    0 -0.74229340608E+00  0.25925181247E+01  0.53859571395E+01  0.60233449209E+01  0.00000000000E+00 0. -1.
</event>
<event>
 7    1  0.2328615E-009  0.4778727E+02  0.7816164E-02  0.1312668E+00
        -11   -1    0    0    0    0  0.00000000000E+00  0.00000000000E+00  0.45593999997E+02  0.45594000000E+02  0.51100000000E-03 0.  1.
         11   -1    0    0    0    0 -0.00000000000E+00 -0.00000000000E+00 -0.45593999997E+02  0.45594000000E+02  0.51100000000E-03 0. -1.
    9900012    2    1    2    0    0  0.34904186258E+02  0.11068382393E+02  0.23298325235E+02  0.47787271136E+02  0.20000000418E+02 0.  0.
         12    1    1    2    0    0 -0.34904186258E+02 -0.11068382393E+02 -0.23298325235E+02  0.43400728864E+02  0.00000000000E+00 0. -1.
         11    1    3    3    0    0  0.14601791695E+01  0.28659462607E+01  0.34660317350E+01  0.47285460160E+01  0.51100000000E-03 0.  1.
        -11    1    3    3    0    0  0.21184500314E+02  0.13114797184E+02  0.11487016694E+02  0.27435971124E+02  0.51100000000E-03 0. -1.
         12    1    3    3    0    0  0.12259506775E+02 -0.49123610511E+01  0.83452768061E+01  0.15622753996E+02  0.00000000000E+00 0. -1.
</event>
<event>
 7    1  0.2328615E-009  0.4778728E+02  0.7816164E-02  0.1312668E+00
        -11   -1    0    0    0    0  0.00000000000E+00  0.00000000000E+00  0.45593999997E+02  0.45594000000E+02  0.51100000000E-03 0. -1.
         11   -1    0    0    0    0 -0.00000000000E+00 -0.00000000000E+00 -0.45593999997E+02  0.45594000000E+02  0.51100000000E-03 0.  1.
    9900012    2    1    2    0    0  0.38317806838E+02 -0.20265649519E+02  0.21613520014E+01  0.47787282105E+02  0.20000050431E+02 0.  0.
         12    1    1    2    0    0 -0.38317806838E+02  0.20265649519E+02 -0.21613520014E+01  0.43400717895E+02  0.00000000000E+00 0. -1.
         11    1    3    3    0    0  0.25103266258E+02 -0.10314941537E+02  0.62047197265E+01  0.27840088773E+02  0.51100000000E-03 0. -1.
        -11    1    3    3    0    0  0.92308883236E+01 -0.16874465014E+01  0.10704458105E+01  0.94447143648E+01  0.51100000000E-03 0.  1.
        -12    1    3    3    0    0  0.39836522565E+01 -0.82632614805E+01 -0.51138135356E+01  0.10502478968E+02  0.00000000000E+00 0.  1.
</event>
<event>
 7    1  0.2328615E-009  0.4778727E+02  0.7816164E-02  0.1312668E+00
        -11   -1    0    0    0    0  0.00000000000E+00  0.00000000000E+00  0.45593999997E+02  0.45594000000E+02  0.51100000000E-03 0.  1.
         11   -1    0    0    0    0 -0.00000000000E+00 -0.00000000000E+00 -0.45593999997E+02  0.45594000000E+02  0.51100000000E-03 0. -1.
    9900012    2    1    2    0    0 -0.83552061054E+01 -0.27054849577E+02  0.32891473010E+02  0.47787270151E+02  0.19999995925E+02 0.  0.
         12    1    1    2    0    0  0.83552061054E+01  0.27054849577E+02 -0.32891473010E+02  0.43400729849E+02  0.00000000000E+00 0. -1.
         11    1    3    3    0    0 -0.31951477116E+01 -0.22476605026E+01  0.41398596079E+00  0.39284005996E+01  0.51100000000E-03 0. -1.
        -11    1    3    3    0    0 -0.50413912436E+01 -0.11626093180E+02  0.54620681610E+01  0.13799125231E+02  0.51100000000E-03 0.  1.
         12    1    3    3    0    0 -0.11866715022E+00 -0.13181095895E+02  0.27015418888E+02  0.30059744320E+02  0.00000000000E+00 0. -1.
</event>
<event>
 7    1  0.2328615E-009  0.4778727E+02  0.7816164E-02  0.1312668E+00
        -11   -1    0    0    0    0  0.00000000000E+00  0.00000000000E+00  0.45593999997E+02  0.45594000000E+02  0.51100000000E-03 0.  1.
         11   -1    0    0    0    0 -0.00000000000E+00 -0.00000000000E+00 -0.45593999997E+02  0.45594000000E+02  0.51100000000E-03 0. -1.
    9900012    2    1    2    0    0  0.30698303249E+02 -0.29723965677E+02 -0.75975832682E+01  0.47787271556E+02  0.20000002332E+02 0.  0.
         12    1    1    2    0    0 -0.30698303249E+02  0.29723965677E+02  0.75975832682E+01  0.43400728444E+02  0.00000000000E+00 0. -1.
         11    1    3    3    0    0  0.41479740866E+01  0.18134505251E+01 -0.18456247395E+01  0.48888263183E+01  0.51100000000E-03 0. -1.
        -11    1    3    3    0    0 -0.90681749289E+00 -0.19255202734E+01 -0.30206564100E+00  0.21496953741E+01  0.51100000000E-03 0.  1.
        -12    1    3    3    0    0  0.27457146656E+02 -0.29611895929E+02 -0.54498928877E+01  0.40748749864E+02  0.00000000000E+00 0.  1.
</event>
<event>
 7    1  0.2328615E-009  0.4778734E+02  0.7816164E-02  0.1312667E+00
        -11   -1    0    0    0    0  0.00000000000E+00  0.00000000000E+00  0.45593999997E+02  0.45594000000E+02  0.51100000000E-03 0.  1.
         11   -1    0    0    0    0 -0.00000000000E+00 -0.00000000000E+00 -0.45593999997E+02  0.45594000000E+02  0.51100000000E-03 0. -1.
    9900012    2    1    2    0    0  0.20537660134E+02  0.46289241840E+00  0.38230980578E+02  0.47787336075E+02  0.20000296499E+02 0.  0.
         12    1    1    2    0    0 -0.20537660134E+02 -0.46289241840E+00 -0.38230980578E+02  0.43400663925E+02  0.00000000000E+00 0. -1.
         11    1    3    3    0    0  0.19522602237E+00 -0.21291979796E+01  0.29114623250E+00  0.21578608913E+01  0.51100000000E-03 0.  1.
        -11    1    3    3    0    0  0.25753626073E+00  0.73490216540E-01 -0.13796509863E+01  0.14054048679E+01  0.51100000000E-03 0. -1.
        -12    1    3    3    0    0  0.20084897851E+02  0.25186001815E+01  0.39319485332E+02  0.44224070316E+02  0.00000000000E+00 0.  1.
</event>
<event>
 7    1  0.2328615E-009  0.4778727E+02  0.7816164E-02  0.1312668E+00
        -11   -1    0    0    0    0  0.00000000000E+00  0.00000000000E+00  0.45593999997E+02  0.45594000000E+02  0.51100000000E-03 0.  1.
         11   -1    0    0    0    0 -0.00000000000E+00 -0.00000000000E+00 -0.45593999997E+02  0.45594000000E+02  0.51100000000E-03 0. -1.
    9900012    2    1    2    0    0 -0.40598460729E+01  0.37111191496E+02  0.22133692999E+02  0.47787271318E+02  0.20000001247E+02 0.  0.
         12    1    1    2    0    0  0.40598460729E+01 -0.37111191496E+02 -0.22133692999E+02  0.43400728682E+02  0.00000000000E+00 0. -1.
         11    1    3    3    0    0 -0.28542062521E+01  0.30053323125E+01  0.19516655580E+01  0.45812131962E+01  0.51100000000E-03 0. -1.
        -11    1    3    3    0    0  0.62395430323E+01  0.50648483633E+01  0.25795739201E+01  0.84403073442E+01  0.51100000000E-03 0.  1.
        -12    1    3    3    0    0 -0.74451828530E+01  0.29041010820E+02  0.17602453521E+02  0.34765750777E+02  0.00000000000E+00 0.  1.
</event>
<event>
 7    1  0.2328615E-009  0.4778724E+02  0.7816164E-02  0.1312668E+00
        -11   -1    0    0    0    0  0.00000000000E+00  0.00000000000E+00  0.45593999997E+02  0.45594000000E+02  0.51100000000E-03 0. -1.
         11   -1    0    0    0    0 -0.00000000000E+00 -0.00000000000E+00 -0.45593999997E+02  0.45594000000E+02  0.51100000000E-03 0.  1.
    9900012    2    1    2    0    0  0.92559019955E+01 -0.25576971566E+02 -0.33819705111E+02  0.47787243670E+02  0.19999875189E+02 0.  0.
         12    1    1    2    0    0 -0.92559019955E+01  0.25576971566E+02  0.33819705111E+02  0.43400756330E+02  0.00000000000E+00 0. -1.
         11    1    3    3    0    0  0.14593890075E+02 -0.19732613797E+02 -0.22746310959E+02  0.33462700687E+02  0.51100000000E-03 0. -1.
        -11    1    3    3    0    0 -0.14789251027E-01 -0.79975939359E+00 -0.41925703002E+01  0.42681939732E+01  0.51100000000E-03 0.  1.
         12    1    3    3    0    0 -0.53231988282E+01 -0.50445983757E+01 -0.68808238514E+01  0.10056349010E+02  0.00000000000E+00 0. -1.
</event>
<event>
 7    1  0.2328615E-009  0.4778727E+02  0.7816164E-02  0.1312668E+00
        -11   -1    0    0    0    0  0.00000000000E+00  0.00000000000E+00  0.45593999997E+02  0.45594000000E+02  0.51100000000E-03 0. -1.
         11   -1    0    0    0    0 -0.00000000000E+00 -0.00000000000E+00 -0.45593999997E+02  0.45594000000E+02  0.51100000000E-03 0.  1.
    9900012    2    1    2    0    0 -0.21284248114E+02 -0.19905613350E+02 -0.32161631754E+02  0.47787271692E+02  0.20000002952E+02 0.  0.
         12    1    1    2    0    0  0.21284248114E+02  0.19905613350E+02  0.32161631754E+02  0.43400728308E+02  0.00000000000E+00 0. -1.
         11    1    3    3    0    0  0.13014405091E+01 -0.53273667421E+01 -0.11339744508E+02  0.12596205364E+02  0.51100000000E-03 0. -1.
        -11    1    3    3    0    0 -0.64261097057E+01 -0.49670936513E+01 -0.11829968268E+02  0.14349740582E+02  0.51100000000E-03 0.  1.
        -12    1    3    3    0    0 -0.16159578917E+02 -0.96111529564E+01 -0.89919189773E+01  0.20841325745E+02  0.00000000000E+00 0.  1.
</event>
<event>
 7    1  0.2328615E-009  0.4778727E+02  0.7816164E-02  0.1312668E+00
        -11   -1    0    0    0    0  0.00000000000E+00  0.00000000000E+00  0.45593999997E+02  0.45594000000E+02  0.51100000000E-03 0.  1.
         11   -1    0    0    0    0 -0.00000000000E+00 -0.00000000000E+00 -0.45593999997E+02  0.45594000000E+02  0.51100000000E-03 0. -1.
    9900012    2    1    2    0    0 -0.28316149457E+02 -0.99859080352E+01  0.31338481679E+02  0.47787272894E+02  0.20000008433E+02 0.  0.
         12    1    1    2    0    0  0.28316149457E+02  0.99859080352E+01 -0.31338481679E+02  0.43400727106E+02  0.00000000000E+00 0. -1.
         11    1    3    3    0    0  0.48282197965E+00  0.81739773890E+00 -0.13841759342E+01  0.16784514904E+01  0.51100000000E-03 0. -1.
        -11    1    3    3    0    0 -0.70334768709E+00  0.12057390527E+01  0.37519488515E+01  0.40032018532E+01  0.51100000000E-03 0.  1.
        -12    1    3    3    0    0 -0.28095623750E+02 -0.12009044827E+02  0.28970708762E+02  0.42105619550E+02  0.00000000000E+00 0.  1.
</event>
<event>
 7    1  0.2328615E-009  0.4778727E+02  0.7816164E-02  0.1312668E+00
        -11   -1    0    0    0    0  0.00000000000E+00  0.00000000000E+00  0.45593999997E+02  0.45594000000E+02  0.51100000000E-03 0. -1.
         11   -1    0    0    0    0 -0.00000000000E+00 -0.00000000000E+00 -0.45593999997E+02  0.45594000000E+02  0.51100000000E-03 0.  1.
    9900012    2    1    2    0    0  0.26581404560E+01  0.40019395631E+02  0.16583290642E+02  0.47787271136E+02  0.20000000419E+02 0.  0.
         12    1    1    2    0    0 -0.26581404560E+01 -0.40019395631E+02 -0.16583290642E+02  0.43400728864E+02  0.00000000000E+00 0. -1.
         11    1    3    3    0    0  0.12043215336E+01  0.28302359556E+01  0.75920001301E+01  0.81914035523E+01  0.51100000000E-03 0. -1.
        -11    1    3    3    0    0 -0.37520199978E+01  0.12927706682E+02  0.54846455108E+01  0.14535631763E+02  0.51100000000E-03 0.  1.
        -12    1    3    3    0    0  0.52058389201E+01  0.24261452994E+02  0.35066450010E+01  0.25060235821E+02  0.00000000000E+00 0.  1.
</event>
<event>
 7    1  0.2350234E-009  0.4778728E+02  0.7816164E-02  0.1312668E+00
        -11   -1    0    0    0    0  0.00000000000E+00  0.00000000000E+00  0.45593999997E+02  0.45594000000E+02  0.51100000000E-03 0. -1.
         11   -1    0    0    0    0 -0.00000000000E+00 -0.00000000000E+00 -0.45593999997E+02  0.45594000000E+02  0.51100000000E-03 0.  1.
    9900012    2    1    2    0    0 -0.48978073886E+01  0.61471477021E+01 -0.42683099087E+02  0.47787275470E+02  0.20000020178E+02 0.  0.
         12    1    1    2    0    0  0.48978073886E+01 -0.61471477021E+01  0.42683099087E+02  0.43400724530E+02  0.00000000000E+00 0. -1.
         11    1    3    3    0    0 -0.34268471449E+01 -0.20933199604E+01 -0.49149789946E+01  0.63468329575E+01  0.51100000000E-03 0. -1.
        -11    1    3    3    0    0 -0.59091552953E+01  0.42532423104E+01 -0.33026577413E+02  0.33819565378E+02  0.51100000000E-03 0.  1.
        -12    1    3    3    0    0  0.44381950516E+01  0.39872253521E+01 -0.47415426787E+01  0.76208771345E+01  0.00000000000E+00 0.  1.
</event>
<event>
 7    1  0.2328615E-009  0.4778727E+02  0.7816164E-02  0.1312668E+00
        -11   -1    0    0    0    0  0.00000000000E+00  0.00000000000E+00  0.45593999997E+02  0.45594000000E+02  0.51100000000E-03 0.  1.
         11   -1    0    0    0    0 -0.00000000000E+00 -0.00000000000E+00 -0.45593999997E+02  0.45594000000E+02  0.51100000000E-03 0. -1.
    9900012    2    1    2    0    0  0.89836254599E+01  0.36543908920E+01  0.42303226366E+02  0.47787273506E+02  0.20000011224E+02 0.  0.
         12    1    1    2    0    0 -0.89836254599E+01 -0.36543908920E+01 -0.42303226366E+02  0.43400726494E+02  0.00000000000E+00 0. -1.
         11    1    3    3    0    0  0.10265469269E+02  0.25958138144E+01  0.13769777499E+02  0.17370229742E+02  0.51100000000E-03 0. -1.
        -11    1    3    3    0    0  0.24316583886E+01 -0.28933896509E+01  0.50050272140E+01  0.62717592320E+01  0.51100000000E-03 0.  1.
        -12    1    3    3    0    0 -0.37135021981E+01  0.39519667285E+01  0.23528421654E+02  0.24145284532E+02  0.00000000000E+00 0.  1.
</event>
<event>
 7    1  0.2328615E-009  0.4778727E+02  0.7816164E-02  0.1312668E+00
        -11   -1    0    0    0    0  0.00000000000E+00  0.00000000000E+00  0.45593999997E+02  0.45594000000E+02  0.51100000000E-03 0. -1.
         11   -1    0    0    0    0 -0.00000000000E+00 -0.00000000000E+00 -0.45593999997E+02  0.45594000000E+02  0.51100000000E-03 0.  1.
    9900012    2    1    2    0    0 -0.43087974687E+02 -0.48330696535E+00 -0.51784235225E+01  0.47787271683E+02  0.20000002912E+02 0.  0.
         12    1    1    2    0    0  0.43087974687E+02  0.48330696535E+00  0.51784235225E+01  0.43400728317E+02  0.00000000000E+00 0. -1.
         11    1    3    3    0    0 -0.85950856132E+00  0.27239698454E+00 -0.21067312263E+01  0.22915653613E+01  0.51100000000E-03 0. -1.
        -11    1    3    3    0    0 -0.34452804226E+02 -0.59710929539E+01 -0.64226162457E+01  0.35551366637E+02  0.51100000000E-03 0.  1.
        -12    1    3    3    0    0 -0.77756619001E+01  0.52153890040E+01  0.33509239495E+01  0.99443396847E+01  0.00000000000E+00 0.  1.
</event>
<event>
 7    1  0.2328615E-009  0.4778728E+02  0.7816164E-02  0.1312668E+00
        -11   -1    0    0    0    0  0.00000000000E+00  0.00000000000E+00  0.45593999997E+02  0.45594000000E+02  0.51100000000E-03 0.  1.
         11   -1    0    0    0    0 -0.00000000000E+00 -0.00000000000E+00 -0.45593999997E+02  0.45594000000E+02  0.51100000000E-03 0. -1.
    9900012    2    1    2    0    0 -0.20187484056E+02 -0.38419830226E+02  0.69209790721E-01  0.47787278150E+02  0.20000032397E+02 0.  0.
         12    1    1    2    0    0  0.20187484056E+02  0.38419830226E+02 -0.69209790721E-01  0.43400721850E+02  0.00000000000E+00 0. -1.
         11    1    3    3    0    0 -0.16204322778E+02 -0.16644656326E+02 -0.40716288748E+01  0.23583952655E+02  0.51100000000E-03 0. -1.
        -11    1    3    3    0    0  0.26866783212E+00 -0.25281326554E+01  0.36975511894E+01  0.44872622150E+01  0.51100000000E-03 0.  1.
        -12    1    3    3    0    0 -0.42518291111E+01 -0.19247041245E+02  0.44328747608E+00  0.19716063280E+02  0.00000000000E+00 0.  1.
</event>
<event>
 7    1  0.2328615E-009  0.4778727E+02  0.7816164E-02  0.1312668E+00
        -11   -1    0    0    0    0  0.00000000000E+00  0.00000000000E+00  0.45593999997E+02  0.45594000000E+02  0.51100000000E-03 0. -1.
         11   -1    0    0    0    0 -0.00000000000E+00 -0.00000000000E+00 -0.45593999997E+02  0.45594000000E+02  0.51100000000E-03 0.  1.
    9900012    2    1    2    0    0  0.33399222445E+01  0.42112623178E+02 -0.99496383078E+01  0.47787269430E+02  0.19999992641E+02 0.  0.
         12    1    1    2    0    0 -0.33399222445E+01 -0.42112623178E+02  0.99496383078E+01  0.43400730570E+02  0.00000000000E+00 0. -1.
         11    1    3    3    0    0 -0.35521300081E+01  0.26555742375E+02  0.60603942086E+00  0.26799111267E+02  0.51100000000E-03 0. -1.
        -11    1    3    3    0    0  0.20801185020E+01  0.10876385121E+02 -0.45185052701E+01  0.11959913730E+02  0.51100000000E-03 0.  1.
         12    1    3    3    0    0  0.48119337507E+01  0.46804956815E+01 -0.60371724586E+01  0.90282444329E+01  0.00000000000E+00 0. -1.
</event>
<event>
 7    1  0.2328615E-009  0.4778727E+02  0.7816164E-02  0.1312668E+00
        -11   -1    0    0    0    0  0.00000000000E+00  0.00000000000E+00  0.45593999997E+02  0.45594000000E+02  0.51100000000E-03 0.  1.
         11   -1    0    0    0    0 -0.00000000000E+00 -0.00000000000E+00 -0.45593999997E+02  0.45594000000E+02  0.51100000000E-03 0. -1.
    9900012    2    1    2    0    0 -0.11549399624E+02  0.40383636415E+02  0.10926863354E+02  0.47787273456E+02  0.20000010996E+02 0.  0.
         12    1    1    2    0    0  0.11549399624E+02 -0.40383636415E+02 -0.10926863354E+02  0.43400726544E+02  0.00000000000E+00 0. -1.
         11    1    3    3    0    0 -0.87020714411E+01  0.10925790656E+02  0.89171666679E+01  0.16571505981E+02  0.51100000000E-03 0. -1.
        -11    1    3    3    0    0 -0.39225207648E+01  0.18943128425E+02  0.54541106976E+01  0.20099144445E+02  0.51100000000E-03 0.  1.
         12    1    3    3    0    0  0.10751925815E+01  0.10514717334E+02 -0.34444140120E+01  0.11116623030E+02  0.00000000000E+00 0. -1.
</event>
<event>
 7    1  0.2328615E-009  0.4778727E+02  0.7816164E-02  0.1312668E+00
        -11   -1    0    0    0    0  0.00000000000E+00  0.00000000000E+00  0.45593999997E+02  0.45594000000E+02  0.51100000000E-03 0.  1.
         11   -1    0    0    0    0 -0.00000000000E+00 -0.00000000000E+00 -0.45593999997E+02  0.45594000000E+02  0.51100000000E-03 0. -1.
    9900012    2    1    2    0    0  0.20717193582E+02 -0.30954265136E+02  0.22276768338E+02  0.47787273651E+02  0.20000011884E+02 0.  0.
         12    1    1    2    0    0 -0.20717193582E+02  0.30954265136E+02 -0.22276768338E+02  0.43400726349E+02  0.00000000000E+00 0. -1.
         11    1    3    3    0    0  0.26644158908E+01  0.15271309079E+01  0.25047270690E+01  0.39629406759E+01  0.51100000000E-03 0. -1.
        -11    1    3    3    0    0  0.56799272141E+01 -0.69171494948E+01 -0.44677041448E+00  0.89614805894E+01  0.51100000000E-03 0.  1.
        -12    1    3    3    0    0  0.12372850477E+02 -0.25564246549E+02  0.20218811684E+02  0.34862852386E+02  0.00000000000E+00 0.  1.
</event>
<event>
 7    1  0.2328615E-009  0.4778731E+02  0.7816164E-02  0.1312668E+00
        -11   -1    0    0    0    0  0.00000000000E+00  0.00000000000E+00  0.45593999997E+02  0.45594000000E+02  0.51100000000E-03 0. -1.
         11   -1    0    0    0    0 -0.00000000000E+00 -0.00000000000E+00 -0.45593999997E+02  0.45594000000E+02  0.51100000000E-03 0.  1.
    9900012    2    1    2    0    0 -0.26234798836E+02 -0.15392447018E+02 -0.30958480122E+02  0.47787313523E+02  0.20000193676E+02 0.  0.
         12    1    1    2    0    0  0.26234798836E+02  0.15392447018E+02  0.30958480122E+02  0.43400686477E+02  0.00000000000E+00 0. -1.
         11    1    3    3    0    0 -0.95069818649E+01 -0.35602495093E+01 -0.67189008022E+01  0.12173812427E+02  0.51100000000E-03 0. -1.
        -11    1    3    3    0    0 -0.16614167388E+02 -0.34306572157E+01 -0.12050392613E+02  0.20808938688E+02  0.51100000000E-03 0.  1.
        -12    1    3    3    0    0 -0.11364958332E+00 -0.84015402932E+01 -0.12189186707E+02  0.14804562408E+02  0.00000000000E+00 0.  1.
</event>
<event>
 7    1  0.2328615E-009  0.4778728E+02  0.7816164E-02  0.1312668E+00
        -11   -1    0    0    0    0  0.00000000000E+00  0.00000000000E+00  0.45593999997E+02  0.45594000000E+02  0.51100000000E-03 0.  1.
         11   -1    0    0    0    0 -0.00000000000E+00 -0.00000000000E+00 -0.45593999997E+02  0.45594000000E+02  0.51100000000E-03 0. -1.
    9900012    2    1    2    0    0  0.48121635155E+01  0.23915812362E+02  0.35895679122E+02  0.47787276754E+02  0.20000026033E+02 0.  0.
         12    1    1    2    0    0 -0.48121635155E+01 -0.23915812362E+02 -0.35895679122E+02  0.43400723246E+02  0.00000000000E+00 0. -1.
         11    1    3    3    0    0 -0.14577526314E+01  0.73582285782E+00 -0.96395235436E+00  0.18962284712E+01  0.51100000000E-03 0. -1.
        -11    1    3    3    0    0 -0.11518884947E+01 -0.31996374943E+00  0.73397410467E+01  0.74364657465E+01  0.51100000000E-03 0.  1.
         12    1    3    3    0    0  0.74218046417E+01  0.23499953254E+02  0.29519890430E+02  0.38454582536E+02  0.00000000000E+00 0. -1.
</event>
<event>
 7    1  0.2328615E-009  0.4778727E+02  0.7816164E-02  0.1312668E+00
        -11   -1    0    0    0    0  0.00000000000E+00  0.00000000000E+00  0.45593999997E+02  0.45594000000E+02  0.51100000000E-03 0.  1.
         11   -1    0    0    0    0 -0.00000000000E+00 -0.00000000000E+00 -0.45593999997E+02  0.45594000000E+02  0.51100000000E-03 0. -1.
    9900012    2    1    2    0    0  0.15645246988E+02  0.24212981524E+02  0.32443505885E+02  0.47787270724E+02  0.19999998540E+02 0.  0.
         12    1    1    2    0    0 -0.15645246988E+02 -0.24212981524E+02 -0.32443505885E+02  0.43400729276E+02  0.00000000000E+00 0. -1.
         11    1    3    3    0    0  0.60202237877E+00  0.61594071064E+01  0.39983837391E+00  0.62016608931E+01  0.51100000000E-03 0. -1.
        -11    1    3    3    0    0 -0.13495065870E+01 -0.34534923041E+00  0.34460631716E+00  0.14349870711E+01  0.51100000000E-03 0.  1.
        -12    1    3    3    0    0  0.16392731196E+02  0.18398923648E+02  0.31699061193E+02  0.40150622760E+02  0.00000000000E+00 0.  1.
</event>
<event>
 7    1  0.2328615E-009  0.4778727E+02  0.7816164E-02  0.1312668E+00
        -11   -1    0    0    0    0  0.00000000000E+00  0.00000000000E+00  0.45593999997E+02  0.45594000000E+02  0.51100000000E-03 0.  1.
         11   -1    0    0    0    0 -0.00000000000E+00 -0.00000000000E+00 -0.45593999997E+02  0.45594000000E+02  0.51100000000E-03 0. -1.
    9900012    2    1    2    0    0 -0.80013613450E+01  0.31046427633E+02  0.29252707350E+02  0.47787270288E+02  0.19999996553E+02 0.  0.
         12    1    1    2    0    0  0.80013613450E+01 -0.31046427633E+02 -0.29252707350E+02  0.43400729712E+02  0.00000000000E+00 0. -1.
         11    1    3    3    0    0  0.23455081564E+01  0.24156609932E+01  0.91012334100E+01  0.97040855514E+01  0.51100000000E-03 0. -1.
        -11    1    3    3    0    0 -0.61302620915E+01  0.55607540507E+01  0.86168871450E+01  0.11947922131E+02  0.51100000000E-03 0.  1.
        -12    1    3    3    0    0 -0.42166074099E+01  0.23070012590E+02  0.11534586795E+02  0.26135262606E+02  0.00000000000E+00 0.  1.
</event>
<event>
 7    1  0.2328615E-009  0.4778728E+02  0.7816164E-02  0.1312668E+00
        -11   -1    0    0    0    0  0.00000000000E+00  0.00000000000E+00  0.45593999997E+02  0.45594000000E+02  0.51100000000E-03 0.  1.
         11   -1    0    0    0    0 -0.00000000000E+00 -0.00000000000E+00 -0.45593999997E+02  0.45594000000E+02  0.51100000000E-03 0. -1.
    9900012    2    1    2    0    0 -0.15556295441E+02  0.37727179249E+02  0.14774446269E+02  0.47787278296E+02  0.20000033061E+02 0.  0.
         12    1    1    2    0    0  0.15556295441E+02 -0.37727179249E+02 -0.14774446269E+02  0.43400721704E+02  0.00000000000E+00 0. -1.
         11    1    3    3    0    0 -0.29441255322E+01 -0.29613553044E+00 -0.15796425128E+00  0.29631949594E+01  0.51100000000E-03 0. -1.
        -11    1    3    3    0    0  0.19966654682E+01  0.13321400258E+02  0.61832899888E+01  0.14821587404E+02  0.51100000000E-03 0.  1.
        -12    1    3    3    0    0 -0.14608835378E+02  0.24701914521E+02  0.87491205312E+01  0.30002495932E+02  0.00000000000E+00 0.  1.
</event>
<event>
 7    1  0.2328615E-009  0.4778727E+02  0.7816164E-02  0.1312668E+00
        -11   -1    0    0    0    0  0.00000000000E+00  0.00000000000E+00  0.45593999997E+02  0.45594000000E+02  0.51100000000E-03 0.  1.
         11   -1    0    0    0    0 -0.00000000000E+00 -0.00000000000E+00 -0.45593999997E+02  0.45594000000E+02  0.51100000000E-03 0. -1.
    9900012    2    1    2    0    0 -0.10675026155E+01 -0.30739447429E+02  0.30619768443E+02  0.47787269482E+02  0.19999992875E+02 0.  0.
         12    1    1    2    0    0  0.10675026155E+01  0.30739447429E+02 -0.30619768443E+02  0.43400730518E+02  0.00000000000E+00 0. -1.
         11    1    3    3    0    0  0.51587060321E+00 -0.16410678624E+00  0.10177887105E+02  0.10192273529E+02  0.51100000000E-03 0. -1.
        -11    1    3    3    0    0 -0.27771689158E+01 -0.39578277009E+01  0.40925661004E+01  0.63345216745E+01  0.51100000000E-03 0.  1.
        -12    1    3    3    0    0  0.11937956971E+01 -0.26617512941E+02  0.16349315238E+02  0.31260474278E+02  0.00000000000E+00 0.  1.
</event>
<event>
 7    1  0.2328615E-009  0.4778727E+02  0.7816164E-02  0.1312668E+00
        -11   -1    0    0    0    0  0.00000000000E+00  0.00000000000E+00  0.45593999997E+02  0.45594000000E+02  0.51100000000E-03 0. -1.
         11   -1    0    0    0    0 -0.00000000000E+00 -0.00000000000E+00 -0.45593999997E+02  0.45594000000E+02  0.51100000000E-03 0.  1.
    9900012    2    1    2    0    0 -0.39812839900E+02  0.13260329463E+02  0.11078112141E+02  0.47787272736E+02  0.20000007715E+02 0.  0.
         12    1    1    2    0    0  0.39812839900E+02 -0.13260329463E+02 -0.11078112141E+02  0.43400727264E+02  0.00000000000E+00 0. -1.
         11    1    3    3    0    0 -0.25167908292E+02  0.58863176211E+01  0.14347349601E+02  0.29562117376E+02  0.51100000000E-03 0. -1.
        -11    1    3    3    0    0  0.46176669234E+00 -0.57168877289E+00 -0.60025018344E+00  0.94887147446E+00  0.51100000000E-03 0.  1.
        -12    1    3    3    0    0 -0.15106698301E+02  0.79457006148E+01 -0.26689872773E+01  0.17276283886E+02  0.00000000000E+00 0.  1.
</event>
<event>
 7    1  0.2331486E-009  0.4778727E+02  0.7816164E-02  0.1312668E+00
        -11   -1    0    0    0    0  0.00000000000E+00  0.00000000000E+00  0.45593999997E+02  0.45594000000E+02  0.51100000000E-03 0. -1.
         11   -1    0    0    0    0 -0.00000000000E+00 -0.00000000000E+00 -0.45593999997E+02  0.45594000000E+02  0.51100000000E-03 0.  1.
    9900012    2    1    2    0    0 -0.36708723770E+01  0.41594403890E+02 -0.11834412963E+02  0.47787273403E+02  0.20000010755E+02 0.  0.
         12    1    1    2    0    0  0.36708723770E+01 -0.41594403890E+02  0.11834412963E+02  0.43400726597E+02  0.00000000000E+00 0. -1.
         11    1    3    3    0    0  0.36452527445E+01  0.67419436297E+01  0.25577758298E+01  0.80798446108E+01  0.51100000000E-03 0. -1.
        -11    1    3    3    0    0  0.60201706324E+00  0.18762238864E+02 -0.48253452416E+01  0.19382156451E+02  0.51100000000E-03 0.  1.
        -12    1    3    3    0    0 -0.79181421847E+01  0.16090221396E+02 -0.95668435507E+01  0.20325272342E+02  0.00000000000E+00 0.  1.
</event>
<event>
 7    1  0.2328615E-009  0.4778727E+02  0.7816164E-02  0.1312668E+00
        -11   -1    0    0    0    0  0.00000000000E+00  0.00000000000E+00  0.45593999997E+02  0.45594000000E+02  0.51100000000E-03 0. -1.
         11   -1    0    0    0    0 -0.00000000000E+00 -0.00000000000E+00 -0.45593999997E+02  0.45594000000E+02  0.51100000000E-03 0.  1.
    9900012    2    1    2    0    0 -0.31297483989E+02  0.20630679377E+02 -0.21873862844E+02  0.47787270613E+02  0.19999998032E+02 0.  0.
         12    1    1    2    0    0  0.31297483989E+02 -0.20630679377E+02  0.21873862844E+02  0.43400729387E+02  0.00000000000E+00 0. -1.
         11    1    3    3    0    0 -0.81263924079E+01  0.85815859985E+01 -0.29756695135E+01  0.12187554354E+02  0.51100000000E-03 0. -1.
        -11    1    3    3    0    0 -0.24225602961E+02  0.88342125031E+01 -0.13189065011E+02  0.28963331741E+02  0.51100000000E-03 0.  1.
         12    1    3    3    0    0  0.10545113807E+01  0.32148808758E+01 -0.57091283202E+01  0.66363845183E+01  0.00000000000E+00 0. -1.
</event>
<event>
 7    1  0.2328615E-009  0.4778727E+02  0.7816164E-02  0.1312668E+00
        -11   -1    0    0    0    0  0.00000000000E+00  0.00000000000E+00  0.45593999997E+02  0.45594000000E+02  0.51100000000E-03 0.  1.
         11   -1    0    0    0    0 -0.00000000000E+00 -0.00000000000E+00 -0.45593999997E+02  0.45594000000E+02  0.51100000000E-03 0. -1.
    9900012    2    1    2    0    0  0.39310865433E+01  0.37145089358E+02  0.22100051608E+02  0.47787269753E+02  0.19999994114E+02 0.  0.
         12    1    1    2    0    0 -0.39310865433E+01 -0.37145089358E+02 -0.22100051608E+02  0.43400730247E+02  0.00000000000E+00 0. -1.
         11    1    3    3    0    0  0.30927415243E+01  0.10617684146E+01 -0.18339774789E+01  0.37491166902E+01  0.51100000000E-03 0. -1.
        -11    1    3    3    0    0  0.78299358876E+00  0.38274923595E+01  0.58261715677E-01  0.39071948263E+01  0.51100000000E-03 0.  1.
        -12    1    3    3    0    0  0.55351430169E-01  0.32255828584E+02  0.23875767372E+02  0.40130958237E+02  0.00000000000E+00 0.  1.
</event>
<event>
 7    1  0.2328615E-009  0.4778727E+02  0.7816164E-02  0.1312668E+00
        -11   -1    0    0    0    0  0.00000000000E+00  0.00000000000E+00  0.45593999997E+02  0.45594000000E+02  0.51100000000E-03 0. -1.
         11   -1    0    0    0    0 -0.00000000000E+00 -0.00000000000E+00 -0.45593999997E+02  0.45594000000E+02  0.51100000000E-03 0.  1.
    9900012    2    1    2    0    0 -0.71452955186E+01  0.56051013525E+01 -0.42439966157E+02  0.47787272625E+02  0.20000007208E+02 0.  0.
         12    1    1    2    0    0  0.71452955186E+01 -0.56051013525E+01  0.42439966157E+02  0.43400727375E+02  0.00000000000E+00 0. -1.
         11    1    3    3    0    0 -0.12575527726E+01  0.24580274428E+01 -0.40667261395E+01  0.49154450094E+01  0.51100000000E-03 0. -1.
        -11    1    3    3    0    0  0.74419079779E+00 -0.16767243214E+01 -0.33036815877E+02  0.33087708110E+02  0.51100000000E-03 0.  1.
        -12    1    3    3    0    0 -0.66319335437E+01  0.48237982310E+01 -0.53364241403E+01  0.97841195060E+01  0.00000000000E+00 0.  1.
</event>
<event>
 7    1  0.2328615E-009  0.4778727E+02  0.7816164E-02  0.1312668E+00
        -11   -1    0    0    0    0  0.00000000000E+00  0.00000000000E+00  0.45593999997E+02  0.45594000000E+02  0.51100000000E-03 0.  1.
         11   -1    0    0    0    0 -0.00000000000E+00 -0.00000000000E+00 -0.45593999997E+02  0.45594000000E+02  0.51100000000E-03 0. -1.
    9900012    2    1    2    0    0  0.38899563725E+01  0.65910664705E+01  0.42720597632E+02  0.47787269824E+02  0.19999994435E+02 0.  0.
         12    1    1    2    0    0 -0.38899563725E+01 -0.65910664705E+01 -0.42720597632E+02  0.43400730176E+02  0.00000000000E+00 0. -1.
         11    1    3    3    0    0  0.58218063753E+01  0.54733296081E+01  0.11262862769E+02  0.13809520067E+02  0.51100000000E-03 0. -1.
        -11    1    3    3    0    0  0.30255556570E+01  0.80054381575E+00  0.27359365637E+02  0.27537787597E+02  0.51100000000E-03 0.  1.
         12    1    3    3    0    0 -0.49574056598E+01  0.31719304658E+00  0.40983692254E+01  0.64399621592E+01  0.00000000000E+00 0. -1.
</event>
<event>
 7    1  0.2328615E-009  0.4778726E+02  0.7816164E-02  0.1312668E+00
        -11   -1    0    0    0    0  0.00000000000E+00  0.00000000000E+00  0.45593999997E+02  0.45594000000E+02  0.51100000000E-03 0. -1.
         11   -1    0    0    0    0 -0.00000000000E+00 -0.00000000000E+00 -0.45593999997E+02  0.45594000000E+02  0.51100000000E-03 0.  1.
    9900012    2    1    2    0    0 -0.33398186213E+02  0.99161762021E+01 -0.25881545973E+02  0.47787264814E+02  0.19999971592E+02 0.  0.
         12    1    1    2    0    0  0.33398186213E+02 -0.99161762021E+01  0.25881545973E+02  0.43400735186E+02  0.00000000000E+00 0. -1.
         11    1    3    3    0    0 -0.12434948327E+02  0.56296183518E+01 -0.47247358385E+01  0.14444503165E+02  0.51100000000E-03 0. -1.
        -11    1    3    3    0    0 -0.74636136558E+01  0.87619389890E+01 -0.85584364984E+01  0.14343079837E+02  0.51100000000E-03 0.  1.
        -12    1    3    3    0    0 -0.13499624229E+02 -0.44753811387E+01 -0.12598373636E+02  0.18999681812E+02  0.00000000000E+00 0.  1.
</event>
<event>
 7    1  0.2328615E-009  0.4778727E+02  0.7816164E-02  0.1312668E+00
        -11   -1    0    0    0    0  0.00000000000E+00  0.00000000000E+00  0.45593999997E+02  0.45594000000E+02  0.51100000000E-03 0. -1.
         11   -1    0    0    0    0 -0.00000000000E+00 -0.00000000000E+00 -0.45593999997E+02  0.45594000000E+02  0.51100000000E-03 0.  1.
    9900012    2    1    2    0    0  0.29541314943E+02 -0.26594965535E+02 -0.17425314342E+02  0.47787273505E+02  0.20000011221E+02 0.  0.
         12    1    1    2    0    0 -0.29541314943E+02  0.26594965535E+02  0.17425314342E+02  0.43400726495E+02  0.00000000000E+00 0. -1.
         11    1    3    3    0    0  0.23717334017E+00 -0.63644860818E+01 -0.35595665161E+00  0.63788431300E+01  0.51100000000E-03 0.  1.
        -11    1    3    3    0    0  0.91696027667E+01 -0.37648983392E+01  0.65423073607E+00  0.99339867385E+01  0.51100000000E-03 0. -1.
        -12    1    3    3    0    0  0.20134538836E+02 -0.16465581114E+02 -0.17723588427E+02  0.31474443637E+02  0.00000000000E+00 0.  1.
</event>
<event>
 7    1  0.2328615E-009  0.4778727E+02  0.7816164E-02  0.1312668E+00
        -11   -1    0    0    0    0  0.00000000000E+00  0.00000000000E+00  0.45593999997E+02  0.45594000000E+02  0.51100000000E-03 0. -1.
         11   -1    0    0    0    0 -0.00000000000E+00 -0.00000000000E+00 -0.45593999997E+02  0.45594000000E+02  0.51100000000E-03 0.  1.
    9900012    2    1    2    0    0  0.49850520330E+00 -0.33240863853E+02 -0.27900174438E+02  0.47787271080E+02  0.20000000161E+02 0.  0.
         12    1    1    2    0    0 -0.49850520330E+00  0.33240863853E+02  0.27900174438E+02  0.43400728920E+02  0.00000000000E+00 0. -1.
         11    1    3    3    0    0 -0.40866054527E+01 -0.72092051642E+01 -0.76431097430E+01  0.11273424947E+02  0.51100000000E-03 0. -1.
        -11    1    3    3    0    0 -0.39455280725E+01 -0.10737416160E+02 -0.27796005228E+01  0.11772233301E+02  0.51100000000E-03 0.  1.
        -12    1    3    3    0    0  0.85306387285E+01 -0.15294242529E+02 -0.17477464172E+02  0.24741612832E+02  0.00000000000E+00 0.  1.
</event>
<event>
 7    1  0.2328615E-009  0.4778726E+02  0.7816164E-02  0.1312668E+00
        -11   -1    0    0    0    0  0.00000000000E+00  0.00000000000E+00  0.45593999997E+02  0.45594000000E+02  0.51100000000E-03 0. -1.
         11   -1    0    0    0    0 -0.00000000000E+00 -0.00000000000E+00 -0.45593999997E+02  0.45594000000E+02  0.51100000000E-03 0.  1.
    9900012    2    1    2    0    0 -0.13497415984E+02  0.38418814532E+02  0.15014606727E+02  0.47787263100E+02  0.19999963780E+02 0.  0.
         12    1    1    2    0    0  0.13497415984E+02 -0.38418814532E+02 -0.15014606727E+02  0.43400736900E+02  0.00000000000E+00 0. -1.
         11    1    3    3    0    0  0.35521476844E+01  0.28789808885E+01  0.30047531973E+01  0.54712728104E+01  0.51100000000E-03 0. -1.
        -11    1    3    3    0    0 -0.47381897695E+01  0.19576852692E+02  0.84607536991E+01  0.21846920996E+02  0.51100000000E-03 0.  1.
         12    1    3    3    0    0 -0.12311373899E+02  0.15962980952E+02  0.35490998303E+01  0.20469069294E+02  0.00000000000E+00 0. -1.
</event>
<event>
 7    1  0.2328615E-009  0.4778727E+02  0.7816164E-02  0.1312668E+00
        -11   -1    0    0    0    0  0.00000000000E+00  0.00000000000E+00  0.45593999997E+02  0.45594000000E+02  0.51100000000E-03 0. -1.
         11   -1    0    0    0    0 -0.00000000000E+00 -0.00000000000E+00 -0.45593999997E+02  0.45594000000E+02  0.51100000000E-03 0.  1.
    9900012    2    1    2    0    0  0.43119156779E+02 -0.43418757406E+01  0.23472628573E+01  0.47787271789E+02  0.20000003396E+02 0.  0.
         12    1    1    2    0    0 -0.43119156779E+02  0.43418757406E+01 -0.23472628573E+01  0.43400728211E+02  0.00000000000E+00 0. -1.
         11    1    3    3    0    0  0.70397497641E+00 -0.27198732791E+00  0.16849115532E+01  0.18462082973E+01  0.51100000000E-03 0. -1.
        -11    1    3    3    0    0  0.33636060082E+02  0.24450416421E+01 -0.41825997335E+01  0.33983185655E+02  0.51100000000E-03 0.  1.
        -12    1    3    3    0    0  0.87791217209E+01 -0.65149300548E+01  0.48449510376E+01  0.11957877837E+02  0.00000000000E+00 0.  1.
</event>
<event>
 7    1  0.2328615E-009  0.4778727E+02  0.7816164E-02  0.1312668E+00
        -11   -1    0    0    0    0  0.00000000000E+00  0.00000000000E+00  0.45593999997E+02  0.45594000000E+02  0.51100000000E-03 0.  1.
         11   -1    0    0    0    0 -0.00000000000E+00 -0.00000000000E+00 -0.45593999997E+02  0.45594000000E+02  0.51100000000E-03 0. -1.
    9900012    2    1    2    0    0 -0.36629047174E+02  0.19746516335E+02  0.12329294536E+02  0.47787268347E+02  0.19999987701E+02 0.  0.
         12    1    1    2    0    0  0.36629047174E+02 -0.19746516335E+02 -0.12329294536E+02  0.43400731653E+02  0.00000000000E+00 0. -1.
         11    1    3    3    0    0 -0.18830990948E+02  0.11844827637E+02  0.19186010680E+01  0.22329066083E+02  0.51100000000E-03 0. -1.
        -11    1    3    3    0    0 -0.77275415185E+01  0.10135766566E+02  0.72806018584E+01  0.14678413589E+02  0.51100000000E-03 0.  1.
         12    1    3    3    0    0 -0.10070514708E+02 -0.22340778671E+01  0.31300916094E+01  0.10779788675E+02  0.00000000000E+00 0. -1.
</event>
<event>
 7    1  0.2328615E-009  0.4778727E+02  0.7816164E-02  0.1312668E+00
        -11   -1    0    0    0    0  0.00000000000E+00  0.00000000000E+00  0.45593999997E+02  0.45594000000E+02  0.51100000000E-03 0.  1.
         11   -1    0    0    0    0 -0.00000000000E+00 -0.00000000000E+00 -0.45593999997E+02  0.45594000000E+02  0.51100000000E-03 0. -1.
    9900012    2    1    2    0    0  0.16383843039E+02 -0.16139274810E+02  0.36806477292E+02  0.47787271034E+02  0.19999999952E+02 0.  0.
         12    1    1    2    0    0 -0.16383843039E+02  0.16139274810E+02 -0.36806477292E+02  0.43400728966E+02  0.00000000000E+00 0. -1.
         11    1    3    3    0    0  0.62398334535E+01 -0.65804057528E+01  0.50349515314E+01  0.10372463477E+02  0.51100000000E-03 0. -1.
        -11    1    3    3    0    0  0.81201682690E+01 -0.11451642020E+02  0.15513711843E+02  0.20922535532E+02  0.51100000000E-03 0.  1.
        -12    1    3    3    0    0  0.20238413168E+01  0.18927729629E+01  0.16257813918E+02  0.16492272025E+02  0.00000000000E+00 0.  1.
</event>
<event>
 7    1  0.2328615E-009  0.4778727E+02  0.7816164E-02  0.1312668E+00
        -11   -1    0    0    0    0  0.00000000000E+00  0.00000000000E+00  0.45593999997E+02  0.45594000000E+02  0.51100000000E-03 0. -1.
         11   -1    0    0    0    0 -0.00000000000E+00 -0.00000000000E+00 -0.45593999997E+02  0.45594000000E+02  0.51100000000E-03 0.  1.
    9900012    2    1    2    0    0 -0.17374346637E+02  0.13630558711E+02 -0.37362591928E+02  0.47787270427E+02  0.19999997185E+02 0.  0.
         12    1    1    2    0    0  0.17374346637E+02 -0.13630558711E+02  0.37362591928E+02  0.43400729573E+02  0.00000000000E+00 0. -1.
         11    1    3    3    0    0 -0.55879278855E+01  0.60005502048E+01 -0.17841026417E+02  0.19635013743E+02  0.51100000000E-03 0. -1.
        -11    1    3    3    0    0 -0.13618302919E+01 -0.35575216244E+01 -0.84636355526E+01  0.92813613700E+01  0.51100000000E-03 0.  1.
         12    1    3    3    0    0 -0.10424588460E+02  0.11187530131E+02 -0.11057929959E+02  0.18870895314E+02  0.00000000000E+00 0. -1.
</event>
<event>
 7    1  0.2328615E-009  0.4778727E+02  0.7816164E-02  0.1312668E+00
        -11   -1    0    0    0    0  0.00000000000E+00  0.00000000000E+00  0.45593999997E+02  0.45594000000E+02  0.51100000000E-03 0.  1.
         11   -1    0    0    0    0 -0.00000000000E+00 -0.00000000000E+00 -0.45593999997E+02  0.45594000000E+02  0.51100000000E-03 0. -1.
    9900012    2    1    2    0    0 -0.12743050321E+01 -0.35818805752E+02  0.24474730194E+02  0.47787272853E+02  0.20000008247E+02 0.  0.
         12    1    1    2    0    0  0.12743050321E+01  0.35818805752E+02 -0.24474730194E+02  0.43400727147E+02  0.00000000000E+00 0. -1.
         11    1    3    3    0    0 -0.94393258049E+01 -0.10775438324E+02  0.78009468921E+01  0.16311520941E+02  0.51100000000E-03 0. -1.
        -11    1    3    3    0    0  0.15649059485E+00 -0.61569851914E+01  0.44136875296E+01  0.75771758475E+01  0.51100000000E-03 0.  1.
        -12    1    3    3    0    0  0.80085301780E+01 -0.18886382236E+02  0.12260095772E+02  0.23898576065E+02  0.00000000000E+00 0.  1.
</event>
<event>
 7    1  0.2328615E-009  0.4778728E+02  0.7816164E-02  0.1312668E+00
        -11   -1    0    0    0    0  0.00000000000E+00  0.00000000000E+00  0.45593999997E+02  0.45594000000E+02  0.51100000000E-03 0. -1.
         11   -1    0    0    0    0 -0.00000000000E+00 -0.00000000000E+00 -0.45593999997E+02  0.45594000000E+02  0.51100000000E-03 0.  1.
    9900012    2    1    2    0    0  0.35377823829E+02  0.37380935155E+01 -0.24860793380E+02  0.47787276395E+02  0.20000024395E+02 0.  0.
         12    1    1    2    0    0 -0.35377823829E+02 -0.37380935155E+01  0.24860793380E+02  0.43400723605E+02  0.00000000000E+00 0. -1.
         11    1    3    3    0    0  0.16430206955E+02 -0.47154120146E+01 -0.12026814121E+02  0.20900504042E+02  0.51100000000E-03 0. -1.
        -11    1    3    3    0    0  0.14064017687E+02  0.92866974565E+00 -0.10617751197E+02  0.17646406482E+02  0.51100000000E-03 0.  1.
         12    1    3    3    0    0  0.48835991870E+01  0.75248357845E+01 -0.22162280616E+01  0.92403658707E+01  0.00000000000E+00 0. -1.
</event>
<event>
 7    1  0.2328615E-009  0.4778724E+02  0.7816164E-02  0.1312668E+00
        -11   -1    0    0    0    0  0.00000000000E+00  0.00000000000E+00  0.45593999997E+02  0.45594000000E+02  0.51100000000E-03 0.  1.
         11   -1    0    0    0    0 -0.00000000000E+00 -0.00000000000E+00 -0.45593999997E+02  0.45594000000E+02  0.51100000000E-03 0. -1.
    9900012    2    1    2    0    0 -0.34850849382E+02  0.17816468912E+02  0.18751474217E+02  0.47787239034E+02  0.19999854051E+02 0.  0.
         12    1    1    2    0    0  0.34850849382E+02 -0.17816468912E+02 -0.18751474217E+02  0.43400760966E+02  0.00000000000E+00 0. -1.
         11    1    3    3    0    0 -0.10184866566E+02  0.24708795399E+01  0.73030069501E+01  0.12773827282E+02  0.51100000000E-03 0. -1.
        -11    1    3    3    0    0 -0.20344801865E+02  0.15032022220E+02  0.15002205953E+02  0.29409842548E+02  0.51100000000E-03 0.  1.
         12    1    3    3    0    0 -0.43211809512E+01  0.31356715203E+00 -0.35537386868E+01  0.56035692041E+01  0.00000000000E+00 0. -1.
</event>
<event>
 7    1  0.2328615E-009  0.4778727E+02  0.7816164E-02  0.1312668E+00
        -11   -1    0    0    0    0  0.00000000000E+00  0.00000000000E+00  0.45593999997E+02  0.45594000000E+02  0.51100000000E-03 0.  1.
         11   -1    0    0    0    0 -0.00000000000E+00 -0.00000000000E+00 -0.45593999997E+02  0.45594000000E+02  0.51100000000E-03 0. -1.
    9900012    2    1    2    0    0 -0.12487488134E+02 -0.40042398685E+01  0.41372112549E+02  0.47787274273E+02  0.20000014721E+02 0.  0.
         12    1    1    2    0    0  0.12487488134E+02  0.40042398685E+01 -0.41372112549E+02  0.43400725727E+02  0.00000000000E+00 0. -1.
         11    1    3    3    0    0 -0.59351217638E+01 -0.65041703279E+01  0.13987863474E+02  0.16528467166E+02  0.51100000000E-03 0. -1.
        -11    1    3    3    0    0 -0.43316330085E+01 -0.43652541115E+01  0.56242318306E+01  0.83336949743E+01  0.51100000000E-03 0.  1.
        -12    1    3    3    0    0 -0.22207333618E+01  0.68651845709E+01  0.21760017244E+02  0.22925112133E+02  0.00000000000E+00 0.  1.
</event>
<event>
 7    1  0.2328615E-009  0.4778723E+02  0.7816164E-02  0.1312668E+00
        -11   -1    0    0    0    0  0.00000000000E+00  0.00000000000E+00  0.45593999997E+02  0.45594000000E+02  0.51100000000E-03 0. -1.
         11   -1    0    0    0    0 -0.00000000000E+00 -0.00000000000E+00 -0.45593999997E+02  0.45594000000E+02  0.51100000000E-03 0.  1.
    9900012    2    1    2    0    0 -0.24416433419E+02  0.35732837518E+02  0.32601420914E+01  0.47787234748E+02  0.19999834511E+02 0.  0.
         12    1    1    2    0    0  0.24416433419E+02 -0.35732837518E+02 -0.32601420914E+01  0.43400765252E+02  0.00000000000E+00 0. -1.
         11    1    3    3    0    0 -0.63344530901E+00  0.12880561355E+01  0.28853941030E+01  0.32227070854E+01  0.51100000000E-03 0. -1.
        -11    1    3    3    0    0 -0.29439119711E+01 -0.10986166396E+01 -0.11189677356E+01  0.33355157426E+01  0.51100000000E-03 0.  1.
        -12    1    3    3    0    0 -0.20839076139E+02  0.35543398022E+02  0.14937157240E+01  0.41229011920E+02  0.00000000000E+00 0.  1.
</event>
<event>
 7    1  0.2367628E-009  0.4778727E+02  0.7816164E-02  0.1312668E+00
        -11   -1    0    0    0    0  0.00000000000E+00  0.00000000000E+00  0.45593999997E+02  0.45594000000E+02  0.51100000000E-03 0.  1.
         11   -1    0    0    0    0 -0.00000000000E+00 -0.00000000000E+00 -0.45593999997E+02  0.45594000000E+02  0.51100000000E-03 0. -1.
    9900012    2    1    2    0    0 -0.18936850155E+02  0.39051016849E+02 -0.19310317220E+00  0.47787268444E+02  0.19999988144E+02 0.  0.
         12    1    1    2    0    0  0.18936850155E+02 -0.39051016849E+02  0.19310317220E+00  0.43400731556E+02  0.00000000000E+00 0. -1.
         11    1    3    3    0    0  0.14642519704E+01  0.95613101913E+01  0.73473002545E+00  0.97006450754E+01  0.51100000000E-03 0. -1.
        -11    1    3    3    0    0 -0.20927858093E+01  0.14303831945E+01 -0.36812940118E+01  0.44696391788E+01  0.51100000000E-03 0.  1.
        -12    1    3    3    0    0 -0.18308316316E+02  0.28059323463E+02  0.27534608142E+01  0.33616984190E+02  0.00000000000E+00 0.  1.
</event>
<event>
 7    1  0.2328615E-009  0.4778727E+02  0.7816164E-02  0.1312668E+00
        -11   -1    0    0    0    0  0.00000000000E+00  0.00000000000E+00  0.45593999997E+02  0.45594000000E+02  0.51100000000E-03 0.  1.
         11   -1    0    0    0    0 -0.00000000000E+00 -0.00000000000E+00 -0.45593999997E+02  0.45594000000E+02  0.51100000000E-03 0. -1.
    9900012    2    1    2    0    0 -0.16444019108E+02 -0.30642289358E+02  0.25966665379E+02  0.47787269909E+02  0.19999994822E+02 0.  0.
         12    1    1    2    0    0  0.16444019108E+02  0.30642289358E+02 -0.25966665379E+02  0.43400730091E+02  0.00000000000E+00 0. -1.
         11    1    3    3    0    0 -0.50039625255E+01 -0.14131496261E+02  0.73043432928E+01  0.16676098426E+02  0.51100000000E-03 0. -1.
        -11    1    3    3    0    0 -0.10084558996E+02 -0.17566426687E+02  0.10587264488E+02  0.22855367997E+02  0.51100000000E-03 0.  1.
         12    1    3    3    0    0 -0.13554975861E+01  0.10556335888E+01  0.80750575979E+01  0.82558034853E+01  0.00000000000E+00 0. -1.
</event>
<event>
 7    1  0.2328615E-009  0.4778727E+02  0.7816164E-02  0.1312668E+00
        -11   -1    0    0    0    0  0.00000000000E+00  0.00000000000E+00  0.45593999997E+02  0.45594000000E+02  0.51100000000E-03 0. -1.
         11   -1    0    0    0    0 -0.00000000000E+00 -0.00000000000E+00 -0.45593999997E+02  0.45594000000E+02  0.51100000000E-03 0.  1.
    9900012    2    1    2    0    0  0.21556590005E+02  0.29674312225E+02  0.23202841350E+02  0.47787271603E+02  0.20000002545E+02 0.  0.
         12    1    1    2    0    0 -0.21556590005E+02 -0.29674312225E+02 -0.23202841350E+02  0.43400728397E+02  0.00000000000E+00 0. -1.
         11    1    3    3    0    0  0.12299922197E+02  0.16850505712E+02  0.12418393198E+02  0.24278470271E+02  0.51100000000E-03 0. -1.
        -11    1    3    3    0    0  0.10418534741E+02  0.63058916813E+01  0.11623775149E+02  0.16835150282E+02  0.51100000000E-03 0.  1.
         12    1    3    3    0    0 -0.11618669328E+01  0.65179148322E+01 -0.83932699687E+00  0.66736510500E+01  0.00000000000E+00 0. -1.
</event>
<event>
 7    1  0.2328615E-009  0.4778727E+02  0.7816164E-02  0.1312668E+00
        -11   -1    0    0    0    0  0.00000000000E+00  0.00000000000E+00  0.45593999997E+02  0.45594000000E+02  0.51100000000E-03 0.  1.
         11   -1    0    0    0    0 -0.00000000000E+00 -0.00000000000E+00 -0.45593999997E+02  0.45594000000E+02  0.51100000000E-03 0. -1.
    9900012    2    1    2    0    0 -0.11007361180E+02  0.41889800110E+02  0.27759615325E+01  0.47787270561E+02  0.19999997794E+02 0.  0.
         12    1    1    2    0    0  0.11007361180E+02 -0.41889800110E+02 -0.27759615325E+01  0.43400729439E+02  0.00000000000E+00 0. -1.
         11    1    3    3    0    0  0.29411193256E+00  0.83192863967E+01  0.43612636792E+01  0.93977470236E+01  0.51100000000E-03 0.  1.
        -11    1    3    3    0    0 -0.11105776357E+02  0.12876311770E+02  0.28049578854E+01  0.17233846416E+02  0.51100000000E-03 0. -1.
         12    1    3    3    0    0 -0.19569675565E+00  0.20694201943E+02 -0.43902600321E+01  0.21155677121E+02  0.00000000000E+00 0. -1.
</event>
<event>
 7    1  0.2328615E-009  0.4778727E+02  0.7816164E-02  0.1312668E+00
        -11   -1    0    0    0    0  0.00000000000E+00  0.00000000000E+00  0.45593999997E+02  0.45594000000E+02  0.51100000000E-03 0.  1.
         11   -1    0    0    0    0 -0.00000000000E+00 -0.00000000000E+00 -0.45593999997E+02  0.45594000000E+02  0.51100000000E-03 0. -1.
    9900012    2    1    2    0    0  0.46079073939E+01  0.10279588124E+02  0.41913250632E+02  0.47787270501E+02  0.19999997521E+02 0.  0.
         12    1    1    2    0    0 -0.46079073939E+01 -0.10279588124E+02 -0.41913250632E+02  0.43400729499E+02  0.00000000000E+00 0. -1.
         11    1    3    3    0    0 -0.17869092139E+01 -0.88953645229E+00  0.12779138813E+01  0.23701020627E+01  0.51100000000E-03 0. -1.
        -11    1    3    3    0    0 -0.52542604520E+01  0.33206430217E+01  0.11481295265E+02  0.13055805766E+02  0.51100000000E-03 0.  1.
         12    1    3    3    0    0  0.11649077060E+02  0.78484815546E+01  0.29154041486E+02  0.32361362672E+02  0.00000000000E+00 0. -1.
</event>
<event>
 7    1  0.2328615E-009  0.4778727E+02  0.7816164E-02  0.1312668E+00
        -11   -1    0    0    0    0  0.00000000000E+00  0.00000000000E+00  0.45593999997E+02  0.45594000000E+02  0.51100000000E-03 0.  1.
         11   -1    0    0    0    0 -0.00000000000E+00 -0.00000000000E+00 -0.45593999997E+02  0.45594000000E+02  0.51100000000E-03 0. -1.
    9900012    2    1    2    0    0 -0.14127164077E+02 -0.25200763695E+02  0.32387782195E+02  0.47787266237E+02  0.19999978079E+02 0.  0.
         12    1    1    2    0    0  0.14127164077E+02  0.25200763695E+02 -0.32387782195E+02  0.43400733763E+02  0.00000000000E+00 0. -1.
         11    1    3    3    0    0 -0.15768472364E+01  0.22414195281E+00  0.10927213596E+02  0.11042675584E+02  0.51100000000E-03 0. -1.
        -11    1    3    3    0    0 -0.68892819836E+01 -0.47446692253E+01  0.66367351055E+01  0.10678030972E+02  0.51100000000E-03 0.  1.
        -12    1    3    3    0    0 -0.56610348574E+01 -0.20680236422E+02  0.14823833494E+02  0.26066559681E+02  0.00000000000E+00 0.  1.
</event>
<event>
 7    1  0.2328615E-009  0.4778727E+02  0.7816164E-02  0.1312668E+00
        -11   -1    0    0    0    0  0.00000000000E+00  0.00000000000E+00  0.45593999997E+02  0.45594000000E+02  0.51100000000E-03 0.  1.
         11   -1    0    0    0    0 -0.00000000000E+00 -0.00000000000E+00 -0.45593999997E+02  0.45594000000E+02  0.51100000000E-03 0. -1.
    9900012    2    1    2    0    0  0.23265406283E+02 -0.96361012154E+01  0.35348119195E+02  0.47787272970E+02  0.20000008777E+02 0.  0.
         12    1    1    2    0    0 -0.23265406283E+02  0.96361012154E+01 -0.35348119195E+02  0.43400727030E+02  0.00000000000E+00 0. -1.
         11    1    3    3    0    0  0.15064659839E+02 -0.50195530149E+01  0.19203928481E+02  0.24918482256E+02  0.51100000000E-03 0.  1.
        -11    1    3    3    0    0  0.65813476111E+01 -0.27934469167E+01  0.64470270405E+00  0.71786575271E+01  0.51100000000E-03 0. -1.
        -12    1    3    3    0    0  0.16193988332E+01 -0.18231012838E+01  0.15499488009E+02  0.15690133187E+02  0.00000000000E+00 0.  1.
</event>
<event>
 7    1  0.2328615E-009  0.4778727E+02  0.7816164E-02  0.1312668E+00
        -11   -1    0    0    0    0  0.00000000000E+00  0.00000000000E+00  0.45593999997E+02  0.45594000000E+02  0.51100000000E-03 0.  1.
         11   -1    0    0    0    0 -0.00000000000E+00 -0.00000000000E+00 -0.45593999997E+02  0.45594000000E+02  0.51100000000E-03 0. -1.
    9900012    2    1    2    0    0 -0.67060129533E+01 -0.19273676256E+02  0.38303765629E+02  0.47787266509E+02  0.19999979322E+02 0.  0.
         12    1    1    2    0    0  0.67060129533E+01  0.19273676256E+02 -0.38303765629E+02  0.43400733491E+02  0.00000000000E+00 0. -1.
         11    1    3    3    0    0 -0.84123581741E+01 -0.85811695958E+01  0.19867959329E+02  0.23219389523E+02  0.51100000000E-03 0. -1.
        -11    1    3    3    0    0 -0.26659513576E+01 -0.23630314862E+01  0.13464494473E+02  0.13927807657E+02  0.51100000000E-03 0.  1.
         12    1    3    3    0    0  0.43722965784E+01 -0.83294751745E+01  0.49713118273E+01  0.10640069329E+02  0.00000000000E+00 0. -1.
</event>
<event>
 7    1  0.2328615E-009  0.4778727E+02  0.7816164E-02  0.1312668E+00
        -11   -1    0    0    0    0  0.00000000000E+00  0.00000000000E+00  0.45593999997E+02  0.45594000000E+02  0.51100000000E-03 0.  1.
         11   -1    0    0    0    0 -0.00000000000E+00 -0.00000000000E+00 -0.45593999997E+02  0.45594000000E+02  0.51100000000E-03 0. -1.
    9900012    2    1    2    0    0  0.15217110857E+02 -0.20084875560E+02  0.35336393439E+02  0.47787269702E+02  0.19999993880E+02 0.  0.
         12    1    1    2    0    0 -0.15217110857E+02  0.20084875560E+02 -0.35336393439E+02  0.43400730298E+02  0.00000000000E+00 0. -1.
         11    1    3    3    0    0  0.33764790868E+01 -0.15897213470E+02  0.15134231142E+02  0.22207362735E+02  0.51100000000E-03 0. -1.
        -11    1    3    3    0    0 -0.87011851065E+00 -0.37916266933E+00 -0.43575592437E+00  0.10443917077E+01  0.51100000000E-03 0.  1.
        -12    1    3    3    0    0  0.12710750281E+02 -0.38084994215E+01  0.20637918221E+02  0.24535515260E+02  0.00000000000E+00 0.  1.
</event>
<event>
 7    1  0.2328615E-009  0.4778725E+02  0.7816164E-02  0.1312668E+00
        -11   -1    0    0    0    0  0.00000000000E+00  0.00000000000E+00  0.45593999997E+02  0.45594000000E+02  0.51100000000E-03 0. -1.
         11   -1    0    0    0    0 -0.00000000000E+00 -0.00000000000E+00 -0.45593999997E+02  0.45594000000E+02  0.51100000000E-03 0.  1.
    9900012    2    1    2    0    0 -0.44950053344E+01  0.32467779618E+02 -0.28447547507E+02  0.47787254092E+02  0.19999922706E+02 0.  0.
         12    1    1    2    0    0  0.44950053344E+01 -0.32467779618E+02  0.28447547507E+02  0.43400745908E+02  0.00000000000E+00 0. -1.
         11    1    3    3    0    0 -0.12260168619E+01  0.30576874629E+01  0.67892453121E+00  0.33635559675E+01  0.51100000000E-03 0. -1.
        -11    1    3    3    0    0 -0.30633105467E+01  0.17022841181E+02 -0.62183665886E+01  0.18380127222E+02  0.51100000000E-03 0.  1.
        -12    1    3    3    0    0 -0.20567792583E+00  0.12387250973E+02 -0.22908105449E+02  0.26043570903E+02  0.00000000000E+00 0.  1.
</event>
<event>
 7    1  0.2328615E-009  0.4778727E+02  0.7816164E-02  0.1312668E+00
        -11   -1    0    0    0    0  0.00000000000E+00  0.00000000000E+00  0.45593999997E+02  0.45594000000E+02  0.51100000000E-03 0. -1.
         11   -1    0    0    0    0 -0.00000000000E+00 -0.00000000000E+00 -0.45593999997E+02  0.45594000000E+02  0.51100000000E-03 0.  1.
    9900012    2    1    2    0    0 -0.94605884330E+01 -0.12917800761E+02 -0.40339198779E+02  0.47787271111E+02  0.20000000302E+02 0.  0.
         12    1    1    2    0    0  0.94605884330E+01  0.12917800761E+02  0.40339198779E+02  0.43400728889E+02  0.00000000000E+00 0. -1.
         11    1    3    3    0    0 -0.62458518995E+01 -0.83392935956E+01 -0.11430442123E+02  0.15466398773E+02  0.51100000000E-03 0. -1.
        -11    1    3    3    0    0 -0.75682619425E+01 -0.25065297812E+01 -0.24582520475E+02  0.25843018274E+02  0.51100000000E-03 0.  1.
        -12    1    3    3    0    0  0.43535254090E+01 -0.20719773838E+01 -0.43262361816E+01  0.64778540632E+01  0.00000000000E+00 0.  1.
</event>
<event>
 7    1  0.2328615E-009  0.4778726E+02  0.7816164E-02  0.1312668E+00
        -11   -1    0    0    0    0  0.00000000000E+00  0.00000000000E+00  0.45593999997E+02  0.45594000000E+02  0.51100000000E-03 0.  1.
         11   -1    0    0    0    0 -0.00000000000E+00 -0.00000000000E+00 -0.45593999997E+02  0.45594000000E+02  0.51100000000E-03 0. -1.
    9900012    2    1    2    0    0 -0.41574005669E+02  0.10110039152E+02  0.72810051398E+01  0.47787264121E+02  0.19999968431E+02 0.  0.
         12    1    1    2    0    0  0.41574005669E+02 -0.10110039152E+02 -0.72810051398E+01  0.43400735879E+02  0.00000000000E+00 0. -1.
         11    1    3    3    0    0 -0.99219669605E+01 -0.32924835846E+01  0.25575936507E+01  0.10762302823E+02  0.51100000000E-03 0. -1.
        -11    1    3    3    0    0 -0.21313347664E+02  0.21191653051E+01  0.26799767232E+01  0.21585456347E+02  0.51100000000E-03 0.  1.
         12    1    3    3    0    0 -0.10338691045E+02  0.11283357432E+02  0.20434347659E+01  0.15439504950E+02  0.00000000000E+00 0. -1.
</event>
<event>
 7    1  0.2328615E-009  0.4778727E+02  0.7816164E-02  0.1312668E+00
        -11   -1    0    0    0    0  0.00000000000E+00  0.00000000000E+00  0.45593999997E+02  0.45594000000E+02  0.51100000000E-03 0.  1.
         11   -1    0    0    0    0 -0.00000000000E+00 -0.00000000000E+00 -0.45593999997E+02  0.45594000000E+02  0.51100000000E-03 0. -1.
    9900012    2    1    2    0    0  0.26557173864E+02 -0.23387575568E+02  0.25126903400E+02  0.47787269026E+02  0.19999990798E+02 0.  0.
         12    1    1    2    0    0 -0.26557173864E+02  0.23387575568E+02 -0.25126903400E+02  0.43400730974E+02  0.00000000000E+00 0. -1.
         11    1    3    3    0    0  0.53501200438E+00 -0.15981798497E+01  0.26335012776E+01  0.31266189273E+01  0.51100000000E-03 0. -1.
        -11    1    3    3    0    0 -0.92209983418E+00 -0.51636018198E+01 -0.86442473904E+00  0.53160400909E+01  0.51100000000E-03 0.  1.
        -12    1    3    3    0    0  0.26944261694E+02 -0.16625793899E+02  0.23357826861E+02  0.39344610008E+02  0.00000000000E+00 0.  1.
</event>
<event>
 7    1  0.2328615E-009  0.4778727E+02  0.7816164E-02  0.1312668E+00
        -11   -1    0    0    0    0  0.00000000000E+00  0.00000000000E+00  0.45593999997E+02  0.45594000000E+02  0.51100000000E-03 0.  1.
         11   -1    0    0    0    0 -0.00000000000E+00 -0.00000000000E+00 -0.45593999997E+02  0.45594000000E+02  0.51100000000E-03 0. -1.
    9900012    2    1    2    0    0  0.70053252539E+01  0.30508794411E+02  0.30062636530E+02  0.47787271511E+02  0.20000002126E+02 0.  0.
         12    1    1    2    0    0 -0.70053252539E+01 -0.30508794411E+02 -0.30062636530E+02  0.43400728489E+02  0.00000000000E+00 0. -1.
         11    1    3    3    0    0  0.15505726962E+01  0.26739677185E+00  0.10606469354E+02  0.10722544900E+02  0.51100000000E-03 0. -1.
        -11    1    3    3    0    0  0.83790135495E+00  0.45678343152E+01  0.63637716830E+01  0.78781202902E+01  0.51100000000E-03 0.  1.
        -12    1    3    3    0    0  0.46168512027E+01  0.25673563323E+02  0.13092395492E+02  0.29186606320E+02  0.00000000000E+00 0.  1.
</event>
<event>
 7    1  0.2328615E-009  0.4778727E+02  0.7816164E-02  0.1312668E+00
        -11   -1    0    0    0    0  0.00000000000E+00  0.00000000000E+00  0.45593999997E+02  0.45594000000E+02  0.51100000000E-03 0.  1.
         11   -1    0    0    0    0 -0.00000000000E+00 -0.00000000000E+00 -0.45593999997E+02  0.45594000000E+02  0.51100000000E-03 0. -1.
    9900012    2    1    2    0    0 -0.70621132014E+01  0.75148943302E+00  0.42815708833E+02  0.47787273023E+02  0.20000009020E+02 0.  0.
         12    1    1    2    0    0  0.70621132014E+01 -0.75148943302E+00 -0.42815708833E+02  0.43400726977E+02  0.00000000000E+00 0. -1.
         11    1    3    3    0    0 -0.60793009421E+01 -0.91088891853E+00  0.11477269780E+02  0.13019805698E+02  0.51100000000E-03 0.  1.
        -11    1    3    3    0    0 -0.73913401321E+01 -0.86456526509E+00  0.10889749928E+02  0.13189618486E+02  0.51100000000E-03 0. -1.
         12    1    3    3    0    0  0.64085278728E+01  0.25269436167E+01  0.20448689126E+02  0.21577848839E+02  0.00000000000E+00 0. -1.
</event>
<event>
 7    1  0.2328615E-009  0.4778726E+02  0.7816164E-02  0.1312668E+00
        -11   -1    0    0    0    0  0.00000000000E+00  0.00000000000E+00  0.45593999997E+02  0.45594000000E+02  0.51100000000E-03 0.  1.
         11   -1    0    0    0    0 -0.00000000000E+00 -0.00000000000E+00 -0.45593999997E+02  0.45594000000E+02  0.51100000000E-03 0. -1.
    9900012    2    1    2    0    0 -0.79007821648E+00  0.11773612187E+02  0.41765798337E+02  0.47787261778E+02  0.19999957749E+02 0.  0.
         12    1    1    2    0    0  0.79007821648E+00 -0.11773612187E+02 -0.41765798337E+02  0.43400738222E+02  0.00000000000E+00 0. -1.
         11    1    3    3    0    0 -0.13353638937E+01  0.13186332449E+01  0.28570676396E+01  0.34183074936E+01  0.51100000000E-03 0. -1.
        -11    1    3    3    0    0  0.61575274398E+01  0.10430626726E+02  0.12637131529E+02  0.17504576877E+02  0.51100000000E-03 0.  1.
         12    1    3    3    0    0 -0.56122417626E+01  0.24352215753E-01  0.26271599168E+02  0.26864377407E+02  0.00000000000E+00 0. -1.
</event>
<event>
 7    1  0.2328615E-009  0.4778727E+02  0.7816164E-02  0.1312668E+00
        -11   -1    0    0    0    0  0.00000000000E+00  0.00000000000E+00  0.45593999997E+02  0.45594000000E+02  0.51100000000E-03 0. -1.
         11   -1    0    0    0    0 -0.00000000000E+00 -0.00000000000E+00 -0.45593999997E+02  0.45594000000E+02  0.51100000000E-03 0.  1.
    9900012    2    1    2    0    0  0.11664847893E+01  0.19464094336E+02 -0.38773854864E+02  0.47787268715E+02  0.19999989379E+02 0.  0.
         12    1    1    2    0    0 -0.11664847893E+01 -0.19464094336E+02  0.38773854864E+02  0.43400731285E+02  0.00000000000E+00 0. -1.
         11    1    3    3    0    0 -0.48505391088E+01  0.56466038947E+01 -0.82648063489E+01  0.11122899327E+02  0.51100000000E-03 0. -1.
        -11    1    3    3    0    0  0.63449707824E-01  0.14316496511E+02 -0.20413249884E+02  0.24933248270E+02  0.51100000000E-03 0.  1.
         12    1    3    3    0    0  0.59535741903E+01 -0.49900606875E+00 -0.10095798631E+02  0.11731121118E+02  0.00000000000E+00 0. -1.
</event>
<event>
 7    1  0.2328615E-009  0.4778727E+02  0.7816164E-02  0.1312668E+00
        -11   -1    0    0    0    0  0.00000000000E+00  0.00000000000E+00  0.45593999997E+02  0.45594000000E+02  0.51100000000E-03 0. -1.
         11   -1    0    0    0    0 -0.00000000000E+00 -0.00000000000E+00 -0.45593999997E+02  0.45594000000E+02  0.51100000000E-03 0.  1.
    9900012    2    1    2    0    0 -0.29707212497E+02  0.11640429237E+02 -0.29421170823E+02  0.47787270055E+02  0.19999995489E+02 0.  0.
         12    1    1    2    0    0  0.29707212497E+02 -0.11640429237E+02  0.29421170823E+02  0.43400729945E+02  0.00000000000E+00 0. -1.
         11    1    3    3    0    0 -0.22863259290E+02  0.17455569743E+01 -0.17505254950E+02  0.28848042318E+02  0.51100000000E-03 0. -1.
        -11    1    3    3    0    0 -0.29635950423E+01  0.14570792829E+01  0.59739328477E+00  0.33560176712E+01  0.51100000000E-03 0.  1.
        -12    1    3    3    0    0 -0.38803581651E+01  0.84377929799E+01 -0.12513309158E+02  0.15583210066E+02  0.00000000000E+00 0.  1.
</event>
<event>
 7    1  0.2328615E-009  0.4778728E+02  0.7816164E-02  0.1312668E+00
        -11   -1    0    0    0    0  0.00000000000E+00  0.00000000000E+00  0.45593999997E+02  0.45594000000E+02  0.51100000000E-03 0. -1.
         11   -1    0    0    0    0 -0.00000000000E+00 -0.00000000000E+00 -0.45593999997E+02  0.45594000000E+02  0.51100000000E-03 0.  1.
    9900012    2    1    2    0    0 -0.34277929451E+02 -0.26186353582E+02 -0.47875950036E+01  0.47787278493E+02  0.20000033960E+02 0.  0.
         12    1    1    2    0    0  0.34277929451E+02  0.26186353582E+02  0.47875950036E+01  0.43400721507E+02  0.00000000000E+00 0. -1.
         11    1    3    3    0    0 -0.10112726847E+02 -0.35796945216E+01 -0.68217504835E+01  0.12712896487E+02  0.51100000000E-03 0. -1.
        -11    1    3    3    0    0 -0.16765766738E+02 -0.13041752651E+02 -0.39127027178E+01  0.21598321447E+02  0.51100000000E-03 0.  1.
         12    1    3    3    0    0 -0.73994358663E+01 -0.95649064099E+01  0.59468581977E+01  0.13476060559E+02  0.00000000000E+00 0. -1.
</event>
<event>
 7    1  0.2328615E-009  0.4778726E+02  0.7816164E-02  0.1312668E+00
        -11   -1    0    0    0    0  0.00000000000E+00  0.00000000000E+00  0.45593999997E+02  0.45594000000E+02  0.51100000000E-03 0. -1.
         11   -1    0    0    0    0 -0.00000000000E+00 -0.00000000000E+00 -0.45593999997E+02  0.45594000000E+02  0.51100000000E-03 0.  1.
    9900012    2    1    2    0    0  0.34999854710E+02 -0.19439965413E+02 -0.16754754373E+02  0.47787264072E+02  0.19999968211E+02 0.  0.
         12    1    1    2    0    0 -0.34999854710E+02  0.19439965413E+02  0.16754754373E+02  0.43400735928E+02  0.00000000000E+00 0. -1.
         11    1    3    3    0    0  0.25061878230E+02 -0.10298967539E+02 -0.10759445986E+02  0.29153595850E+02  0.51100000000E-03 0. -1.
        -11    1    3    3    0    0  0.59050071390E+01 -0.11414117469E+01 -0.74318149406E+01  0.95605336493E+01  0.51100000000E-03 0.  1.
         12    1    3    3    0    0  0.40329693405E+01 -0.79995861268E+01  0.14365065528E+01  0.90731345728E+01  0.00000000000E+00 0. -1.
</event>
<event>
 7    1  0.2328615E-009  0.4778728E+02  0.7816164E-02  0.1312668E+00
        -11   -1    0    0    0    0  0.00000000000E+00  0.00000000000E+00  0.45593999997E+02  0.45594000000E+02  0.51100000000E-03 0. -1.
         11   -1    0    0    0    0 -0.00000000000E+00 -0.00000000000E+00 -0.45593999997E+02  0.45594000000E+02  0.51100000000E-03 0.  1.
    9900012    2    1    2    0    0 -0.29972559910E+02 -0.24931976689E+02 -0.19069994279E+02  0.47787280064E+02  0.20000041123E+02 0.  0.
         12    1    1    2    0    0  0.29972559910E+02  0.24931976689E+02  0.19069994279E+02  0.43400719936E+02  0.00000000000E+00 0. -1.
         11    1    3    3    0    0  0.27836082583E+00 -0.10427418126E+01 -0.22903028079E+01  0.25318535602E+01  0.51100000000E-03 0. -1.
        -11    1    3    3    0    0 -0.14768909966E+02 -0.19594580229E+02 -0.15747539795E+02  0.29155673304E+02  0.51100000000E-03 0.  1.
         12    1    3    3    0    0 -0.15482010769E+02 -0.42946546479E+01 -0.10321516756E+01  0.16099753200E+02  0.00000000000E+00 0. -1.
</event>
<event>
 7    1  0.2328615E-009  0.4778727E+02  0.7816164E-02  0.1312668E+00
        -11   -1    0    0    0    0  0.00000000000E+00  0.00000000000E+00  0.45593999997E+02  0.45594000000E+02  0.51100000000E-03 0.  1.
         11   -1    0    0    0    0 -0.00000000000E+00 -0.00000000000E+00 -0.45593999997E+02  0.45594000000E+02  0.51100000000E-03 0. -1.
    9900012    2    1    2    0    0 -0.21707041497E+02  0.33601253424E+02  0.16833997721E+02  0.47787270035E+02  0.19999995398E+02 0.  0.
         12    1    1    2    0    0  0.21707041497E+02 -0.33601253424E+02 -0.16833997721E+02  0.43400729965E+02  0.00000000000E+00 0. -1.
         11    1    3    3    0    0 -0.91037042489E+01  0.44203473802E+01  0.36435623181E+01  0.10756042425E+02  0.51100000000E-03 0. -1.
        -11    1    3    3    0    0 -0.13491693058E+02  0.15542692031E+02  0.10486951008E+02  0.23099290007E+02  0.51100000000E-03 0.  1.
        -12    1    3    3    0    0  0.88835580943E+00  0.13638214013E+02  0.27034843952E+01  0.13931937603E+02  0.00000000000E+00 0.  1.
</event>
<event>
 7    1  0.2328615E-009  0.4778727E+02  0.7816164E-02  0.1312668E+00
        -11   -1    0    0    0    0  0.00000000000E+00  0.00000000000E+00  0.45593999997E+02  0.45594000000E+02  0.51100000000E-03 0. -1.
         11   -1    0    0    0    0 -0.00000000000E+00 -0.00000000000E+00 -0.45593999997E+02  0.45594000000E+02  0.51100000000E-03 0.  1.
    9900012    2    1    2    0    0  0.39486147794E+02  0.18008749438E+02 -0.39026289985E+00  0.47787271561E+02  0.20000002354E+02 0.  0.
         12    1    1    2    0    0 -0.39486147794E+02 -0.18008749438E+02  0.39026289985E+00  0.43400728439E+02  0.00000000000E+00 0. -1.
         11    1    3    3    0    0 -0.20500727429E+00  0.33569204277E+01 -0.18468127855E+01  0.38368816070E+01  0.51100000000E-03 0. -1.
        -11    1    3    3    0    0  0.12933489556E+02  0.24854965594E+00  0.37713172444E+01  0.13474411417E+02  0.51100000000E-03 0.  1.
        -12    1    3    3    0    0  0.26757665512E+02  0.14403279354E+02 -0.23147673588E+01  0.30475978536E+02  0.00000000000E+00 0.  1.
</event>
<event>
 7    1  0.2328615E-009  0.4778727E+02  0.7816164E-02  0.1312668E+00
        -11   -1    0    0    0    0  0.00000000000E+00  0.00000000000E+00  0.45593999997E+02  0.45594000000E+02  0.51100000000E-03 0.  1.
         11   -1    0    0    0    0 -0.00000000000E+00 -0.00000000000E+00 -0.45593999997E+02  0.45594000000E+02  0.51100000000E-03 0. -1.
    9900012    2    1    2    0    0  0.18268602551E+01  0.40860820078E+02  0.14514791224E+02  0.47787271895E+02  0.20000003876E+02 0.  0.
         12    1    1    2    0    0 -0.18268602551E+01 -0.40860820078E+02 -0.14514791224E+02  0.43400728105E+02  0.00000000000E+00 0. -1.
         11    1    3    3    0    0  0.26974016518E+01  0.13982246163E+02 -0.30744421866E+01  0.14568163181E+02  0.51100000000E-03 0. -1.
        -11    1    3    3    0    0  0.35734587432E+01  0.12073563605E+02  0.63105384559E+01  0.14084155686E+02  0.51100000000E-03 0.  1.
         12    1    3    3    0    0 -0.44440001400E+01  0.14805010309E+02  0.11278694955E+02  0.19134953028E+02  0.00000000000E+00 0. -1.
</event>
<event>
 7    1  0.2328615E-009  0.4778727E+02  0.7816164E-02  0.1312668E+00
        -11   -1    0    0    0    0  0.00000000000E+00  0.00000000000E+00  0.45593999997E+02  0.45594000000E+02  0.51100000000E-03 0.  1.
         11   -1    0    0    0    0 -0.00000000000E+00 -0.00000000000E+00 -0.45593999997E+02  0.45594000000E+02  0.51100000000E-03 0. -1.
    9900012    2    1    2    0    0  0.35320578386E+02  0.18825120632E+02  0.16783763947E+02  0.47787272396E+02  0.20000006160E+02 0.  0.
         12    1    1    2    0    0 -0.35320578386E+02 -0.18825120632E+02 -0.16783763947E+02  0.43400727604E+02  0.00000000000E+00 0. -1.
         11    1    3    3    0    0  0.19360939079E+02  0.36662237463E+01  0.10466776596E+02  0.22312341230E+02  0.51100000000E-03 0. -1.
        -11    1    3    3    0    0  0.14844096078E+02  0.87915547788E+01  0.76538932939E+01  0.18873810071E+02  0.51100000000E-03 0.  1.
        -12    1    3    3    0    0  0.11155432295E+01  0.63673421070E+01 -0.13369059424E+01  0.66011210944E+01  0.00000000000E+00 0.  1.
</event>
<event>
 7    1  0.2328615E-009  0.4778727E+02  0.7816164E-02  0.1312668E+00
        -11   -1    0    0    0    0  0.00000000000E+00  0.00000000000E+00  0.45593999997E+02  0.45594000000E+02  0.51100000000E-03 0.  1.
         11   -1    0    0    0    0 -0.00000000000E+00 -0.00000000000E+00 -0.45593999997E+02  0.45594000000E+02  0.51100000000E-03 0. -1.
    9900012    2    1    2    0    0  0.18266056551E+02  0.37323787121E+02  0.12526348984E+02  0.47787270445E+02  0.19999997268E+02 0.  0.
         12    1    1    2    0    0 -0.18266056551E+02 -0.37323787121E+02 -0.12526348984E+02  0.43400729555E+02  0.00000000000E+00 0. -1.
         11    1    3    3    0    0  0.78500979200E+01  0.57751776461E+01 -0.17665491812E+01  0.99044136863E+01  0.51100000000E-03 0. -1.
        -11    1    3    3    0    0 -0.19329048058E+01  0.61040134102E+01  0.51749908541E+00  0.64236209621E+01  0.51100000000E-03 0.  1.
        -12    1    3    3    0    0  0.12348863437E+02  0.25444596065E+02  0.13775399080E+02  0.31459235797E+02  0.00000000000E+00 0.  1.
</event>
<event>
 7    1  0.2328615E-009  0.4778726E+02  0.7816164E-02  0.1312668E+00
        -11   -1    0    0    0    0  0.00000000000E+00  0.00000000000E+00  0.45593999997E+02  0.45594000000E+02  0.51100000000E-03 0.  1.
         11   -1    0    0    0    0 -0.00000000000E+00 -0.00000000000E+00 -0.45593999997E+02  0.45594000000E+02  0.51100000000E-03 0. -1.
    9900012    2    1    2    0    0 -0.27075665047E+02  0.11642724536E+02  0.31858745226E+02  0.47787258996E+02  0.19999945067E+02 0.  0.
         12    1    1    2    0    0  0.27075665047E+02 -0.11642724536E+02 -0.31858745226E+02  0.43400741004E+02  0.00000000000E+00 0. -1.
         11    1    3    3    0    0 -0.22020074838E+02  0.96163187210E+01  0.21929669141E+02  0.32531026275E+02  0.51100000000E-03 0. -1.
        -11    1    3    3    0    0 -0.57837021625E+01 -0.17312941199E+01  0.96954906970E+01  0.11421520483E+02  0.51100000000E-03 0.  1.
         12    1    3    3    0    0  0.72811195342E+00  0.37576999345E+01  0.23358538737E+00  0.38347122379E+01  0.00000000000E+00 0. -1.
</event>
<event>
 7    1  0.2328615E-009  0.4778724E+02  0.7816164E-02  0.1312668E+00
        -11   -1    0    0    0    0  0.00000000000E+00  0.00000000000E+00  0.45593999997E+02  0.45594000000E+02  0.51100000000E-03 0.  1.
         11   -1    0    0    0    0 -0.00000000000E+00 -0.00000000000E+00 -0.45593999997E+02  0.45594000000E+02  0.51100000000E-03 0. -1.
    9900012    2    1    2    0    0 -0.34632564146E+02  0.10269339641E+02  0.24057265721E+02  0.47787241137E+02  0.19999863638E+02 0.  0.
         12    1    1    2    0    0  0.34632564146E+02 -0.10269339641E+02 -0.24057265721E+02  0.43400758863E+02  0.00000000000E+00 0. -1.
         11    1    3    3    0    0  0.58501548522E+00  0.42475612077E+01 -0.11233550912E+00  0.42891303150E+01  0.51100000000E-03 0. -1.
        -11    1    3    3    0    0 -0.96701228686E+01 -0.83948626901E+00  0.61431330322E+01  0.11487127457E+02  0.51100000000E-03 0.  1.
        -12    1    3    3    0    0 -0.25547456762E+02  0.68612647021E+01  0.18026468198E+02  0.32010983365E+02  0.00000000000E+00 0.  1.
</event>
<event>
 7    1  0.2328615E-009  0.4778727E+02  0.7816164E-02  0.1312668E+00
        -11   -1    0    0    0    0  0.00000000000E+00  0.00000000000E+00  0.45593999997E+02  0.45594000000E+02  0.51100000000E-03 0.  1.
         11   -1    0    0    0    0 -0.00000000000E+00 -0.00000000000E+00 -0.45593999997E+02  0.45594000000E+02  0.51100000000E-03 0. -1.
    9900012    2    1    2    0    0 -0.75375874897E+01  0.19247896607E+01  0.42697817507E+02  0.47787266593E+02  0.19999979706E+02 0.  0.
         12    1    1    2    0    0  0.75375874897E+01 -0.19247896607E+01 -0.42697817507E+02  0.43400733407E+02  0.00000000000E+00 0. -1.
         11    1    3    3    0    0  0.83678948095E+00 -0.26340148925E+01  0.42119615641E+01  0.50377446906E+01  0.51100000000E-03 0. -1.
        -11    1    3    3    0    0 -0.73094347706E+01 -0.44287430750E+01  0.25706484457E+02  0.27089941774E+02  0.51100000000E-03 0.  1.
        -12    1    3    3    0    0 -0.10649422000E+01  0.89875476282E+01  0.12779371485E+02  0.15659580129E+02  0.00000000000E+00 0.  1.
</event>
<event>
 7    1  0.2328615E-009  0.4778727E+02  0.7816164E-02  0.1312668E+00
        -11   -1    0    0    0    0  0.00000000000E+00  0.00000000000E+00  0.45593999997E+02  0.45594000000E+02  0.51100000000E-03 0.  1.
         11   -1    0    0    0    0 -0.00000000000E+00 -0.00000000000E+00 -0.45593999997E+02  0.45594000000E+02  0.51100000000E-03 0. -1.
    9900012    2    1    2    0    0  0.32939667967E+02 -0.15976410411E+02  0.23309996796E+02  0.47787269983E+02  0.19999995161E+02 0.  0.
         12    1    1    2    0    0 -0.32939667967E+02  0.15976410411E+02 -0.23309996796E+02  0.43400730017E+02  0.00000000000E+00 0. -1.
         11    1    3    3    0    0  0.19106269646E+01 -0.46770608721E+01  0.60098127984E+01  0.78513211583E+01  0.51100000000E-03 0. -1.
        -11    1    3    3    0    0  0.10164867766E+02  0.94731347670E+00  0.10850405236E+02  0.14898094965E+02  0.51100000000E-03 0.  1.
         12    1    3    3    0    0  0.20864173236E+02 -0.12246663016E+02  0.64497787610E+01  0.25037853860E+02  0.00000000000E+00 0. -1.
</event>
<event>
 7    1  0.6329906E-009  0.4778728E+02  0.7816164E-02  0.1312668E+00
        -11   -1    0    0    0    0  0.00000000000E+00  0.00000000000E+00  0.45593999997E+02  0.45594000000E+02  0.51100000000E-03 0. -1.
         11   -1    0    0    0    0 -0.00000000000E+00 -0.00000000000E+00 -0.45593999997E+02  0.45594000000E+02  0.51100000000E-03 0.  1.
    9900012    2    1    2    0    0 -0.42666169422E+01 -0.29949593563E+02 -0.31119776121E+02  0.47787278341E+02  0.20000033268E+02 0.  0.
         12    1    1    2    0    0  0.42666169422E+01  0.29949593563E+02  0.31119776121E+02  0.43400721659E+02  0.00000000000E+00 0. -1.
         11    1    3    3    0    0 -0.13826845452E+01  0.76379208226E+00  0.41273310755E+00  0.16326493119E+01  0.51100000000E-03 0. -1.
        -11    1    3    3    0    0 -0.81114630694E+01 -0.16228714359E+02 -0.14792652010E+02  0.23409176761E+02  0.51100000000E-03 0.  1.
        -12    1    3    3    0    0  0.52275306725E+01 -0.14484671286E+02 -0.16739857218E+02  0.22745452268E+02  0.00000000000E+00 0.  1.
</event>
<event>
 7    1  0.2328615E-009  0.4778727E+02  0.7816164E-02  0.1312668E+00
        -11   -1    0    0    0    0  0.00000000000E+00  0.00000000000E+00  0.45593999997E+02  0.45594000000E+02  0.51100000000E-03 0.  1.
         11   -1    0    0    0    0 -0.00000000000E+00 -0.00000000000E+00 -0.45593999997E+02  0.45594000000E+02  0.51100000000E-03 0. -1.
    9900012    2    1    2    0    0  0.16246718228E+02 -0.44894037040E+01  0.39993910178E+02  0.47787269014E+02  0.19999990744E+02 0.  0.
         12    1    1    2    0    0 -0.16246718228E+02  0.44894037040E+01 -0.39993910178E+02  0.43400730986E+02  0.00000000000E+00 0. -1.
         11    1    3    3    0    0  0.56368727823E+00 -0.23690032340E+01  0.48135080278E+01  0.53944211427E+01  0.51100000000E-03 0. -1.
        -11    1    3    3    0    0  0.18173624559E+02 -0.37680674947E+01  0.34722450370E+02  0.39371658870E+02  0.51100000000E-03 0.  1.
        -12    1    3    3    0    0 -0.24905936088E+01  0.16476670247E+01  0.45795177988E+00  0.30211890012E+01  0.00000000000E+00 0.  1.
</event>
<event>
 7    1  0.2328615E-009  0.4778731E+02  0.7816164E-02  0.1312668E+00
        -11   -1    0    0    0    0  0.00000000000E+00  0.00000000000E+00  0.45593999997E+02  0.45594000000E+02  0.51100000000E-03 0. -1.
         11   -1    0    0    0    0 -0.00000000000E+00 -0.00000000000E+00 -0.45593999997E+02  0.45594000000E+02  0.51100000000E-03 0.  1.
    9900012    2    1    2    0    0 -0.17662468364E+02 -0.29418572768E+02 -0.26574515387E+02  0.47787307834E+02  0.20000167737E+02 0.  0.
         12    1    1    2    0    0  0.17662468364E+02  0.29418572768E+02  0.26574515387E+02  0.43400692166E+02  0.00000000000E+00 0. -1.
         11    1    3    3    0    0 -0.18705465584E+02 -0.20599525819E+02 -0.12491294269E+02  0.30500284252E+02  0.51100000000E-03 0.  1.
        -11    1    3    3    0    0 -0.17682646398E+01 -0.42445008283E+01 -0.55794094181E+01  0.72299624365E+01  0.51100000000E-03 0. -1.
         12    1    3    3    0    0  0.28112618591E+01 -0.45745461202E+01 -0.85038117000E+01  0.10057061145E+02  0.00000000000E+00 0. -1.
</event>
<event>
 7    1  0.2328615E-009  0.4778727E+02  0.7816164E-02  0.1312668E+00
        -11   -1    0    0    0    0  0.00000000000E+00  0.00000000000E+00  0.45593999997E+02  0.45594000000E+02  0.51100000000E-03 0. -1.
         11   -1    0    0    0    0 -0.00000000000E+00 -0.00000000000E+00 -0.45593999997E+02  0.45594000000E+02  0.51100000000E-03 0.  1.
    9900012    2    1    2    0    0 -0.19859824521E+02  0.22063391468E+02 -0.31660975210E+02  0.47787271615E+02  0.20000002604E+02 0.  0.
         12    1    1    2    0    0  0.19859824521E+02 -0.22063391468E+02  0.31660975210E+02  0.43400728385E+02  0.00000000000E+00 0. -1.
         11    1    3    3    0    0 -0.13792087925E+00  0.15047709657E+01 -0.83192346861E+00  0.17249506506E+01  0.51100000000E-03 0. -1.
        -11    1    3    3    0    0 -0.18474315956E+02  0.16723814053E+02 -0.13643673317E+02  0.28410141294E+02  0.51100000000E-03 0.  1.
         12    1    3    3    0    0 -0.12475876852E+01  0.38348064499E+01 -0.17185378424E+02  0.17652179671E+02  0.00000000000E+00 0. -1.
</event>
<event>
 7    1  0.2328615E-009  0.4778727E+02  0.7816164E-02  0.1312668E+00
        -11   -1    0    0    0    0  0.00000000000E+00  0.00000000000E+00  0.45593999997E+02  0.45594000000E+02  0.51100000000E-03 0.  1.
         11   -1    0    0    0    0 -0.00000000000E+00 -0.00000000000E+00 -0.45593999997E+02  0.45594000000E+02  0.51100000000E-03 0. -1.
    9900012    2    1    2    0    0 -0.23814340070E+02 -0.78161662962E+01  0.35431743203E+02  0.47787266424E+02  0.19999978935E+02 0.  0.
         12    1    1    2    0    0  0.23814340070E+02  0.78161662962E+01 -0.35431743203E+02  0.43400733576E+02  0.00000000000E+00 0. -1.
         11    1    3    3    0    0 -0.17529030814E+01 -0.48177030293E+01  0.14309617913E+02  0.15200266339E+02  0.51100000000E-03 0.  1.
        -11    1    3    3    0    0 -0.66608486339E+01 -0.59022790471E+01  0.55184124232E+01  0.10471708476E+02  0.51100000000E-03 0. -1.
        -12    1    3    3    0    0 -0.15400588355E+02  0.29038157802E+01  0.15603712866E+02  0.22115291609E+02  0.00000000000E+00 0.  1.
</event>
<event>
 7    1  0.2328615E-009  0.4778727E+02  0.7816164E-02  0.1312668E+00
        -11   -1    0    0    0    0  0.00000000000E+00  0.00000000000E+00  0.45593999997E+02  0.45594000000E+02  0.51100000000E-03 0.  1.
         11   -1    0    0    0    0 -0.00000000000E+00 -0.00000000000E+00 -0.45593999997E+02  0.45594000000E+02  0.51100000000E-03 0. -1.
    9900012    2    1    2    0    0  0.36583510204E+02  0.17969913630E+02  0.14911480864E+02  0.47787271016E+02  0.19999999872E+02 0.  0.
         12    1    1    2    0    0 -0.36583510204E+02 -0.17969913630E+02 -0.14911480864E+02  0.43400728984E+02  0.00000000000E+00 0. -1.
         11    1    3    3    0    0  0.32703627431E+01 -0.18091996981E+00  0.11794380882E+00  0.32774861571E+01  0.51100000000E-03 0. -1.
        -11    1    3    3    0    0  0.15011465269E+02  0.17752782466E+02  0.51234048111E+01  0.23806609417E+02  0.51100000000E-03 0.  1.
        -12    1    3    3    0    0  0.18301682192E+02  0.39805113407E+00  0.96701322441E+01  0.20703175442E+02  0.00000000000E+00 0.  1.
</event>
<event>
 7    1  0.2328615E-009  0.4778724E+02  0.7816164E-02  0.1312668E+00
        -11   -1    0    0    0    0  0.00000000000E+00  0.00000000000E+00  0.45593999997E+02  0.45594000000E+02  0.51100000000E-03 0. -1.
         11   -1    0    0    0    0 -0.00000000000E+00 -0.00000000000E+00 -0.45593999997E+02  0.45594000000E+02  0.51100000000E-03 0.  1.
    9900012    2    1    2    0    0 -0.11221695547E+02  0.26393944238E+02 -0.32573905978E+02  0.47787238555E+02  0.19999851867E+02 0.  0.
         12    1    1    2    0    0  0.11221695547E+02 -0.26393944238E+02  0.32573905978E+02  0.43400761445E+02  0.00000000000E+00 0. -1.
         11    1    3    3    0    0 -0.11106665760E+01  0.32464690333E+01  0.77308155875E-02  0.34312099111E+01  0.51100000000E-03 0. -1.
        -11    1    3    3    0    0 -0.77797892273E+01  0.25433074429E+02 -0.30574422564E+02  0.40523594494E+02  0.51100000000E-03 0.  1.
        -12    1    3    3    0    0 -0.23312397433E+01 -0.22855992239E+01 -0.20072142293E+01  0.38324341501E+01  0.00000000000E+00 0.  1.
</event>
<event>
 7    1  0.2328615E-009  0.4778728E+02  0.7816164E-02  0.1312668E+00
        -11   -1    0    0    0    0  0.00000000000E+00  0.00000000000E+00  0.45593999997E+02  0.45594000000E+02  0.51100000000E-03 0.  1.
         11   -1    0    0    0    0 -0.00000000000E+00 -0.00000000000E+00 -0.45593999997E+02  0.45594000000E+02  0.51100000000E-03 0. -1.
    9900012    2    1    2    0    0 -0.12385789540E+02  0.32920198260E+02  0.25425884451E+02  0.47787276088E+02  0.20000022994E+02 0.  0.
         12    1    1    2    0    0  0.12385789540E+02 -0.32920198260E+02 -0.25425884451E+02  0.43400723912E+02  0.00000000000E+00 0. -1.
         11    1    3    3    0    0 -0.77661963581E+00 -0.13372930670E+01  0.82111971978E+00  0.17509222316E+01  0.51100000000E-03 0. -1.
        -11    1    3    3    0    0 -0.75687239904E+01  0.31756629973E+02  0.16349790924E+02  0.36511433738E+02  0.51100000000E-03 0.  1.
         12    1    3    3    0    0 -0.40404459141E+01  0.25008613539E+01  0.82549738073E+01  0.95249201180E+01  0.00000000000E+00 0. -1.
</event>
<event>
 7    1  0.2328615E-009  0.4778727E+02  0.7816164E-02  0.1312668E+00
        -11   -1    0    0    0    0  0.00000000000E+00  0.00000000000E+00  0.45593999997E+02  0.45594000000E+02  0.51100000000E-03 0. -1.
         11   -1    0    0    0    0 -0.00000000000E+00 -0.00000000000E+00 -0.45593999997E+02  0.45594000000E+02  0.51100000000E-03 0.  1.
    9900012    2    1    2    0    0  0.35020514352E+02  0.74935520879E+01 -0.24515981853E+02  0.47787272879E+02  0.20000008366E+02 0.  0.
         12    1    1    2    0    0 -0.35020514352E+02 -0.74935520879E+01  0.24515981853E+02  0.43400727121E+02  0.00000000000E+00 0. -1.
         11    1    3    3    0    0  0.16866079340E+00 -0.18521493074E+00 -0.41672372817E+01  0.41747596167E+01  0.51100000000E-03 0. -1.
        -11    1    3    3    0    0  0.15541461418E+02  0.46700684557E+01 -0.17493857471E+02  0.23861718544E+02  0.51100000000E-03 0.  1.
         12    1    3    3    0    0  0.19310392140E+02  0.30086985629E+01 -0.28548871004E+01  0.19750794719E+02  0.00000000000E+00 0. -1.
</event>
<event>
 7    1  0.2328615E-009  0.4778727E+02  0.7816164E-02  0.1312668E+00
        -11   -1    0    0    0    0  0.00000000000E+00  0.00000000000E+00  0.45593999997E+02  0.45594000000E+02  0.51100000000E-03 0. -1.
         11   -1    0    0    0    0 -0.00000000000E+00 -0.00000000000E+00 -0.45593999997E+02  0.45594000000E+02  0.51100000000E-03 0.  1.
    9900012    2    1    2    0    0  0.21834043139E+02  0.29907963506E+02 -0.22636511399E+02  0.47787269947E+02  0.19999994994E+02 0.  0.
         12    1    1    2    0    0 -0.21834043139E+02 -0.29907963506E+02  0.22636511399E+02  0.43400730053E+02  0.00000000000E+00 0. -1.
         11    1    3    3    0    0  0.66154134694E-01  0.28846511911E+01  0.18972872444E+01  0.34533010313E+01  0.51100000000E-03 0. -1.
        -11    1    3    3    0    0 -0.14907137136E+01  0.12795316291E+01 -0.23902666387E+00  0.19790307155E+01  0.51100000000E-03 0.  1.
        -12    1    3    3    0    0  0.23258602717E+02  0.25743780686E+02 -0.24294771980E+02  0.42354938200E+02  0.00000000000E+00 0.  1.
</event>
<event>
 7    1  0.2328615E-009  0.4778727E+02  0.7816164E-02  0.1312668E+00
        -11   -1    0    0    0    0  0.00000000000E+00  0.00000000000E+00  0.45593999997E+02  0.45594000000E+02  0.51100000000E-03 0.  1.
         11   -1    0    0    0    0 -0.00000000000E+00 -0.00000000000E+00 -0.45593999997E+02  0.45594000000E+02  0.51100000000E-03 0. -1.
    9900012    2    1    2    0    0  0.17258855414E+02  0.31686285414E+02  0.24119173680E+02  0.47787270599E+02  0.19999997969E+02 0.  0.
         12    1    1    2    0    0 -0.17258855414E+02 -0.31686285414E+02 -0.24119173680E+02  0.43400729401E+02  0.00000000000E+00 0. -1.
         11    1    3    3    0    0  0.52152879866E-01  0.72876943742E+01  0.17467521712E+01  0.74942879998E+01  0.51100000000E-03 0. -1.
        -11    1    3    3    0    0 -0.15190838313E+01  0.85131791824E+01  0.83209832450E+01  0.12000858215E+02  0.51100000000E-03 0.  1.
        -12    1    3    3    0    0  0.18725786365E+02  0.15885411857E+02  0.14051438264E+02  0.28292124384E+02  0.00000000000E+00 0.  1.
</event>
<event>
 7    1  0.2328615E-009  0.4778727E+02  0.7816164E-02  0.1312668E+00
        -11   -1    0    0    0    0  0.00000000000E+00  0.00000000000E+00  0.45593999997E+02  0.45594000000E+02  0.51100000000E-03 0.  1.
         11   -1    0    0    0    0 -0.00000000000E+00 -0.00000000000E+00 -0.45593999997E+02  0.45594000000E+02  0.51100000000E-03 0. -1.
    9900012    2    1    2    0    0  0.24529446833E+02  0.16541522643E+02  0.31753865119E+02  0.47787266328E+02  0.19999978498E+02 0.  0.
         12    1    1    2    0    0 -0.24529446833E+02 -0.16541522643E+02 -0.31753865119E+02  0.43400733672E+02  0.00000000000E+00 0. -1.
         11    1    3    3    0    0  0.24517176169E+01  0.31756892573E+01  0.11287480234E+02  0.11979279270E+02  0.51100000000E-03 0. -1.
        -11    1    3    3    0    0  0.19443940033E+02  0.91279132604E+01  0.21839848158E+02  0.30632736938E+02  0.51100000000E-03 0.  1.
         12    1    3    3    0    0  0.26337891831E+01  0.42379201251E+01 -0.13734632732E+01  0.51752501206E+01  0.00000000000E+00 0. -1.
</event>
<event>
 7    1  0.2328615E-009  0.4778727E+02  0.7816164E-02  0.1312668E+00
        -11   -1    0    0    0    0  0.00000000000E+00  0.00000000000E+00  0.45593999997E+02  0.45594000000E+02  0.51100000000E-03 0. -1.
         11   -1    0    0    0    0 -0.00000000000E+00 -0.00000000000E+00 -0.45593999997E+02  0.45594000000E+02  0.51100000000E-03 0.  1.
    9900012    2    1    2    0    0  0.13809950464E+02 -0.41143837560E+02 -0.30489223625E+00  0.47787273505E+02  0.20000011219E+02 0.  0.
         12    1    1    2    0    0 -0.13809950464E+02  0.41143837560E+02  0.30489223625E+00  0.43400726495E+02  0.00000000000E+00 0. -1.
         11    1    3    3    0    0 -0.30143710811E+01 -0.94704376378E+01  0.30405539342E+01  0.10393295462E+02  0.51100000000E-03 0. -1.
        -11    1    3    3    0    0 -0.30285757320E-01  0.20773523004E+00  0.10446282135E+01  0.10655137346E+01  0.51100000000E-03 0.  1.
        -12    1    3    3    0    0  0.16854607302E+02 -0.31881135153E+02 -0.43900743839E+01  0.36328464309E+02  0.00000000000E+00 0.  1.
</event>
<event>
 7    1  0.2328615E-009  0.4778727E+02  0.7816164E-02  0.1312668E+00
        -11   -1    0    0    0    0  0.00000000000E+00  0.00000000000E+00  0.45593999997E+02  0.45594000000E+02  0.51100000000E-03 0. -1.
         11   -1    0    0    0    0 -0.00000000000E+00 -0.00000000000E+00 -0.45593999997E+02  0.45594000000E+02  0.51100000000E-03 0.  1.
    9900012    2    1    2    0    0  0.19619502466E+02  0.12994167296E+02 -0.36467105764E+02  0.47787273468E+02  0.20000011048E+02 0.  0.
         12    1    1    2    0    0 -0.19619502466E+02 -0.12994167296E+02  0.36467105764E+02  0.43400726532E+02  0.00000000000E+00 0. -1.
         11    1    3    3    0    0  0.96609604405E+01  0.53825337508E+01 -0.10402010664E+02  0.15182478465E+02  0.51100000000E-03 0. -1.
        -11    1    3    3    0    0  0.63759487201E+01  0.12166028954E+02 -0.17157434969E+02  0.21978229173E+02  0.51100000000E-03 0.  1.
        -12    1    3    3    0    0  0.35825933049E+01 -0.45543954091E+01 -0.89076601308E+01  0.10626565830E+02  0.00000000000E+00 0.  1.
</event>
<event>
 7    1  0.2328615E-009  0.4778728E+02  0.7816164E-02  0.1312668E+00
        -11   -1    0    0    0    0  0.00000000000E+00  0.00000000000E+00  0.45593999997E+02  0.45594000000E+02  0.51100000000E-03 0.  1.
         11   -1    0    0    0    0 -0.00000000000E+00 -0.00000000000E+00 -0.45593999997E+02  0.45594000000E+02  0.51100000000E-03 0. -1.
    9900012    2    1    2    0    0  0.17143538924E+02 -0.38822535932E+02  0.90847501401E+01  0.47787275258E+02  0.20000019209E+02 0.  0.
         12    1    1    2    0    0 -0.17143538924E+02  0.38822535932E+02 -0.90847501401E+01  0.43400724742E+02  0.00000000000E+00 0. -1.
         11    1    3    3    0    0  0.46646348131E+01 -0.66296245014E+01  0.25434204072E+01  0.84958652648E+01  0.51100000000E-03 0.  1.
        -11    1    3    3    0    0 -0.16006374217E+01 -0.18900465507E+02  0.38028047316E+00  0.18971933218E+02  0.51100000000E-03 0. -1.
         12    1    3    3    0    0  0.14079541532E+02 -0.13292445924E+02  0.61610492597E+01  0.20319476774E+02  0.00000000000E+00 0. -1.
</event>
<event>
 7    1  0.2328615E-009  0.4778727E+02  0.7816164E-02  0.1312668E+00
        -11   -1    0    0    0    0  0.00000000000E+00  0.00000000000E+00  0.45593999997E+02  0.45594000000E+02  0.51100000000E-03 0.  1.
         11   -1    0    0    0    0 -0.00000000000E+00 -0.00000000000E+00 -0.45593999997E+02  0.45594000000E+02  0.51100000000E-03 0. -1.
    9900012    2    1    2    0    0 -0.14894233835E+02  0.19637108731E+02  0.35723513628E+02  0.47787266518E+02  0.19999979363E+02 0.  0.
         12    1    1    2    0    0  0.14894233835E+02 -0.19637108731E+02 -0.35723513628E+02  0.43400733482E+02  0.00000000000E+00 0. -1.
         11    1    3    3    0    0  0.11704036780E+01 -0.13408042308E+01 -0.64622205724E+00  0.18934634834E+01  0.51100000000E-03 0. -1.
        -11    1    3    3    0    0 -0.37690517884E+01  0.54199583806E+00  0.28547084071E+01  0.47590830233E+01  0.51100000000E-03 0.  1.
        -12    1    3    3    0    0 -0.12295585725E+02  0.20435917123E+02  0.33515027278E+02  0.41134720012E+02  0.00000000000E+00 0.  1.
</event>
<event>
 7    1  0.2328615E-009  0.4778727E+02  0.7816164E-02  0.1312668E+00
        -11   -1    0    0    0    0  0.00000000000E+00  0.00000000000E+00  0.45593999997E+02  0.45594000000E+02  0.51100000000E-03 0.  1.
         11   -1    0    0    0    0 -0.00000000000E+00 -0.00000000000E+00 -0.45593999997E+02  0.45594000000E+02  0.51100000000E-03 0. -1.
    9900012    2    1    2    0    0 -0.10877884466E+02 -0.20433913752E+02  0.36711716566E+02  0.47787270342E+02  0.19999996796E+02 0.  0.
         12    1    1    2    0    0  0.10877884466E+02  0.20433913752E+02 -0.36711716566E+02  0.43400729658E+02  0.00000000000E+00 0. -1.
         11    1    3    3    0    0 -0.18204938622E+01 -0.88592180191E+00 -0.20394413219E+01  0.28737391162E+01  0.51100000000E-03 0. -1.
        -11    1    3    3    0    0  0.47359754781E+00 -0.54413483565E+01  0.69223112012E+01  0.88176504354E+01  0.51100000000E-03 0.  1.
         12    1    3    3    0    0 -0.95309881517E+01 -0.14106643593E+02  0.31828846687E+02  0.36095880790E+02  0.00000000000E+00 0. -1.
</event>
<event>
 7    1  0.2328615E-009  0.4778727E+02  0.7816164E-02  0.1312668E+00
        -11   -1    0    0    0    0  0.00000000000E+00  0.00000000000E+00  0.45593999997E+02  0.45594000000E+02  0.51100000000E-03 0.  1.
         11   -1    0    0    0    0 -0.00000000000E+00 -0.00000000000E+00 -0.45593999997E+02  0.45594000000E+02  0.51100000000E-03 0. -1.
    9900012    2    1    2    0    0  0.60288411781E+00  0.42177826893E+02  0.10212280391E+02  0.47787271648E+02  0.20000002754E+02 0.  0.
         12    1    1    2    0    0 -0.60288411781E+00 -0.42177826893E+02 -0.10212280391E+02  0.43400728352E+02  0.00000000000E+00 0. -1.
         11    1    3    3    0    0 -0.69955218820E+01  0.63267081323E+01  0.51560788740E+01  0.10749405184E+02  0.51100000000E-03 0. -1.
        -11    1    3    3    0    0  0.38627798605E+01  0.15600024709E+02  0.15091030235E+01  0.16141847211E+02  0.51100000000E-03 0.  1.
        -12    1    3    3    0    0  0.37356261393E+01  0.20251094051E+02  0.35470984938E+01  0.20896019254E+02  0.00000000000E+00 0.  1.
</event>
<event>
 7    1  0.2328615E-009  0.4778726E+02  0.7816164E-02  0.1312668E+00
        -11   -1    0    0    0    0  0.00000000000E+00  0.00000000000E+00  0.45593999997E+02  0.45594000000E+02  0.51100000000E-03 0.  1.
         11   -1    0    0    0    0 -0.00000000000E+00 -0.00000000000E+00 -0.45593999997E+02  0.45594000000E+02  0.51100000000E-03 0. -1.
    9900012    2    1    2    0    0  0.25093113639E+02 -0.58049806917E+01  0.34932248693E+02  0.47787260932E+02  0.19999953893E+02 0.  0.
         12    1    1    2    0    0 -0.25093113639E+02  0.58049806917E+01 -0.34932248693E+02  0.43400739068E+02  0.00000000000E+00 0. -1.
         11    1    3    3    0    0  0.86710662390E+01 -0.96845578717E+00  0.20992972159E+02  0.22733899284E+02  0.51100000000E-03 0. -1.
        -11    1    3    3    0    0  0.12132254796E+02  0.95050016372E+00  0.12969264225E+02  0.17784737046E+02  0.51100000000E-03 0.  1.
         12    1    3    3    0    0  0.42897926041E+01 -0.57870250683E+01  0.97001230873E+00  0.72686246021E+01  0.00000000000E+00 0. -1.
</event>
<event>
 7    1  0.2328615E-009  0.4778726E+02  0.7816164E-02  0.1312668E+00
        -11   -1    0    0    0    0  0.00000000000E+00  0.00000000000E+00  0.45593999997E+02  0.45594000000E+02  0.51100000000E-03 0.  1.
         11   -1    0    0    0    0 -0.00000000000E+00 -0.00000000000E+00 -0.45593999997E+02  0.45594000000E+02  0.51100000000E-03 0. -1.
    9900012    2    1    2    0    0 -0.41649702723E+02 -0.78800366844E+01  0.93183343262E+01  0.47787261876E+02  0.19999958199E+02 0.  0.
         12    1    1    2    0    0  0.41649702723E+02  0.78800366844E+01 -0.93183343262E+01  0.43400738124E+02  0.00000000000E+00 0. -1.
         11    1    3    3    0    0 -0.13818840835E+02 -0.30021026788E+00  0.61691682303E+01  0.15136351117E+02  0.51100000000E-03 0.  1.
        -11    1    3    3    0    0 -0.44345304299E+00  0.18400626934E+01 -0.25073876802E+01  0.31415719882E+01  0.51100000000E-03 0. -1.
         12    1    3    3    0    0 -0.27387408845E+02 -0.94198891099E+01  0.56565537761E+01  0.29509338771E+02  0.00000000000E+00 0. -1.
</event>
<event>
 7    1  0.2328615E-009  0.4778727E+02  0.7816164E-02  0.1312668E+00
        -11   -1    0    0    0    0  0.00000000000E+00  0.00000000000E+00  0.45593999997E+02  0.45594000000E+02  0.51100000000E-03 0.  1.
         11   -1    0    0    0    0 -0.00000000000E+00 -0.00000000000E+00 -0.45593999997E+02  0.45594000000E+02  0.51100000000E-03 0. -1.
    9900012    2    1    2    0    0  0.30865648842E+01  0.10363008453E+00  0.43290709197E+02  0.47787272762E+02  0.20000007831E+02 0.  0.
         12    1    1    2    0    0 -0.30865648842E+01 -0.10363008453E+00 -0.43290709197E+02  0.43400727238E+02  0.00000000000E+00 0. -1.
         11    1    3    3    0    0 -0.41111367533E+00 -0.11960897224E+01  0.19085477852E+02  0.19127339339E+02  0.51100000000E-03 0.  1.
        -11    1    3    3    0    0 -0.57443928516E+00 -0.61909104924E+01  0.14284263215E+02  0.15578752488E+02  0.51100000000E-03 0. -1.
         12    1    3    3    0    0  0.40721178447E+01  0.74906302994E+01  0.99209681300E+01  0.13081180935E+02  0.00000000000E+00 0. -1.
</event>
<event>
 7    1  0.2328615E-009  0.4778728E+02  0.7816164E-02  0.1312668E+00
        -11   -1    0    0    0    0  0.00000000000E+00  0.00000000000E+00  0.45593999997E+02  0.45594000000E+02  0.51100000000E-03 0.  1.
         11   -1    0    0    0    0 -0.00000000000E+00 -0.00000000000E+00 -0.45593999997E+02  0.45594000000E+02  0.51100000000E-03 0. -1.
    9900012    2    1    2    0    0 -0.17251120115E+02  0.10970894679E+02  0.38283951437E+02  0.47787278659E+02  0.20000034718E+02 0.  0.
         12    1    1    2    0    0  0.17251120115E+02 -0.10970894679E+02 -0.38283951437E+02  0.43400721341E+02  0.00000000000E+00 0. -1.
         11    1    3    3    0    0 -0.61718263467E+01  0.73575066873E+01  0.36970783574E+01  0.10290419513E+02  0.51100000000E-03 0. -1.
        -11    1    3    3    0    0 -0.42939504825E+01 -0.21872033069E+01  0.69743892939E+01  0.84772622547E+01  0.51100000000E-03 0.  1.
        -12    1    3    3    0    0 -0.67853432858E+01  0.58005912983E+01  0.27612483786E+02  0.29019596891E+02  0.00000000000E+00 0.  1.
</event>
<event>
 7    1  0.2328615E-009  0.4778727E+02  0.7816164E-02  0.1312668E+00
        -11   -1    0    0    0    0  0.00000000000E+00  0.00000000000E+00  0.45593999997E+02  0.45594000000E+02  0.51100000000E-03 0.  1.
         11   -1    0    0    0    0 -0.00000000000E+00 -0.00000000000E+00 -0.45593999997E+02  0.45594000000E+02  0.51100000000E-03 0. -1.
    9900012    2    1    2    0    0  0.20923196712E+02 -0.37891418823E+02  0.31754020779E+01  0.47787274667E+02  0.20000016516E+02 0.  0.
         12    1    1    2    0    0 -0.20923196712E+02  0.37891418823E+02 -0.31754020779E+01  0.43400725333E+02  0.00000000000E+00 0. -1.
         11    1    3    3    0    0  0.83473614421E+01 -0.13069586771E+02 -0.48193415667E+01  0.16239414854E+02  0.51100000000E-03 0. -1.
        -11    1    3    3    0    0 -0.85237139518E-01 -0.11220169856E+02 -0.23876049402E+00  0.11223033627E+02  0.51100000000E-03 0.  1.
        -12    1    3    3    0    0  0.12661072409E+02 -0.13601662197E+02  0.82335041387E+01  0.20324826186E+02  0.00000000000E+00 0.  1.
</event>
<event>
 7    1  0.2328615E-009  0.4778727E+02  0.7816164E-02  0.1312668E+00
        -11   -1    0    0    0    0  0.00000000000E+00  0.00000000000E+00  0.45593999997E+02  0.45594000000E+02  0.51100000000E-03 0. -1.
         11   -1    0    0    0    0 -0.00000000000E+00 -0.00000000000E+00 -0.45593999997E+02  0.45594000000E+02  0.51100000000E-03 0.  1.
    9900012    2    1    2    0    0  0.17682195392E+02  0.39068455760E+02 -0.66797305706E+01  0.47787273395E+02  0.20000010718E+02 0.  0.
         12    1    1    2    0    0 -0.17682195392E+02 -0.39068455760E+02  0.66797305706E+01  0.43400726605E+02  0.00000000000E+00 0. -1.
         11    1    3    3    0    0 -0.26016471273E+01  0.17942605358E+01  0.20880733837E+00  0.31672605531E+01  0.51100000000E-03 0. -1.
        -11    1    3    3    0    0  0.19522218491E+01  0.14237743497E+02 -0.46077325345E+01  0.15091577433E+02  0.51100000000E-03 0.  1.
        -12    1    3    3    0    0  0.18331620670E+02  0.23036451727E+02 -0.22808053744E+01  0.29528435409E+02  0.00000000000E+00 0.  1.
</event>
<event>
 7    1  0.2328615E-009  0.4778727E+02  0.7816164E-02  0.1312668E+00
        -11   -1    0    0    0    0  0.00000000000E+00  0.00000000000E+00  0.45593999997E+02  0.45594000000E+02  0.51100000000E-03 0.  1.
         11   -1    0    0    0    0 -0.00000000000E+00 -0.00000000000E+00 -0.45593999997E+02  0.45594000000E+02  0.51100000000E-03 0. -1.
    9900012    2    1    2    0    0  0.10502493267E+02 -0.36635956166E+02  0.20763620991E+02  0.47787267222E+02  0.19999982572E+02 0.  0.
         12    1    1    2    0    0 -0.10502493267E+02  0.36635956166E+02 -0.20763620991E+02  0.43400732778E+02  0.00000000000E+00 0. -1.
         11    1    3    3    0    0  0.80829175667E+01 -0.54993698953E+01  0.34457527020E+01  0.10365801348E+02  0.51100000000E-03 0. -1.
        -11    1    3    3    0    0 -0.21670587967E+01 -0.52395652065E+01 -0.44091397535E+00  0.56871427603E+01  0.51100000000E-03 0.  1.
        -12    1    3    3    0    0  0.45866344973E+01 -0.25897021064E+02  0.17758782264E+02  0.31734323114E+02  0.00000000000E+00 0.  1.
</event>
<event>
 7    1  0.2328615E-009  0.4778727E+02  0.7816164E-02  0.1312668E+00
        -11   -1    0    0    0    0  0.00000000000E+00  0.00000000000E+00  0.45593999997E+02  0.45594000000E+02  0.51100000000E-03 0.  1.
         11   -1    0    0    0    0 -0.00000000000E+00 -0.00000000000E+00 -0.45593999997E+02  0.45594000000E+02  0.51100000000E-03 0. -1.
    9900012    2    1    2    0    0 -0.24409911995E+02 -0.24815980295E+02  0.25921934756E+02  0.47787269786E+02  0.19999994262E+02 0.  0.
         12    1    1    2    0    0  0.24409911995E+02  0.24815980295E+02 -0.25921934756E+02  0.43400730214E+02  0.00000000000E+00 0. -1.
         11    1    3    3    0    0  0.16238908482E+01 -0.44960623998E+01  0.29174319512E+01  0.56002685686E+01  0.51100000000E-03 0. -1.
        -11    1    3    3    0    0 -0.52466760304E+01 -0.70493816842E+01  0.12734330634E+02  0.15472057667E+02  0.51100000000E-03 0.  1.
        -12    1    3    3    0    0 -0.20787126813E+02 -0.13270536211E+02  0.10270172171E+02  0.26714943550E+02  0.00000000000E+00 0.  1.
</event>
<event>
 7    1  0.2328615E-009  0.4778727E+02  0.7816164E-02  0.1312668E+00
        -11   -1    0    0    0    0  0.00000000000E+00  0.00000000000E+00  0.45593999997E+02  0.45594000000E+02  0.51100000000E-03 0.  1.
         11   -1    0    0    0    0 -0.00000000000E+00 -0.00000000000E+00 -0.45593999997E+02  0.45594000000E+02  0.51100000000E-03 0. -1.
    9900012    2    1    2    0    0 -0.30575871163E+02 -0.19243811964E+02  0.24050266804E+02  0.47787268098E+02  0.19999986566E+02 0.  0.
         12    1    1    2    0    0  0.30575871163E+02  0.19243811964E+02 -0.24050266804E+02  0.43400731902E+02  0.00000000000E+00 0. -1.
         11    1    3    3    0    0 -0.15890783635E+02 -0.12188047806E+02  0.82242596672E+01  0.21649571847E+02  0.51100000000E-03 0.  1.
        -11    1    3    3    0    0 -0.17021871545E+02 -0.63513212628E+01  0.15002671638E+02  0.23561908861E+02  0.51100000000E-03 0. -1.
         12    1    3    3    0    0  0.23367840161E+01 -0.70444289547E+00  0.82333549877E+00  0.25757873892E+01  0.00000000000E+00 0. -1.
</event>
<event>
 7    1  0.2598471E-009  0.4778728E+02  0.7816164E-02  0.1312668E+00
        -11   -1    0    0    0    0  0.00000000000E+00  0.00000000000E+00  0.45593999997E+02  0.45594000000E+02  0.51100000000E-03 0. -1.
         11   -1    0    0    0    0 -0.00000000000E+00 -0.00000000000E+00 -0.45593999997E+02  0.45594000000E+02  0.51100000000E-03 0.  1.
    9900012    2    1    2    0    0  0.15456189834E+02 -0.54997657815E-01 -0.40555221483E+02  0.47787276291E+02  0.20000023922E+02 0.  0.
         12    1    1    2    0    0 -0.15456189834E+02  0.54997657815E-01  0.40555221483E+02  0.43400723709E+02  0.00000000000E+00 0. -1.
         11    1    3    3    0    0 -0.52886971101E+00  0.74937598148E+00  0.72214238148E+00  0.11673720114E+01  0.51100000000E-03 0. -1.
        -11    1    3    3    0    0 -0.22586386845E+01  0.22147938122E+01 -0.54378521079E+01  0.62910250473E+01  0.51100000000E-03 0.  1.
        -12    1    3    3    0    0  0.18243698230E+02 -0.30191674515E+01 -0.35839511756E+02  0.40328879232E+02  0.00000000000E+00 0.  1.
</event>
<event>
 7    1  0.2328615E-009  0.4778726E+02  0.7816164E-02  0.1312668E+00
        -11   -1    0    0    0    0  0.00000000000E+00  0.00000000000E+00  0.45593999997E+02  0.45594000000E+02  0.51100000000E-03 0.  1.
         11   -1    0    0    0    0 -0.00000000000E+00 -0.00000000000E+00 -0.45593999997E+02  0.45594000000E+02  0.51100000000E-03 0. -1.
    9900012    2    1    2    0    0  0.30693874145E+02 -0.10425481922E+02  0.28858618362E+02  0.47787257643E+02  0.19999938898E+02 0.  0.
         12    1    1    2    0    0 -0.30693874145E+02  0.10425481922E+02 -0.28858618362E+02  0.43400742357E+02  0.00000000000E+00 0. -1.
         11    1    3    3    0    0  0.16621915373E+01 -0.16505658928E+01 -0.51054094689E-01  0.23430440147E+01  0.51100000000E-03 0. -1.
        -11    1    3    3    0    0  0.18917720606E+02 -0.13044263462E+02  0.13926702530E+02  0.26869797279E+02  0.51100000000E-03 0.  1.
         12    1    3    3    0    0  0.10113962001E+02  0.42693474330E+01  0.14982969927E+02  0.18574416349E+02  0.00000000000E+00 0. -1.
</event>
<event>
 7    1  0.2328615E-009  0.4778727E+02  0.7816164E-02  0.1312668E+00
        -11   -1    0    0    0    0  0.00000000000E+00  0.00000000000E+00  0.45593999997E+02  0.45594000000E+02  0.51100000000E-03 0. -1.
         11   -1    0    0    0    0 -0.00000000000E+00 -0.00000000000E+00 -0.45593999997E+02  0.45594000000E+02  0.51100000000E-03 0.  1.
    9900012    2    1    2    0    0 -0.65881996306E+01  0.39592432512E+02 -0.16512368440E+02  0.47787269614E+02  0.19999993477E+02 0.  0.
         12    1    1    2    0    0  0.65881996306E+01 -0.39592432512E+02  0.16512368440E+02  0.43400730386E+02  0.00000000000E+00 0. -1.
         11    1    3    3    0    0 -0.38494119338E+01  0.59670663677E+01 -0.15367774868E+01  0.72653656878E+01  0.51100000000E-03 0.  1.
        -11    1    3    3    0    0 -0.66630630404E+01  0.30836826031E+02 -0.89187685469E+01  0.32784915455E+02  0.51100000000E-03 0. -1.
         12    1    3    3    0    0  0.39242753436E+01  0.27885401129E+01 -0.60568224064E+01  0.77369884708E+01  0.00000000000E+00 0. -1.
</event>
<event>
 7    1  0.2328615E-009  0.4778728E+02  0.7816164E-02  0.1312668E+00
        -11   -1    0    0    0    0  0.00000000000E+00  0.00000000000E+00  0.45593999997E+02  0.45594000000E+02  0.51100000000E-03 0.  1.
         11   -1    0    0    0    0 -0.00000000000E+00 -0.00000000000E+00 -0.45593999997E+02  0.45594000000E+02  0.51100000000E-03 0. -1.
    9900012    2    1    2    0    0  0.20208398902E+02  0.33833356160E+02  0.18180960619E+02  0.47787277606E+02  0.20000029918E+02 0.  0.
         12    1    1    2    0    0 -0.20208398902E+02 -0.33833356160E+02 -0.18180960619E+02  0.43400722394E+02  0.00000000000E+00 0. -1.
         11    1    3    3    0    0 -0.63121543359E+00  0.99664957662E+01  0.31556737614E+00  0.99914490346E+01  0.51100000000E-03 0. -1.
        -11    1    3    3    0    0  0.14011460114E+02  0.18025581833E+02  0.17563732080E+02  0.28804987412E+02  0.51100000000E-03 0.  1.
         12    1    3    3    0    0  0.68281542219E+01  0.58412785611E+01  0.30166116270E+00  0.89908411600E+01  0.00000000000E+00 0. -1.
</event>
<event>
 7    1  0.2328615E-009  0.4778727E+02  0.7816164E-02  0.1312668E+00
        -11   -1    0    0    0    0  0.00000000000E+00  0.00000000000E+00  0.45593999997E+02  0.45594000000E+02  0.51100000000E-03 0.  1.
         11   -1    0    0    0    0 -0.00000000000E+00 -0.00000000000E+00 -0.45593999997E+02  0.45594000000E+02  0.51100000000E-03 0. -1.
    9900012    2    1    2    0    0 -0.22218797878E+02  0.33949909892E+02 -0.15406219240E+02  0.47787274752E+02  0.20000016904E+02 0.  0.
         12    1    1    2    0    0  0.22218797878E+02 -0.33949909892E+02  0.15406219240E+02  0.43400725248E+02  0.00000000000E+00 0. -1.
         11    1    3    3    0    0 -0.48723796429E+01  0.26779925824E+01 -0.38613139038E+01  0.67691560021E+01  0.51100000000E-03 0. -1.
        -11    1    3    3    0    0 -0.10798015395E+02  0.13249016380E+02 -0.13448114681E+02  0.21748226600E+02  0.51100000000E-03 0.  1.
        -12    1    3    3    0    0 -0.65484028400E+01  0.18022900929E+02  0.19032093446E+01  0.19269892150E+02  0.00000000000E+00 0.  1.
</event>
<event>
 7    1  0.2328615E-009  0.4778727E+02  0.7816164E-02  0.1312668E+00
        -11   -1    0    0    0    0  0.00000000000E+00  0.00000000000E+00  0.45593999997E+02  0.45594000000E+02  0.51100000000E-03 0. -1.
         11   -1    0    0    0    0 -0.00000000000E+00 -0.00000000000E+00 -0.45593999997E+02  0.45594000000E+02  0.51100000000E-03 0.  1.
    9900012    2    1    2    0    0  0.21589455741E+02 -0.30613524994E+02  0.21916445378E+02  0.47787273165E+02  0.20000009670E+02 0.  0.
         12    1    1    2    0    0 -0.21589455741E+02  0.30613524994E+02 -0.21916445378E+02  0.43400726835E+02  0.00000000000E+00 0. -1.
         11    1    3    3    0    0  0.40286811826E+01 -0.19598053306E+02  0.92317019648E+01  0.22034933331E+02  0.51100000000E-03 0. -1.
        -11    1    3    3    0    0  0.84158905226E+01 -0.86003376944E+01  0.34134854443E+01  0.12507793766E+02  0.51100000000E-03 0.  1.
        -12    1    3    3    0    0  0.91448840360E+01 -0.24151339931E+01  0.92712579694E+01  0.13244546069E+02  0.00000000000E+00 0.  1.
</event>
<event>
 7    1  0.2328615E-009  0.4778727E+02  0.7816164E-02  0.1312668E+00
        -11   -1    0    0    0    0  0.00000000000E+00  0.00000000000E+00  0.45593999997E+02  0.45594000000E+02  0.51100000000E-03 0. -1.
         11   -1    0    0    0    0 -0.00000000000E+00 -0.00000000000E+00 -0.45593999997E+02  0.45594000000E+02  0.51100000000E-03 0.  1.
    9900012    2    1    2    0    0  0.18667751300E+02  0.38086799582E+02  0.91942355272E+01  0.47787271804E+02  0.20000003464E+02 0.  0.
         12    1    1    2    0    0 -0.18667751300E+02 -0.38086799582E+02 -0.91942355272E+01  0.43400728196E+02  0.00000000000E+00 0. -1.
         11    1    3    3    0    0  0.38060112674E+01  0.18910853763E+01  0.27363219059E+01  0.50546397994E+01  0.51100000000E-03 0. -1.
        -11    1    3    3    0    0  0.11928062246E+00  0.93167533851E+01 -0.42753012386E+01  0.10251552197E+02  0.51100000000E-03 0.  1.
        -12    1    3    3    0    0  0.14742459410E+02  0.26878960821E+02  0.10733214860E+02  0.32481079808E+02  0.00000000000E+00 0.  1.
</event>
<event>
 7    1  0.2328615E-009  0.4778727E+02  0.7816164E-02  0.1312668E+00
        -11   -1    0    0    0    0  0.00000000000E+00  0.00000000000E+00  0.45593999997E+02  0.45594000000E+02  0.51100000000E-03 0. -1.
         11   -1    0    0    0    0 -0.00000000000E+00 -0.00000000000E+00 -0.45593999997E+02  0.45594000000E+02  0.51100000000E-03 0.  1.
    9900012    2    1    2    0    0  0.10986161639E+02 -0.13752541814E+02 -0.39671088538E+02  0.47787269365E+02  0.19999992342E+02 0.  0.
         12    1    1    2    0    0 -0.10986161639E+02  0.13752541814E+02  0.39671088538E+02  0.43400730635E+02  0.00000000000E+00 0. -1.
         11    1    3    3    0    0  0.50546461640E+01 -0.18964824995E+01 -0.61045536303E+01  0.81493354944E+01  0.51100000000E-03 0. -1.
        -11    1    3    3    0    0  0.11521209414E+02 -0.87769274165E+01 -0.25784396931E+02  0.29573769570E+02  0.51100000000E-03 0.  1.
         12    1    3    3    0    0 -0.55896939389E+01 -0.30791318977E+01 -0.77821379767E+01  0.10064164300E+02  0.00000000000E+00 0. -1.
</event>
<event>
 7    1  0.2328615E-009  0.4778727E+02  0.7816164E-02  0.1312668E+00
        -11   -1    0    0    0    0  0.00000000000E+00  0.00000000000E+00  0.45593999997E+02  0.45594000000E+02  0.51100000000E-03 0.  1.
         11   -1    0    0    0    0 -0.00000000000E+00 -0.00000000000E+00 -0.45593999997E+02  0.45594000000E+02  0.51100000000E-03 0. -1.
    9900012    2    1    2    0    0 -0.18139614207E+02  0.18317681797E+02  0.34914755165E+02  0.47787271916E+02  0.20000003974E+02 0.  0.
         12    1    1    2    0    0  0.18139614207E+02 -0.18317681797E+02 -0.34914755165E+02  0.43400728084E+02  0.00000000000E+00 0. -1.
         11    1    3    3    0    0 -0.12999562298E+02  0.16278833950E+01  0.18127833503E+02  0.22366425107E+02  0.51100000000E-03 0. -1.
        -11    1    3    3    0    0 -0.69509441193E+01  0.14417252948E+02  0.15360787700E+02  0.22183926743E+02  0.51100000000E-03 0.  1.
         12    1    3    3    0    0  0.18108922106E+01  0.22725454536E+01  0.14261339625E+01  0.32369200664E+01  0.00000000000E+00 0. -1.
</event>
<event>
 7    1  0.2328615E-009  0.4778727E+02  0.7816164E-02  0.1312668E+00
        -11   -1    0    0    0    0  0.00000000000E+00  0.00000000000E+00  0.45593999997E+02  0.45594000000E+02  0.51100000000E-03 0.  1.
         11   -1    0    0    0    0 -0.00000000000E+00 -0.00000000000E+00 -0.45593999997E+02  0.45594000000E+02  0.51100000000E-03 0. -1.
    9900012    2    1    2    0    0  0.29967440455E+02  0.26424115021E+02  0.16951156844E+02  0.47787273504E+02  0.20000011214E+02 0.  0.
         12    1    1    2    0    0 -0.29967440455E+02 -0.26424115021E+02 -0.16951156844E+02  0.43400726496E+02  0.00000000000E+00 0. -1.
         11    1    3    3    0    0 -0.11859344981E+00  0.98758687309E+00 -0.22131702698E+01  0.24264202320E+01  0.51100000000E-03 0. -1.
        -11    1    3    3    0    0  0.53980377321E+01  0.92252731714E+01  0.94572695374E+01  0.14271805205E+02  0.51100000000E-03 0.  1.
         12    1    3    3    0    0  0.24687996173E+02  0.16211254976E+02  0.97070575759E+01  0.31089048067E+02  0.00000000000E+00 0. -1.
</event>
<event>
 7    1  0.2328615E-009  0.4778727E+02  0.7816164E-02  0.1312668E+00
        -11   -1    0    0    0    0  0.00000000000E+00  0.00000000000E+00  0.45593999997E+02  0.45594000000E+02  0.51100000000E-03 0. -1.
         11   -1    0    0    0    0 -0.00000000000E+00 -0.00000000000E+00 -0.45593999997E+02  0.45594000000E+02  0.51100000000E-03 0.  1.
    9900012    2    1    2    0    0 -0.48284558456E+01 -0.42347449628E+02  0.81855192138E+01  0.47787271888E+02  0.20000003847E+02 0.  0.
         12    1    1    2    0    0  0.48284558456E+01  0.42347449628E+02 -0.81855192138E+01  0.43400728112E+02  0.00000000000E+00 0. -1.
         11    1    3    3    0    0  0.41048988179E+00 -0.82574832884E+00  0.33584162492E+01  0.34827176471E+01  0.51100000000E-03 0. -1.
        -11    1    3    3    0    0  0.40906728533E+01 -0.17875336885E+02  0.45027939280E+01  0.18882172188E+02  0.51100000000E-03 0.  1.
        -12    1    3    3    0    0 -0.93296185806E+01 -0.23646364415E+02  0.32430903659E+00  0.25422382053E+02  0.00000000000E+00 0.  1.
</event>
<event>
 7    1  0.2328615E-009  0.4778727E+02  0.7816164E-02  0.1312668E+00
        -11   -1    0    0    0    0  0.00000000000E+00  0.00000000000E+00  0.45593999997E+02  0.45594000000E+02  0.51100000000E-03 0. -1.
         11   -1    0    0    0    0 -0.00000000000E+00 -0.00000000000E+00 -0.45593999997E+02  0.45594000000E+02  0.51100000000E-03 0.  1.
    9900012    2    1    2    0    0 -0.17959121968E+02  0.34247510981E+02 -0.19702824667E+02  0.47787269935E+02  0.19999994944E+02 0.  0.
         12    1    1    2    0    0  0.17959121968E+02 -0.34247510981E+02  0.19702824667E+02  0.43400730065E+02  0.00000000000E+00 0. -1.
         11    1    3    3    0    0 -0.88650107482E+01  0.46397122114E+01 -0.73105221741E+01  0.12391895726E+02  0.51100000000E-03 0. -1.
        -11    1    3    3    0    0  0.90941746685E+00  0.14811762337E+00  0.11418679787E+01  0.14672565220E+01  0.51100000000E-03 0.  1.
        -12    1    3    3    0    0 -0.10003528687E+02  0.29459681146E+02 -0.13534170472E+02  0.33928117687E+02  0.00000000000E+00 0.  1.
</event>
<event>
 7    1  0.2328615E-009  0.4778728E+02  0.7816164E-02  0.1312668E+00
        -11   -1    0    0    0    0  0.00000000000E+00  0.00000000000E+00  0.45593999997E+02  0.45594000000E+02  0.51100000000E-03 0. -1.
         11   -1    0    0    0    0 -0.00000000000E+00 -0.00000000000E+00 -0.45593999997E+02  0.45594000000E+02  0.51100000000E-03 0.  1.
    9900012    2    1    2    0    0  0.12157543522E+02 -0.29219315640E+02 -0.29699302749E+02  0.47787275873E+02  0.20000022014E+02 0.  0.
         12    1    1    2    0    0 -0.12157543522E+02  0.29219315640E+02  0.29699302749E+02  0.43400724127E+02  0.00000000000E+00 0. -1.
         11    1    3    3    0    0  0.49764336912E+01 -0.31728100265E+00 -0.28151930893E+01  0.57263314529E+01  0.51100000000E-03 0. -1.
        -11    1    3    3    0    0  0.69827514985E+01 -0.78817736684E+01 -0.13576941726E+02  0.17181807866E+02  0.51100000000E-03 0.  1.
        -12    1    3    3    0    0  0.19835833263E+00 -0.21020260969E+02 -0.13307167934E+02  0.24879136554E+02  0.00000000000E+00 0.  1.
</event>
<event>
 7    1  0.2328615E-009  0.4778727E+02  0.7816164E-02  0.1312668E+00
        -11   -1    0    0    0    0  0.00000000000E+00  0.00000000000E+00  0.45593999997E+02  0.45594000000E+02  0.51100000000E-03 0.  1.
         11   -1    0    0    0    0 -0.00000000000E+00 -0.00000000000E+00 -0.45593999997E+02  0.45594000000E+02  0.51100000000E-03 0. -1.
    9900012    2    1    2    0    0  0.27287715776E+02 -0.31903058195E+00  0.33747621764E+02  0.47787272039E+02  0.20000004534E+02 0.  0.
         12    1    1    2    0    0 -0.27287715776E+02  0.31903058195E+00 -0.33747621764E+02  0.43400727961E+02  0.00000000000E+00 0. -1.
         11    1    3    3    0    0  0.35130795184E+01  0.27395055560E+00  0.12665445228E+01  0.37444508140E+01  0.51100000000E-03 0. -1.
        -11    1    3    3    0    0  0.14361117837E+02 -0.86032139551E+01  0.23086770129E+02  0.28517642805E+02  0.51100000000E-03 0.  1.
        -12    1    3    3    0    0  0.94135184204E+01  0.80102328176E+01  0.93943071124E+01  0.15525178420E+02  0.00000000000E+00 0.  1.
</event>
<event>
 7    1  0.2328615E-009  0.4778728E+02  0.7816164E-02  0.1312668E+00
        -11   -1    0    0    0    0  0.00000000000E+00  0.00000000000E+00  0.45593999997E+02  0.45594000000E+02  0.51100000000E-03 0. -1.
         11   -1    0    0    0    0 -0.00000000000E+00 -0.00000000000E+00 -0.45593999997E+02  0.45594000000E+02  0.51100000000E-03 0.  1.
    9900012    2    1    2    0    0 -0.28526082802E+02 -0.23368857899E+02 -0.22886281395E+02  0.47787276555E+02  0.20000025123E+02 0.  0.
         12    1    1    2    0    0  0.28526082802E+02  0.23368857899E+02  0.22886281395E+02  0.43400723445E+02  0.00000000000E+00 0. -1.
         11    1    3    3    0    0  0.73070459696E+00 -0.54526196737E+01 -0.28425324920E+01  0.61923324962E+01  0.51100000000E-03 0. -1.
        -11    1    3    3    0    0 -0.11130690251E+02 -0.10175238577E+02 -0.14955288368E+02  0.21238841682E+02  0.51100000000E-03 0.  1.
         12    1    3    3    0    0 -0.18126097148E+02 -0.77409996473E+01 -0.50884605355E+01  0.20356102376E+02  0.00000000000E+00 0. -1.
</event>
<event>
 7    1  0.2328615E-009  0.4778727E+02  0.7816164E-02  0.1312668E+00
        -11   -1    0    0    0    0  0.00000000000E+00  0.00000000000E+00  0.45593999997E+02  0.45594000000E+02  0.51100000000E-03 0.  1.
         11   -1    0    0    0    0 -0.00000000000E+00 -0.00000000000E+00 -0.45593999997E+02  0.45594000000E+02  0.51100000000E-03 0. -1.
    9900012    2    1    2    0    0 -0.24022854288E+02 -0.32105536244E+02  0.16606039978E+02  0.47787267870E+02  0.19999985528E+02 0.  0.
         12    1    1    2    0    0  0.24022854288E+02  0.32105536244E+02 -0.16606039978E+02  0.43400732130E+02  0.00000000000E+00 0. -1.
         11    1    3    3    0    0 -0.86397972113E+00 -0.30087711777E+01 -0.21627086644E+01  0.38047961820E+01  0.51100000000E-03 0. -1.
        -11    1    3    3    0    0 -0.32300442513E+01  0.12540858011E+01  0.17878798721E+01  0.38990295922E+01  0.51100000000E-03 0.  1.
        -12    1    3    3    0    0 -0.19928830315E+02 -0.30350850867E+02  0.16980868770E+02  0.40083442096E+02  0.00000000000E+00 0.  1.
</event>
<event>
 7    1  0.2328615E-009  0.4778727E+02  0.7816164E-02  0.1312668E+00
        -11   -1    0    0    0    0  0.00000000000E+00  0.00000000000E+00  0.45593999997E+02  0.45594000000E+02  0.51100000000E-03 0.  1.
         11   -1    0    0    0    0 -0.00000000000E+00 -0.00000000000E+00 -0.45593999997E+02  0.45594000000E+02  0.51100000000E-03 0. -1.
    9900012    2    1    2    0    0  0.11130025262E+02 -0.70461819698E+00  0.41943406232E+02  0.47787271026E+02  0.19999999918E+02 0.  0.
         12    1    1    2    0    0 -0.11130025262E+02  0.70461819698E+00 -0.41943406232E+02  0.43400728974E+02  0.00000000000E+00 0. -1.
         11    1    3    3    0    0  0.34506804105E+00 -0.70126184418E+01  0.72530020613E+01  0.10094648509E+02  0.51100000000E-03 0. -1.
        -11    1    3    3    0    0  0.67597760973E+01 -0.20588622561E+00  0.12409692503E+02  0.14132849334E+02  0.51100000000E-03 0.  1.
        -12    1    3    3    0    0  0.40251811233E+01  0.65138864704E+01  0.22280711667E+02  0.23559773183E+02  0.00000000000E+00 0.  1.
</event>
<event>
 7    1  0.2328615E-009  0.4778727E+02  0.7816164E-02  0.1312668E+00
        -11   -1    0    0    0    0  0.00000000000E+00  0.00000000000E+00  0.45593999997E+02  0.45594000000E+02  0.51100000000E-03 0.  1.
         11   -1    0    0    0    0 -0.00000000000E+00 -0.00000000000E+00 -0.45593999997E+02  0.45594000000E+02  0.51100000000E-03 0. -1.
    9900012    2    1    2    0    0  0.34322857781E+02 -0.19951707335E+02  0.17535506148E+02  0.47787272268E+02  0.20000005577E+02 0.  0.
         12    1    1    2    0    0 -0.34322857781E+02  0.19951707335E+02 -0.17535506148E+02  0.43400727732E+02  0.00000000000E+00 0. -1.
         11    1    3    3    0    0  0.97667181034E+01 -0.54232653239E+01 -0.86420643439E+00  0.11204795505E+02  0.51100000000E-03 0. -1.
        -11    1    3    3    0    0  0.98724901389E+01  0.77669940616E+00  0.29198853101E+01  0.10324488074E+02  0.51100000000E-03 0.  1.
        -12    1    3    3    0    0  0.14683649539E+02 -0.15305141417E+02  0.15479827273E+02  0.26257988688E+02  0.00000000000E+00 0.  1.
</event>
<event>
 7    1  0.2830788E-009  0.4778728E+02  0.7816164E-02  0.1312668E+00
        -11   -1    0    0    0    0  0.00000000000E+00  0.00000000000E+00  0.45593999997E+02  0.45594000000E+02  0.51100000000E-03 0.  1.
         11   -1    0    0    0    0 -0.00000000000E+00 -0.00000000000E+00 -0.45593999997E+02  0.45594000000E+02  0.51100000000E-03 0. -1.
    9900012    2    1    2    0    0 -0.32357873111E+02 -0.21139245425E+02  0.19741404722E+02  0.47787277543E+02  0.20000029628E+02 0.  0.
         12    1    1    2    0    0  0.32357873111E+02  0.21139245425E+02 -0.19741404722E+02  0.43400722457E+02  0.00000000000E+00 0. -1.
         11    1    3    3    0    0  0.12609278871E+01  0.21065189399E+00  0.22083524694E+01  0.25516924280E+01  0.51100000000E-03 0. -1.
        -11    1    3    3    0    0 -0.10794589733E+02 -0.96444299806E+01  0.57669716007E+00  0.14486917444E+02  0.51100000000E-03 0.  1.
        -12    1    3    3    0    0 -0.22824211265E+02 -0.11705467339E+02  0.16956355092E+02  0.30748667670E+02  0.00000000000E+00 0.  1.
</event>
<event>
 7    1  0.2328615E-009  0.4778727E+02  0.7816164E-02  0.1312668E+00
        -11   -1    0    0    0    0  0.00000000000E+00  0.00000000000E+00  0.45593999997E+02  0.45594000000E+02  0.51100000000E-03 0.  1.
         11   -1    0    0    0    0 -0.00000000000E+00 -0.00000000000E+00 -0.45593999997E+02  0.45594000000E+02  0.51100000000E-03 0. -1.
    9900012    2    1    2    0    0 -0.30740840717E+02  0.16930264436E+01  0.30590157620E+02  0.47787269940E+02  0.19999994963E+02 0.  0.
         12    1    1    2    0    0  0.30740840717E+02 -0.16930264436E+01 -0.30590157620E+02  0.43400730060E+02  0.00000000000E+00 0. -1.
         11    1    3    3    0    0 -0.10568067939E+02 -0.27947172993E+01  0.12419824421E+02  0.16545287658E+02  0.51100000000E-03 0. -1.
        -11    1    3    3    0    0  0.82847473583E+00 -0.15154187553E+01  0.59877830978E+01  0.62318866388E+01  0.51100000000E-03 0.  1.
        -12    1    3    3    0    0 -0.21001247514E+02  0.60031624982E+01  0.12182550101E+02  0.25010095643E+02  0.00000000000E+00 0.  1.
</event>
<event>
 7    1  0.2328615E-009  0.4778734E+02  0.7816164E-02  0.1312667E+00
        -11   -1    0    0    0    0  0.00000000000E+00  0.00000000000E+00  0.45593999997E+02  0.45594000000E+02  0.51100000000E-03 0.  1.
         11   -1    0    0    0    0 -0.00000000000E+00 -0.00000000000E+00 -0.45593999997E+02  0.45594000000E+02  0.51100000000E-03 0. -1.
    9900012    2    1    2    0    0 -0.23623283371E+02 -0.31931393000E+01  0.36267918777E+02  0.47787336546E+02  0.20000298647E+02 0.  0.
         12    1    1    2    0    0  0.23623283371E+02  0.31931393000E+01 -0.36267918777E+02  0.43400663454E+02  0.00000000000E+00 0. -1.
         11    1    3    3    0    0 -0.12425873517E+02  0.14594373968E+01  0.13654494737E+02  0.18519652183E+02  0.51100000000E-03 0. -1.
        -11    1    3    3    0    0 -0.10576459867E+02  0.12425310778E+01  0.74770344305E+01  0.13011972599E+02  0.51100000000E-03 0.  1.
         12    1    3    3    0    0 -0.62094998675E+00 -0.58951077746E+01  0.15136389609E+02  0.16255711764E+02  0.00000000000E+00 0. -1.
</event>
<event>
 7    1  0.2328615E-009  0.4778728E+02  0.7816164E-02  0.1312668E+00
        -11   -1    0    0    0    0  0.00000000000E+00  0.00000000000E+00  0.45593999997E+02  0.45594000000E+02  0.51100000000E-03 0. -1.
         11   -1    0    0    0    0 -0.00000000000E+00 -0.00000000000E+00 -0.45593999997E+02  0.45594000000E+02  0.51100000000E-03 0.  1.
    9900012    2    1    2    0    0  0.40521359261E+02 -0.37664962424E+01 -0.15081629412E+02  0.47787278854E+02  0.20000035607E+02 0.  0.
         12    1    1    2    0    0 -0.40521359261E+02  0.37664962424E+01  0.15081629412E+02  0.43400721146E+02  0.00000000000E+00 0. -1.
         11    1    3    3    0    0  0.11348553612E+02 -0.29760623788E+01 -0.54500929244E+00  0.11744941539E+02  0.51100000000E-03 0. -1.
        -11    1    3    3    0    0  0.13793527841E+02 -0.61420318424E+01 -0.14821760933E+01  0.15171776814E+02  0.51100000000E-03 0.  1.
         12    1    3    3    0    0  0.15379277808E+02  0.53515979788E+01 -0.13054444026E+02  0.20870560501E+02  0.00000000000E+00 0. -1.
</event>
<event>
 7    1  0.2328615E-009  0.4778726E+02  0.7816164E-02  0.1312668E+00
        -11   -1    0    0    0    0  0.00000000000E+00  0.00000000000E+00  0.45593999997E+02  0.45594000000E+02  0.51100000000E-03 0.  1.
         11   -1    0    0    0    0 -0.00000000000E+00 -0.00000000000E+00 -0.45593999997E+02  0.45594000000E+02  0.51100000000E-03 0. -1.
    9900012    2    1    2    0    0 -0.15469269388E+02 -0.38377424576E+02  0.13095762453E+02  0.47787262602E+02  0.19999961506E+02 0.  0.
         12    1    1    2    0    0  0.15469269388E+02  0.38377424576E+02 -0.13095762453E+02  0.43400737398E+02  0.00000000000E+00 0. -1.
         11    1    3    3    0    0 -0.12071411318E+01 -0.79352508385E+01  0.71089747874E+01  0.10722076216E+02  0.51100000000E-03 0.  1.
        -11    1    3    3    0    0 -0.22878156694E+01 -0.28921247234E+01  0.59797665437E+01  0.70253892512E+01  0.51100000000E-03 0. -1.
        -12    1    3    3    0    0 -0.11974312587E+02 -0.27550049014E+02  0.70211219838E-02  0.30039797135E+02  0.00000000000E+00 0.  1.
</event>
<event>
 7    1  0.2340218E-009  0.4778727E+02  0.7816164E-02  0.1312668E+00
        -11   -1    0    0    0    0  0.00000000000E+00  0.00000000000E+00  0.45593999997E+02  0.45594000000E+02  0.51100000000E-03 0. -1.
         11   -1    0    0    0    0 -0.00000000000E+00 -0.00000000000E+00 -0.45593999997E+02  0.45594000000E+02  0.51100000000E-03 0.  1.
    9900012    2    1    2    0    0 -0.41558398073E+02 -0.39186290372E+01  0.11881399259E+02  0.47787265533E+02  0.19999974871E+02 0.  0.
         12    1    1    2    0    0  0.41558398073E+02  0.39186290372E+01 -0.11881399259E+02  0.43400734467E+02  0.00000000000E+00 0. -1.
         11    1    3    3    0    0  0.24575115208E+00 -0.19665245696E+01  0.33693460455E+00  0.20102581178E+01  0.51100000000E-03 0. -1.
        -11    1    3    3    0    0 -0.15006367684E+02  0.58895322372E+01  0.18789640718E+01  0.16229854198E+02  0.51100000000E-03 0.  1.
        -12    1    3    3    0    0 -0.26797781541E+02 -0.78416367049E+01  0.96655005825E+01  0.29547153217E+02  0.00000000000E+00 0.  1.
</event>
<event>
 7    1  0.2328615E-009  0.4778727E+02  0.7816164E-02  0.1312668E+00
        -11   -1    0    0    0    0  0.00000000000E+00  0.00000000000E+00  0.45593999997E+02  0.45594000000E+02  0.51100000000E-03 0.  1.
         11   -1    0    0    0    0 -0.00000000000E+00 -0.00000000000E+00 -0.45593999997E+02  0.45594000000E+02  0.51100000000E-03 0. -1.
    9900012    2    1    2    0    0 -0.30615550733E+02  0.28078842682E+02  0.12565420546E+02  0.47787272512E+02  0.20000006691E+02 0.  0.
         12    1    1    2    0    0  0.30615550733E+02 -0.28078842682E+02 -0.12565420546E+02  0.43400727488E+02  0.00000000000E+00 0. -1.
         11    1    3    3    0    0 -0.13348986969E+02  0.16434397228E+02  0.12394714854E+01  0.21208987604E+02  0.51100000000E-03 0. -1.
        -11    1    3    3    0    0 -0.49671693837E+01  0.99122504733E+01  0.81428030080E+01  0.13756115812E+02  0.51100000000E-03 0.  1.
        -12    1    3    3    0    0 -0.12299394380E+02  0.17321949802E+01  0.31831460521E+01  0.12822169097E+02  0.00000000000E+00 0.  1.
</event>
<event>
 7    1  0.2328615E-009  0.4778728E+02  0.7816164E-02  0.1312668E+00
        -11   -1    0    0    0    0  0.00000000000E+00  0.00000000000E+00  0.45593999997E+02  0.45594000000E+02  0.51100000000E-03 0. -1.
         11   -1    0    0    0    0 -0.00000000000E+00 -0.00000000000E+00 -0.45593999997E+02  0.45594000000E+02  0.51100000000E-03 0.  1.
    9900012    2    1    2    0    0 -0.20227475753E+02  0.36820640525E+02 -0.10895524294E+02  0.47787276577E+02  0.20000025224E+02 0.  0.
         12    1    1    2    0    0  0.20227475753E+02 -0.36820640525E+02  0.10895524294E+02  0.43400723423E+02  0.00000000000E+00 0. -1.
         11    1    3    3    0    0 -0.52933187590E+01 -0.55118914878E+00  0.96565074026E+00  0.54088367118E+01  0.51100000000E-03 0. -1.
        -11    1    3    3    0    0 -0.52874463047E+01  0.67222311518E+01 -0.24252149217E+01  0.88897214670E+01  0.51100000000E-03 0.  1.
        -12    1    3    3    0    0 -0.96467106896E+01  0.30649598522E+02 -0.94359601127E+01  0.33488718398E+02  0.00000000000E+00 0.  1.
</event>
<event>
 7    1  0.3297132E-009  0.4778728E+02  0.7816164E-02  0.1312668E+00
        -11   -1    0    0    0    0  0.00000000000E+00  0.00000000000E+00  0.45593999997E+02  0.45594000000E+02  0.51100000000E-03 0. -1.
         11   -1    0    0    0    0 -0.00000000000E+00 -0.00000000000E+00 -0.45593999997E+02  0.45594000000E+02  0.51100000000E-03 0.  1.
    9900012    2    1    2    0    0  0.19644881934E+02  0.38645709013E+02  0.20519981366E+01  0.47787275263E+02  0.20000019236E+02 0.  0.
         12    1    1    2    0    0 -0.19644881934E+02 -0.38645709013E+02 -0.20519981366E+01  0.43400724737E+02  0.00000000000E+00 0. -1.
         11    1    3    3    0    0 -0.22675769962E+01  0.56501123932E+01 -0.95400395356E+00  0.61624507539E+01  0.51100000000E-03 0. -1.
        -11    1    3    3    0    0  0.61650964725E+01  0.78504867113E+01  0.62527425522E+01  0.11778596937E+02  0.51100000000E-03 0.  1.
        -12    1    3    3    0    0  0.15747362458E+02  0.25145109908E+02 -0.32467404621E+01  0.29846227572E+02  0.00000000000E+00 0.  1.
</event>
<event>
 7    1  0.2328615E-009  0.4778728E+02  0.7816164E-02  0.1312668E+00
        -11   -1    0    0    0    0  0.00000000000E+00  0.00000000000E+00  0.45593999997E+02  0.45594000000E+02  0.51100000000E-03 0. -1.
         11   -1    0    0    0    0 -0.00000000000E+00 -0.00000000000E+00 -0.45593999997E+02  0.45594000000E+02  0.51100000000E-03 0.  1.
    9900012    2    1    2    0    0 -0.43239544463E+02 -0.33913320503E+01  0.15695521236E+01  0.47787276132E+02  0.20000023195E+02 0.  0.
         12    1    1    2    0    0  0.43239544463E+02  0.33913320503E+01 -0.15695521236E+01  0.43400723868E+02  0.00000000000E+00 0. -1.
         11    1    3    3    0    0 -0.17130865773E+02  0.19441604439E+01 -0.16765575739E+01  0.17322158281E+02  0.51100000000E-03 0. -1.
        -11    1    3    3    0    0 -0.27559292940E+02 -0.65279718451E+01  0.24571530568E+01  0.28428271934E+02  0.51100000000E-03 0.  1.
         12    1    3    3    0    0  0.14506142503E+01  0.11924793510E+01  0.78895664073E+00  0.20368459162E+01  0.00000000000E+00 0. -1.
</event>
<event>
 7    1  0.2328615E-009  0.4778727E+02  0.7816164E-02  0.1312668E+00
        -11   -1    0    0    0    0  0.00000000000E+00  0.00000000000E+00  0.45593999997E+02  0.45594000000E+02  0.51100000000E-03 0.  1.
         11   -1    0    0    0    0 -0.00000000000E+00 -0.00000000000E+00 -0.45593999997E+02  0.45594000000E+02  0.51100000000E-03 0. -1.
    9900012    2    1    2    0    0 -0.17910383793E+01 -0.26081554420E+02  0.34643442217E+02  0.47787269728E+02  0.19999994000E+02 0.  0.
         12    1    1    2    0    0  0.17910383793E+01  0.26081554420E+02 -0.34643442217E+02  0.43400730272E+02  0.00000000000E+00 0. -1.
         11    1    3    3    0    0 -0.30646387805E+01 -0.18139249466E+02  0.20684246391E+02  0.27681445610E+02  0.51100000000E-03 0.  1.
        -11    1    3    3    0    0 -0.30094554810E+01 -0.94434605884E+01  0.10061088309E+02  0.14123075741E+02  0.51100000000E-03 0. -1.
         12    1    3    3    0    0  0.42830558821E+01  0.15011556338E+01  0.38981075170E+01  0.59827483768E+01  0.00000000000E+00 0. -1.
</event>
<event>
 7    1  0.2328615E-009  0.4778727E+02  0.7816164E-02  0.1312668E+00
        -11   -1    0    0    0    0  0.00000000000E+00  0.00000000000E+00  0.45593999997E+02  0.45594000000E+02  0.51100000000E-03 0.  1.
         11   -1    0    0    0    0 -0.00000000000E+00 -0.00000000000E+00 -0.45593999997E+02  0.45594000000E+02  0.51100000000E-03 0. -1.
    9900012    2    1    2    0    0 -0.11662143527E+02 -0.39135739250E+02  0.14697327484E+02  0.47787272893E+02  0.20000008428E+02 0.  0.
         12    1    1    2    0    0  0.11662143527E+02  0.39135739250E+02 -0.14697327484E+02  0.43400727107E+02  0.00000000000E+00 0. -1.
         11    1    3    3    0    0 -0.52444859045E+01 -0.21621242979E+02  0.98041408819E+01  0.24312629620E+02  0.51100000000E-03 0.  1.
        -11    1    3    3    0    0 -0.94770068312E+01 -0.86827649791E+01  0.57662241856E+01  0.14087349211E+02  0.51100000000E-03 0. -1.
        -12    1    3    3    0    0  0.30593492086E+01 -0.88317312916E+01 -0.87303758356E+00  0.93872940621E+01  0.00000000000E+00 0.  1.
</event>
<event>
 7    1  0.2328615E-009  0.4778727E+02  0.7816164E-02  0.1312668E+00
        -11   -1    0    0    0    0  0.00000000000E+00  0.00000000000E+00  0.45593999997E+02  0.45594000000E+02  0.51100000000E-03 0. -1.
         11   -1    0    0    0    0 -0.00000000000E+00 -0.00000000000E+00 -0.45593999997E+02  0.45594000000E+02  0.51100000000E-03 0.  1.
    9900012    2    1    2    0    0  0.44863147193E+01  0.35167011363E+02 -0.25035529115E+02  0.47787269292E+02  0.19999992008E+02 0.  0.
         12    1    1    2    0    0 -0.44863147193E+01 -0.35167011363E+02  0.25035529115E+02  0.43400730708E+02  0.00000000000E+00 0. -1.
         11    1    3    3    0    0 -0.34258271680E+01  0.11151523779E+02 -0.64192672258E+01  0.13315395839E+02  0.51100000000E-03 0. -1.
        -11    1    3    3    0    0 -0.38063425710E+01  0.46173728816E+01 -0.17918728932E+01  0.62465338246E+01  0.51100000000E-03 0.  1.
         12    1    3    3    0    0  0.11718484458E+02  0.19398114702E+02 -0.16824388997E+02  0.28225339628E+02  0.00000000000E+00 0. -1.
</event>
<event>
 7    1  0.2328615E-009  0.4778727E+02  0.7816164E-02  0.1312668E+00
        -11   -1    0    0    0    0  0.00000000000E+00  0.00000000000E+00  0.45593999997E+02  0.45594000000E+02  0.51100000000E-03 0. -1.
         11   -1    0    0    0    0 -0.00000000000E+00 -0.00000000000E+00 -0.45593999997E+02  0.45594000000E+02  0.51100000000E-03 0.  1.
    9900012    2    1    2    0    0 -0.15241053563E+02 -0.54396101956E+01 -0.40270882463E+02  0.47787273657E+02  0.20000011910E+02 0.  0.
         12    1    1    2    0    0  0.15241053563E+02  0.54396101956E+01  0.40270882463E+02  0.43400726343E+02  0.00000000000E+00 0. -1.
         11    1    3    3    0    0 -0.58306376386E+00  0.20891632533E+01 -0.66412930261E+01  0.69865112732E+01  0.51100000000E-03 0. -1.
        -11    1    3    3    0    0 -0.97057565516E+01 -0.28442472398E+01 -0.48348954067E+01  0.11210159074E+02  0.51100000000E-03 0.  1.
        -12    1    3    3    0    0 -0.49522332472E+01 -0.46845262091E+01 -0.28794694030E+02  0.29590603310E+02  0.00000000000E+00 0.  1.
</event>
<event>
 7    1  0.2328615E-009  0.4778727E+02  0.7816164E-02  0.1312668E+00
        -11   -1    0    0    0    0  0.00000000000E+00  0.00000000000E+00  0.45593999997E+02  0.45594000000E+02  0.51100000000E-03 0. -1.
         11   -1    0    0    0    0 -0.00000000000E+00 -0.00000000000E+00 -0.45593999997E+02  0.45594000000E+02  0.51100000000E-03 0.  1.
    9900012    2    1    2    0    0  0.46839288973E+01 -0.43129261801E+02 -0.12453370478E+01  0.47787270999E+02  0.19999999794E+02 0.  0.
         12    1    1    2    0    0 -0.46839288973E+01  0.43129261801E+02  0.12453370478E+01  0.43400729001E+02  0.00000000000E+00 0. -1.
         11    1    3    3    0    0  0.41344100704E+01 -0.18495497913E+02 -0.45567782462E+01  0.19492075773E+02  0.51100000000E-03 0. -1.
        -11    1    3    3    0    0 -0.92991634360E+00 -0.13144974357E+02 -0.49397763527E+01  0.14073254276E+02  0.51100000000E-03 0.  1.
        -12    1    3    3    0    0  0.14794351705E+01 -0.11488789531E+02  0.82512175511E+01  0.14221940950E+02  0.00000000000E+00 0.  1.
</event>
<event>
 7    1  0.2328615E-009  0.4778727E+02  0.7816164E-02  0.1312668E+00
        -11   -1    0    0    0    0  0.00000000000E+00  0.00000000000E+00  0.45593999997E+02  0.45594000000E+02  0.51100000000E-03 0.  1.
         11   -1    0    0    0    0 -0.00000000000E+00 -0.00000000000E+00 -0.45593999997E+02  0.45594000000E+02  0.51100000000E-03 0. -1.
    9900012    2    1    2    0    0 -0.32618057176E+01 -0.38744016294E+02  0.19284322764E+02  0.47787270978E+02  0.19999999698E+02 0.  0.
         12    1    1    2    0    0  0.32618057176E+01  0.38744016294E+02 -0.19284322764E+02  0.43400729022E+02  0.00000000000E+00 0. -1.
         11    1    3    3    0    0 -0.28425613054E+01 -0.13302648458E+02  0.12583098311E+02  0.18530379762E+02  0.51100000000E-03 0. -1.
        -11    1    3    3    0    0  0.54843375786E+01 -0.10558685449E+02  0.57585295230E+01  0.13218338005E+02  0.51100000000E-03 0.  1.
         12    1    3    3    0    0 -0.59035819908E+01 -0.14882682388E+02  0.94269493000E+00  0.16038553211E+02  0.00000000000E+00 0. -1.
</event>
<event>
 7    1  0.2328615E-009  0.4778727E+02  0.7816164E-02  0.1312668E+00
        -11   -1    0    0    0    0  0.00000000000E+00  0.00000000000E+00  0.45593999997E+02  0.45594000000E+02  0.51100000000E-03 0.  1.
         11   -1    0    0    0    0 -0.00000000000E+00 -0.00000000000E+00 -0.45593999997E+02  0.45594000000E+02  0.51100000000E-03 0. -1.
    9900012    2    1    2    0    0 -0.42268260198E+02 -0.98456231358E+01 -0.28515915818E+00  0.47787269236E+02  0.19999991757E+02 0.  0.
         12    1    1    2    0    0  0.42268260198E+02  0.98456231358E+01  0.28515915818E+00  0.43400730764E+02  0.00000000000E+00 0. -1.
         11    1    3    3    0    0 -0.99447407810E+01  0.25826326863E+01 -0.38825687631E+01  0.10983724380E+02  0.51100000000E-03 0. -1.
        -11    1    3    3    0    0 -0.11128709851E+02 -0.37147136686E+01 -0.44026714748E+01  0.12531192958E+02  0.51100000000E-03 0.  1.
        -12    1    3    3    0    0 -0.21194809566E+02 -0.87135421535E+01  0.80000810797E+01  0.24272351898E+02  0.00000000000E+00 0.  1.
</event>
<event>
 7    1  0.2328615E-009  0.4778727E+02  0.7816164E-02  0.1312668E+00
        -11   -1    0    0    0    0  0.00000000000E+00  0.00000000000E+00  0.45593999997E+02  0.45594000000E+02  0.51100000000E-03 0.  1.
         11   -1    0    0    0    0 -0.00000000000E+00 -0.00000000000E+00 -0.45593999997E+02  0.45594000000E+02  0.51100000000E-03 0. -1.
    9900012    2    1    2    0    0 -0.18528532114E+02  0.13936085516E+02  0.36689265931E+02  0.47787271706E+02  0.20000003018E+02 0.  0.
         12    1    1    2    0    0  0.18528532114E+02 -0.13936085516E+02 -0.36689265931E+02  0.43400728294E+02  0.00000000000E+00 0. -1.
         11    1    3    3    0    0  0.87720594853E+00  0.61060546385E+00 -0.99102617690E-01  0.10733829226E+01  0.51100000000E-03 0. -1.
        -11    1    3    3    0    0 -0.46862363176E+01  0.40963549806E+01  0.21982430592E+00  0.62281022742E+01  0.51100000000E-03 0.  1.
        -12    1    3    3    0    0 -0.14719501745E+02  0.92291250717E+01  0.36568544243E+02  0.40485786509E+02  0.00000000000E+00 0.  1.
</event>
<event>
 7    1  0.2328615E-009  0.4778727E+02  0.7816164E-02  0.1312668E+00
        -11   -1    0    0    0    0  0.00000000000E+00  0.00000000000E+00  0.45593999997E+02  0.45594000000E+02  0.51100000000E-03 0.  1.
         11   -1    0    0    0    0 -0.00000000000E+00 -0.00000000000E+00 -0.45593999997E+02  0.45594000000E+02  0.51100000000E-03 0. -1.
    9900012    2    1    2    0    0 -0.40197225019E+02 -0.14718143545E+02  0.71541809754E+01  0.47787274729E+02  0.20000016800E+02 0.  0.
         12    1    1    2    0    0  0.40197225019E+02  0.14718143545E+02 -0.71541809754E+01  0.43400725271E+02  0.00000000000E+00 0. -1.
         11    1    3    3    0    0 -0.15784066961E+02 -0.12575654624E+01  0.33358626032E+01  0.16181663088E+02  0.51100000000E-03 0. -1.
        -11    1    3    3    0    0 -0.19890037589E+02 -0.65325906733E+01  0.79044010272E+01  0.22377843776E+02  0.51100000000E-03 0.  1.
         12    1    3    3    0    0 -0.45231204685E+01 -0.69279874093E+01 -0.40860826550E+01  0.92277678655E+01  0.00000000000E+00 0. -1.
</event>
<event>
 7    1  0.2328615E-009  0.4778729E+02  0.7816164E-02  0.1312668E+00
        -11   -1    0    0    0    0  0.00000000000E+00  0.00000000000E+00  0.45593999997E+02  0.45594000000E+02  0.51100000000E-03 0.  1.
         11   -1    0    0    0    0 -0.00000000000E+00 -0.00000000000E+00 -0.45593999997E+02  0.45594000000E+02  0.51100000000E-03 0. -1.
    9900012    2    1    2    0    0  0.19468244808E+02  0.38788285826E+02  0.27850548888E+00  0.47787294493E+02  0.20000106910E+02 0.  0.
         12    1    1    2    0    0 -0.19468244808E+02 -0.38788285826E+02 -0.27850548888E+00  0.43400705507E+02  0.00000000000E+00 0. -1.
         11    1    3    3    0    0  0.14078799980E+01  0.13158740835E+02  0.29315936929E+01  0.13554660760E+02  0.51100000000E-03 0. -1.
        -11    1    3    3    0    0  0.14393906346E+02  0.26583872147E+02 -0.14808668821E+01  0.30266809631E+02  0.51100000000E-03 0.  1.
        -12    1    3    3    0    0  0.36664584635E+01 -0.95432715632E+00 -0.11722213219E+01  0.39658241027E+01  0.00000000000E+00 0.  1.
</event>
<event>
 7    1  0.2328615E-009  0.4778726E+02  0.7816164E-02  0.1312668E+00
        -11   -1    0    0    0    0  0.00000000000E+00  0.00000000000E+00  0.45593999997E+02  0.45594000000E+02  0.51100000000E-03 0.  1.
         11   -1    0    0    0    0 -0.00000000000E+00 -0.00000000000E+00 -0.45593999997E+02  0.45594000000E+02  0.51100000000E-03 0. -1.
    9900012    2    1    2    0    0  0.20027902017E+02  0.36629805026E+02  0.11864430013E+02  0.47787260663E+02  0.19999952669E+02 0.  0.
         12    1    1    2    0    0 -0.20027902017E+02 -0.36629805026E+02 -0.11864430013E+02  0.43400739337E+02  0.00000000000E+00 0. -1.
         11    1    3    3    0    0  0.62989844649E+01  0.52252016409E+01 -0.41454145574E+01  0.91741157389E+01  0.51100000000E-03 0. -1.
        -11    1    3    3    0    0 -0.22542071774E+00  0.71634538996E+01  0.32315979108E+01  0.78618771034E+01  0.51100000000E-03 0.  1.
        -12    1    3    3    0    0  0.13954338269E+02  0.24241149485E+02  0.12778246660E+02  0.30751267821E+02  0.00000000000E+00 0.  1.
</event>
<event>
 7    1  0.2328615E-009  0.4778727E+02  0.7816164E-02  0.1312668E+00
        -11   -1    0    0    0    0  0.00000000000E+00  0.00000000000E+00  0.45593999997E+02  0.45594000000E+02  0.51100000000E-03 0. -1.
         11   -1    0    0    0    0 -0.00000000000E+00 -0.00000000000E+00 -0.45593999997E+02  0.45594000000E+02  0.51100000000E-03 0.  1.
    9900012    2    1    2    0    0 -0.15907362452E+02 -0.47650683533E+01 -0.40098291607E+02  0.47787273666E+02  0.20000011951E+02 0.  0.
         12    1    1    2    0    0  0.15907362452E+02  0.47650683533E+01  0.40098291607E+02  0.43400726334E+02  0.00000000000E+00 0. -1.
         11    1    3    3    0    0 -0.21595062522E+01 -0.69608065476E+01 -0.76753274189E+01  0.10584278260E+02  0.51100000000E-03 0. -1.
        -11    1    3    3    0    0 -0.22656467787E+01 -0.29428591727E+01 -0.16487600902E+02  0.16900726588E+02  0.51100000000E-03 0.  1.
        -12    1    3    3    0    0 -0.11482209421E+02  0.51385973669E+01 -0.15935363286E+02  0.20302268817E+02  0.00000000000E+00 0.  1.
</event>
<event>
 7    1  0.2328615E-009  0.4778727E+02  0.7816164E-02  0.1312668E+00
        -11   -1    0    0    0    0  0.00000000000E+00  0.00000000000E+00  0.45593999997E+02  0.45594000000E+02  0.51100000000E-03 0.  1.
         11   -1    0    0    0    0 -0.00000000000E+00 -0.00000000000E+00 -0.45593999997E+02  0.45594000000E+02  0.51100000000E-03 0. -1.
    9900012    2    1    2    0    0  0.43225568203E+02  0.23764310932E+01 -0.30864258441E+01  0.47787271945E+02  0.20000004108E+02 0.  0.
         12    1    1    2    0    0 -0.43225568203E+02 -0.23764310932E+01  0.30864258441E+01  0.43400728055E+02  0.00000000000E+00 0. -1.
         11    1    3    3    0    0  0.10662853365E+02 -0.43907952750E+01  0.61642530459E+01  0.13075685103E+02  0.51100000000E-03 0. -1.
        -11    1    3    3    0    0  0.87112800837E+01  0.62594751321E+00 -0.12952984872E+01  0.88292700388E+01  0.51100000000E-03 0.  1.
         12    1    3    3    0    0  0.23851434753E+02  0.61412788550E+01 -0.79553804027E+01  0.25882316804E+02  0.00000000000E+00 0. -1.
</event>
<event>
 7    1  0.2328615E-009  0.4778727E+02  0.7816164E-02  0.1312668E+00
        -11   -1    0    0    0    0  0.00000000000E+00  0.00000000000E+00  0.45593999997E+02  0.45594000000E+02  0.51100000000E-03 0.  1.
         11   -1    0    0    0    0 -0.00000000000E+00 -0.00000000000E+00 -0.45593999997E+02  0.45594000000E+02  0.51100000000E-03 0. -1.
    9900012    2    1    2    0    0  0.23648517404E+02 -0.29931660178E+02  0.20699432854E+02  0.47787272162E+02  0.20000005095E+02 0.  0.
         12    1    1    2    0    0 -0.23648517404E+02  0.29931660178E+02 -0.20699432854E+02  0.43400727838E+02  0.00000000000E+00 0. -1.
         11    1    3    3    0    0  0.12399529964E+02 -0.68783159816E+01  0.38968011260E+01  0.14705258697E+02  0.51100000000E-03 0. -1.
        -11    1    3    3    0    0  0.13755428880E+02 -0.18033406498E+02  0.14985570056E+02  0.27184239621E+02  0.51100000000E-03 0.  1.
         12    1    3    3    0    0 -0.25064414410E+01 -0.50199376980E+01  0.18170616724E+01  0.58977738436E+01  0.00000000000E+00 0. -1.
</event>
<event>
 7    1  0.2328615E-009  0.4778728E+02  0.7816164E-02  0.1312668E+00
        -11   -1    0    0    0    0  0.00000000000E+00  0.00000000000E+00  0.45593999997E+02  0.45594000000E+02  0.51100000000E-03 0.  1.
         11   -1    0    0    0    0 -0.00000000000E+00 -0.00000000000E+00 -0.45593999997E+02  0.45594000000E+02  0.51100000000E-03 0. -1.
    9900012    2    1    2    0    0 -0.17759916391E+02 -0.25961165664E+02  0.29903611998E+02  0.47787276926E+02  0.20000026816E+02 0.  0.
         12    1    1    2    0    0  0.17759916391E+02  0.25961165664E+02 -0.29903611998E+02  0.43400723074E+02  0.00000000000E+00 0. -1.
         11    1    3    3    0    0 -0.40712125781E+01 -0.13182022680E+02  0.15738852905E+02  0.20929691465E+02  0.51100000000E-03 0. -1.
        -11    1    3    3    0    0 -0.77987053906E+01 -0.78446592193E+01  0.15516550294E+02  0.19055755491E+02  0.51100000000E-03 0.  1.
         12    1    3    3    0    0 -0.58899984223E+01 -0.49344837646E+01 -0.13517912009E+01  0.78018299705E+01  0.00000000000E+00 0. -1.
</event>
<event>
 7    1  0.2328615E-009  0.4778727E+02  0.7816164E-02  0.1312668E+00
        -11   -1    0    0    0    0  0.00000000000E+00  0.00000000000E+00  0.45593999997E+02  0.45594000000E+02  0.51100000000E-03 0.  1.
         11   -1    0    0    0    0 -0.00000000000E+00 -0.00000000000E+00 -0.45593999997E+02  0.45594000000E+02  0.51100000000E-03 0. -1.
    9900012    2    1    2    0    0  0.21770316120E+02 -0.85140649208E+01  0.36567568036E+02  0.47787274228E+02  0.20000014517E+02 0.  0.
         12    1    1    2    0    0 -0.21770316120E+02  0.85140649208E+01 -0.36567568036E+02  0.43400725772E+02  0.00000000000E+00 0. -1.
         11    1    3    3    0    0  0.58899707265E+00 -0.51014040121E+00 -0.21759681024E+01  0.23112763194E+01  0.51100000000E-03 0. -1.
        -11    1    3    3    0    0 -0.49844287055E-01 -0.16032381043E+01  0.20583745574E+01  0.26095522512E+01  0.51100000000E-03 0.  1.
        -12    1    3    3    0    0  0.21231163334E+02 -0.64006864153E+01  0.36685161581E+02  0.42866445658E+02  0.00000000000E+00 0.  1.
</event>
<event>
 7    1  0.2328615E-009  0.4778727E+02  0.7816164E-02  0.1312668E+00
        -11   -1    0    0    0    0  0.00000000000E+00  0.00000000000E+00  0.45593999997E+02  0.45594000000E+02  0.51100000000E-03 0.  1.
         11   -1    0    0    0    0 -0.00000000000E+00 -0.00000000000E+00 -0.45593999997E+02  0.45594000000E+02  0.51100000000E-03 0. -1.
    9900012    2    1    2    0    0  0.17042981984E+02  0.14437635102E+02  0.37211754164E+02  0.47787272008E+02  0.20000004395E+02 0.  0.
         12    1    1    2    0    0 -0.17042981984E+02 -0.14437635102E+02 -0.37211754164E+02  0.43400727992E+02  0.00000000000E+00 0. -1.
         11    1    3    3    0    0  0.47846649018E+01  0.35715631156E+01  0.37066193979E+01  0.70276673892E+01  0.51100000000E-03 0. -1.
        -11    1    3    3    0    0  0.10043841616E+02  0.74975809544E+01  0.78485286498E+01  0.14788234405E+02  0.51100000000E-03 0.  1.
        -12    1    3    3    0    0  0.22144754660E+01  0.33684910321E+01  0.25656606116E+02  0.25971370215E+02  0.00000000000E+00 0.  1.
</event>
<event>
 7    1  0.2328615E-009  0.4778727E+02  0.7816164E-02  0.1312668E+00
        -11   -1    0    0    0    0  0.00000000000E+00  0.00000000000E+00  0.45593999997E+02  0.45594000000E+02  0.51100000000E-03 0.  1.
         11   -1    0    0    0    0 -0.00000000000E+00 -0.00000000000E+00 -0.45593999997E+02  0.45594000000E+02  0.51100000000E-03 0. -1.
    9900012    2    1    2    0    0  0.38173406831E+02  0.20645371555E+02 -0.42794374082E+00  0.47787268537E+02  0.19999988566E+02 0.  0.
         12    1    1    2    0    0 -0.38173406831E+02 -0.20645371555E+02  0.42794374082E+00  0.43400731463E+02  0.00000000000E+00 0. -1.
         11    1    3    3    0    0  0.81827049183E+00  0.70438708043E+00  0.14214547724E+01  0.17850102767E+01  0.51100000000E-03 0. -1.
        -11    1    3    3    0    0  0.19470498627E+02  0.31892119407E+01 -0.70500688389E+01  0.20951726909E+02  0.51100000000E-03 0.  1.
        -12    1    3    3    0    0  0.17884637712E+02  0.16751772534E+02  0.52006703257E+01  0.25050531351E+02  0.00000000000E+00 0.  1.
</event>
<event>
 7    1  0.2328615E-009  0.4778727E+02  0.7816164E-02  0.1312668E+00
        -11   -1    0    0    0    0  0.00000000000E+00  0.00000000000E+00  0.45593999997E+02  0.45594000000E+02  0.51100000000E-03 0.  1.
         11   -1    0    0    0    0 -0.00000000000E+00 -0.00000000000E+00 -0.45593999997E+02  0.45594000000E+02  0.51100000000E-03 0. -1.
    9900012    2    1    2    0    0  0.12110002543E+02 -0.39378085734E+02 -0.13650551025E+02  0.47787270271E+02  0.19999996474E+02 0.  0.
         12    1    1    2    0    0 -0.12110002543E+02  0.39378085734E+02  0.13650551025E+02  0.43400729729E+02  0.00000000000E+00 0. -1.
         11    1    3    3    0    0  0.11057534693E+02 -0.27776522614E+02 -0.14482550930E+02  0.33219701439E+02  0.51100000000E-03 0. -1.
        -11    1    3    3    0    0  0.41763400747E+01 -0.49434041836E+01 -0.18638782257E+01  0.67344712965E+01  0.51100000000E-03 0.  1.
        -12    1    3    3    0    0 -0.31238722248E+01 -0.66581589369E+01  0.26958781300E+01  0.78330975353E+01  0.00000000000E+00 0.  1.
</event>
<event>
 7    1  0.2328615E-009  0.4778727E+02  0.7816164E-02  0.1312668E+00
        -11   -1    0    0    0    0  0.00000000000E+00  0.00000000000E+00  0.45593999997E+02  0.45594000000E+02  0.51100000000E-03 0. -1.
         11   -1    0    0    0    0 -0.00000000000E+00 -0.00000000000E+00 -0.45593999997E+02  0.45594000000E+02  0.51100000000E-03 0.  1.
    9900012    2    1    2    0    0  0.34087265222E+02 -0.26366607481E+02  0.51462365572E+01  0.47787269694E+02  0.19999993842E+02 0.  0.
         12    1    1    2    0    0 -0.34087265222E+02  0.26366607481E+02 -0.51462365572E+01  0.43400730306E+02  0.00000000000E+00 0. -1.
         11    1    3    3    0    0 -0.67797026693E+00  0.98929903937E+00  0.12531441368E+01  0.17345681771E+01  0.51100000000E-03 0. -1.
        -11    1    3    3    0    0  0.26361366863E+01  0.50415301655E+00  0.22378667525E+01  0.34944863365E+01  0.51100000000E-03 0.  1.
        -12    1    3    3    0    0  0.32129098803E+02 -0.27860059537E+02  0.16552256679E+01  0.42558215180E+02  0.00000000000E+00 0.  1.
</event>
<event>
 7    1  0.2328615E-009  0.4778730E+02  0.7816164E-02  0.1312668E+00
        -11   -1    0    0    0    0  0.00000000000E+00  0.00000000000E+00  0.45593999997E+02  0.45594000000E+02  0.51100000000E-03 0. -1.
         11   -1    0    0    0    0 -0.00000000000E+00 -0.00000000000E+00 -0.45593999997E+02  0.45594000000E+02  0.51100000000E-03 0.  1.
    9900012    2    1    2    0    0  0.30302971198E+02 -0.30993364349E+02 -0.21823112656E+01  0.47787295172E+02  0.20000110006E+02 0.  0.
         12    1    1    2    0    0 -0.30302971198E+02  0.30993364349E+02  0.21823112656E+01  0.43400704828E+02  0.00000000000E+00 0. -1.
         11    1    3    3    0    0  0.21075749209E+02 -0.23735620562E+02  0.10427991794E+01  0.31759318610E+02  0.51100000000E-03 0. -1.
        -11    1    3    3    0    0  0.10763725667E+02 -0.84644123641E+01 -0.32521231861E+01  0.14074102898E+02  0.51100000000E-03 0.  1.
         12    1    3    3    0    0 -0.15365036781E+01  0.12066685766E+01  0.27012741114E-01  0.19538736639E+01  0.00000000000E+00 0. -1.
</event>
<event>
 7    1  0.2350930E-009  0.4778727E+02  0.7816164E-02  0.1312668E+00
        -11   -1    0    0    0    0  0.00000000000E+00  0.00000000000E+00  0.45593999997E+02  0.45594000000E+02  0.51100000000E-03 0.  1.
         11   -1    0    0    0    0 -0.00000000000E+00 -0.00000000000E+00 -0.45593999997E+02  0.45594000000E+02  0.51100000000E-03 0. -1.
    9900012    2    1    2    0    0  0.21368740319E+02  0.26609430396E+02  0.26813023557E+02  0.47787273265E+02  0.20000010126E+02 0.  0.
         12    1    1    2    0    0 -0.21368740319E+02 -0.26609430396E+02 -0.26813023557E+02  0.43400726735E+02  0.00000000000E+00 0. -1.
         11    1    3    3    0    0  0.25644091246E+01  0.61983663128E+01 -0.81635141592E+00  0.67573936545E+01  0.51100000000E-03 0. -1.
        -11    1    3    3    0    0  0.75265666077E+01  0.16766587365E+02  0.15134132730E+02  0.23807764081E+02  0.51100000000E-03 0.  1.
        -12    1    3    3    0    0  0.11277764587E+02  0.36444767181E+01  0.12495242243E+02  0.17222115530E+02  0.00000000000E+00 0.  1.
</event>
<event>
 7    1  0.2328615E-009  0.4778727E+02  0.7816164E-02  0.1312668E+00
        -11   -1    0    0    0    0  0.00000000000E+00  0.00000000000E+00  0.45593999997E+02  0.45594000000E+02  0.51100000000E-03 0.  1.
         11   -1    0    0    0    0 -0.00000000000E+00 -0.00000000000E+00 -0.45593999997E+02  0.45594000000E+02  0.51100000000E-03 0. -1.
    9900012    2    1    2    0    0  0.20244564286E+02 -0.88198293981E+00  0.38379720322E+02  0.47787271791E+02  0.20000003406E+02 0.  0.
         12    1    1    2    0    0 -0.20244564286E+02  0.88198293981E+00 -0.38379720322E+02  0.43400728209E+02  0.00000000000E+00 0. -1.
         11    1    3    3    0    0  0.24668112562E+01 -0.11268405574E+01  0.11791210094E+02  0.12099072822E+02  0.51100000000E-03 0. -1.
        -11    1    3    3    0    0  0.11634889286E+02  0.77537887096E+01  0.13896769532E+02  0.19713246606E+02  0.51100000000E-03 0.  1.
        -12    1    3    3    0    0  0.61428637437E+01 -0.75089310920E+01  0.12691740696E+02  0.15974952363E+02  0.00000000000E+00 0.  1.
</event>
<event>
 7    1  0.2328615E-009  0.4778727E+02  0.7816164E-02  0.1312668E+00
        -11   -1    0    0    0    0  0.00000000000E+00  0.00000000000E+00  0.45593999997E+02  0.45594000000E+02  0.51100000000E-03 0. -1.
         11   -1    0    0    0    0 -0.00000000000E+00 -0.00000000000E+00 -0.45593999997E+02  0.45594000000E+02  0.51100000000E-03 0.  1.
    9900012    2    1    2    0    0  0.27174604491E+02 -0.31406125621E+02 -0.12602360028E+02  0.47787270351E+02  0.19999996840E+02 0.  0.
         12    1    1    2    0    0 -0.27174604491E+02  0.31406125621E+02  0.12602360028E+02  0.43400729649E+02  0.00000000000E+00 0. -1.
         11    1    3    3    0    0  0.40056210245E+01 -0.96659914080E+00 -0.68866156087E+01  0.80252594035E+01  0.51100000000E-03 0. -1.
        -11    1    3    3    0    0  0.11670145700E+02 -0.12943518089E+02 -0.70120025816E+01  0.18785503497E+02  0.51100000000E-03 0.  1.
        -12    1    3    3    0    0  0.11498837767E+02 -0.17496008391E+02  0.12962581625E+01  0.20976507451E+02  0.00000000000E+00 0.  1.
</event>
<event>
 7    1  0.2328615E-009  0.4778723E+02  0.7816164E-02  0.1312668E+00
        -11   -1    0    0    0    0  0.00000000000E+00  0.00000000000E+00  0.45593999997E+02  0.45594000000E+02  0.51100000000E-03 0.  1.
         11   -1    0    0    0    0 -0.00000000000E+00 -0.00000000000E+00 -0.45593999997E+02  0.45594000000E+02  0.51100000000E-03 0. -1.
    9900012    2    1    2    0    0  0.17648129587E+02 -0.42070851299E+01  0.39426778736E+02  0.47787228985E+02  0.19999808232E+02 0.  0.
         12    1    1    2    0    0 -0.17648129587E+02  0.42070851299E+01 -0.39426778736E+02  0.43400771015E+02  0.00000000000E+00 0. -1.
         11    1    3    3    0    0  0.12109477553E+02 -0.39197306794E+01  0.19614027755E+02  0.23381912245E+02  0.51100000000E-03 0. -1.
        -11    1    3    3    0    0  0.54230721311E+01 -0.56568012143E+01  0.69808855926E+01  0.10494849939E+02  0.51100000000E-03 0.  1.
        -12    1    3    3    0    0  0.11557990243E+00  0.53694467638E+01  0.12831865389E+02  0.13910466801E+02  0.00000000000E+00 0.  1.
</event>
<event>
 7    1  0.2328615E-009  0.4778727E+02  0.7816164E-02  0.1312668E+00
        -11   -1    0    0    0    0  0.00000000000E+00  0.00000000000E+00  0.45593999997E+02  0.45594000000E+02  0.51100000000E-03 0.  1.
         11   -1    0    0    0    0 -0.00000000000E+00 -0.00000000000E+00 -0.45593999997E+02  0.45594000000E+02  0.51100000000E-03 0. -1.
    9900012    2    1    2    0    0  0.38747504773E+02 -0.14277263299E+02 -0.13357173497E+02  0.47787268931E+02  0.19999990365E+02 0.  0.
         12    1    1    2    0    0 -0.38747504773E+02  0.14277263299E+02  0.13357173497E+02  0.43400731069E+02  0.00000000000E+00 0. -1.
         11    1    3    3    0    0  0.40140804714E+01  0.37550109156E+01 -0.11927094002E+01  0.56245448689E+01  0.51100000000E-03 0. -1.
        -11    1    3    3    0    0 -0.53629518288E+00  0.30565486773E+00 -0.16365130783E+00  0.63860741698E+00  0.51100000000E-03 0.  1.
        -12    1    3    3    0    0  0.35269719485E+02 -0.18337929082E+02 -0.12000812789E+02  0.41524116645E+02  0.00000000000E+00 0.  1.
</event>
<event>
 7    1  0.2328615E-009  0.4778727E+02  0.7816164E-02  0.1312668E+00
        -11   -1    0    0    0    0  0.00000000000E+00  0.00000000000E+00  0.45593999997E+02  0.45594000000E+02  0.51100000000E-03 0.  1.
         11   -1    0    0    0    0 -0.00000000000E+00 -0.00000000000E+00 -0.45593999997E+02  0.45594000000E+02  0.51100000000E-03 0. -1.
    9900012    2    1    2    0    0 -0.31489292661E+01  0.13567375452E+01  0.43265081733E+02  0.47787265103E+02  0.19999972908E+02 0.  0.
         12    1    1    2    0    0  0.31489292661E+01 -0.13567375452E+01 -0.43265081733E+02  0.43400734897E+02  0.00000000000E+00 0. -1.
         11    1    3    3    0    0  0.18410951034E+01  0.43002838175E+01  0.95925913615E+01  0.10672388738E+02  0.51100000000E-03 0. -1.
        -11    1    3    3    0    0  0.20659555965E+01  0.21563289771E+01  0.23655558528E+02  0.23843308846E+02  0.51100000000E-03 0.  1.
        -12    1    3    3    0    0 -0.70559799660E+01 -0.50998752494E+01  0.10016931843E+02  0.13271567518E+02  0.00000000000E+00 0.  1.
</event>
<event>
 7    1  0.2328615E-009  0.4778728E+02  0.7816164E-02  0.1312668E+00
        -11   -1    0    0    0    0  0.00000000000E+00  0.00000000000E+00  0.45593999997E+02  0.45594000000E+02  0.51100000000E-03 0.  1.
         11   -1    0    0    0    0 -0.00000000000E+00 -0.00000000000E+00 -0.45593999997E+02  0.45594000000E+02  0.51100000000E-03 0. -1.
    9900012    2    1    2    0    0  0.21237273707E+02 -0.34335094179E+02  0.15928025604E+02  0.47787280116E+02  0.20000041362E+02 0.  0.
         12    1    1    2    0    0 -0.21237273707E+02  0.34335094179E+02 -0.15928025604E+02  0.43400719884E+02  0.00000000000E+00 0. -1.
         11    1    3    3    0    0  0.83400147654E+01 -0.81958297836E+01  0.39278856198E+01  0.12335143203E+02  0.51100000000E-03 0. -1.
        -11    1    3    3    0    0  0.13835807587E+02 -0.24166514976E+02  0.15086370427E+02  0.31670942369E+02  0.51100000000E-03 0.  1.
         12    1    3    3    0    0 -0.93854864504E+00 -0.19727494200E+01 -0.30862304431E+01  0.37811945442E+01  0.00000000000E+00 0. -1.
</event>
<event>
 7    1  0.2328615E-009  0.4778727E+02  0.7816164E-02  0.1312668E+00
        -11   -1    0    0    0    0  0.00000000000E+00  0.00000000000E+00  0.45593999997E+02  0.45594000000E+02  0.51100000000E-03 0. -1.
         11   -1    0    0    0    0 -0.00000000000E+00 -0.00000000000E+00 -0.45593999997E+02  0.45594000000E+02  0.51100000000E-03 0.  1.
    9900012    2    1    2    0    0 -0.19635386939E+02  0.37908527429E+02  0.78114065839E+01  0.47787274834E+02  0.20000017280E+02 0.  0.
         12    1    1    2    0    0  0.19635386939E+02 -0.37908527429E+02 -0.78114065839E+01  0.43400725166E+02  0.00000000000E+00 0. -1.
         11    1    3    3    0    0  0.38170221249E+00  0.48278743022E+01  0.24525783369E+01  0.54285548368E+01  0.51100000000E-03 0. -1.
        -11    1    3    3    0    0 -0.10903457548E+02  0.28901775703E+02  0.81581442081E+01  0.31949230703E+02  0.51100000000E-03 0.  1.
         12    1    3    3    0    0 -0.91136316039E+01  0.41788774233E+01 -0.27993159611E+01  0.10409489295E+02  0.00000000000E+00 0. -1.
</event>
<event>
 7    1  0.2466536E-009  0.4778728E+02  0.7816164E-02  0.1312668E+00
        -11   -1    0    0    0    0  0.00000000000E+00  0.00000000000E+00  0.45593999997E+02  0.45594000000E+02  0.51100000000E-03 0. -1.
         11   -1    0    0    0    0 -0.00000000000E+00 -0.00000000000E+00 -0.45593999997E+02  0.45594000000E+02  0.51100000000E-03 0.  1.
    9900012    2    1    2    0    0  0.42298613486E+02  0.91974344594E+01  0.31396349449E+01  0.47787276376E+02  0.20000024309E+02 0.  0.
         12    1    1    2    0    0 -0.42298613486E+02 -0.91974344594E+01 -0.31396349449E+01  0.43400723624E+02  0.00000000000E+00 0. -1.
         11    1    3    3    0    0 -0.79050844676E+00 -0.13453390565E+01  0.47552900460E+00  0.16312476442E+01  0.51100000000E-03 0. -1.
        -11    1    3    3    0    0  0.81407831678E+01  0.57215781653E+01 -0.30713226799E+01  0.10413540731E+02  0.51100000000E-03 0.  1.
        -12    1    3    3    0    0  0.34948338765E+02  0.48211953507E+01  0.57354286202E+01  0.35742488001E+02  0.00000000000E+00 0.  1.
</event>
<event>
 7    1  0.2328615E-009  0.4778728E+02  0.7816164E-02  0.1312668E+00
        -11   -1    0    0    0    0  0.00000000000E+00  0.00000000000E+00  0.45593999997E+02  0.45594000000E+02  0.51100000000E-03 0. -1.
         11   -1    0    0    0    0 -0.00000000000E+00 -0.00000000000E+00 -0.45593999997E+02  0.45594000000E+02  0.51100000000E-03 0.  1.
    9900012    2    1    2    0    0 -0.24962256512E+02  0.34618119150E+02  0.78799842932E+01  0.47787279082E+02  0.20000036649E+02 0.  0.
         12    1    1    2    0    0  0.24962256512E+02 -0.34618119150E+02 -0.78799842932E+01  0.43400720918E+02  0.00000000000E+00 0. -1.
         11    1    3    3    0    0 -0.12065482374E+02  0.24281806706E+02 -0.23326990306E+01  0.27214398521E+02  0.51100000000E-03 0.  1.
        -11    1    3    3    0    0 -0.27123839805E+01 -0.38844909289E+00  0.27384069953E+00  0.27537081446E+01  0.51100000000E-03 0. -1.
        -12    1    3    3    0    0 -0.10184390157E+02  0.10724761537E+02  0.99388426243E+01  0.17819172417E+02  0.00000000000E+00 0.  1.
</event>
<event>
 7    1  0.2328615E-009  0.4778727E+02  0.7816164E-02  0.1312668E+00
        -11   -1    0    0    0    0  0.00000000000E+00  0.00000000000E+00  0.45593999997E+02  0.45594000000E+02  0.51100000000E-03 0.  1.
         11   -1    0    0    0    0 -0.00000000000E+00 -0.00000000000E+00 -0.45593999997E+02  0.45594000000E+02  0.51100000000E-03 0. -1.
    9900012    2    1    2    0    0  0.16477170014E+02  0.16319528772E+02  0.36685134663E+02  0.47787271248E+02  0.20000000926E+02 0.  0.
         12    1    1    2    0    0 -0.16477170014E+02 -0.16319528772E+02 -0.36685134663E+02  0.43400728752E+02  0.00000000000E+00 0. -1.
         11    1    3    3    0    0  0.38471150369E+01  0.98961747599E+01  0.35523393410E+01  0.11196145946E+02  0.51100000000E-03 0. -1.
        -11    1    3    3    0    0  0.33294868017E+01  0.10976702945E+01  0.30172938181E+01  0.46254107584E+01  0.51100000000E-03 0.  1.
        -12    1    3    3    0    0  0.93005681757E+01  0.53256837175E+01  0.30115501504E+02  0.31965714543E+02  0.00000000000E+00 0.  1.
</event>
<event>
 7    1  0.2328615E-009  0.4778727E+02  0.7816164E-02  0.1312668E+00
        -11   -1    0    0    0    0  0.00000000000E+00  0.00000000000E+00  0.45593999997E+02  0.45594000000E+02  0.51100000000E-03 0.  1.
         11   -1    0    0    0    0 -0.00000000000E+00 -0.00000000000E+00 -0.45593999997E+02  0.45594000000E+02  0.51100000000E-03 0. -1.
    9900012    2    1    2    0    0  0.20103386595E+02 -0.56691316602E+01  0.38043892935E+02  0.47787274245E+02  0.20000014593E+02 0.  0.
         12    1    1    2    0    0 -0.20103386595E+02  0.56691316602E+01 -0.38043892935E+02  0.43400725755E+02  0.00000000000E+00 0. -1.
         11    1    3    3    0    0  0.12185074773E+01 -0.33939316778E+00 -0.18765639090E+01  0.22630599993E+01  0.51100000000E-03 0. -1.
        -11    1    3    3    0    0  0.27129384456E+00 -0.13943509603E+01  0.13868694402E+00  0.14272523533E+01  0.51100000000E-03 0.  1.
        -12    1    3    3    0    0  0.18613585273E+02 -0.39353875321E+01  0.39781769900E+02  0.44096961893E+02  0.00000000000E+00 0.  1.
</event>
<event>
 7    1  0.2328615E-009  0.4778727E+02  0.7816164E-02  0.1312668E+00
        -11   -1    0    0    0    0  0.00000000000E+00  0.00000000000E+00  0.45593999997E+02  0.45594000000E+02  0.51100000000E-03 0.  1.
         11   -1    0    0    0    0 -0.00000000000E+00 -0.00000000000E+00 -0.45593999997E+02  0.45594000000E+02  0.51100000000E-03 0. -1.
    9900012    2    1    2    0    0  0.17403361624E+02  0.35786787150E+02  0.17322007831E+02  0.47787273213E+02  0.20000009887E+02 0.  0.
         12    1    1    2    0    0 -0.17403361624E+02 -0.35786787150E+02 -0.17322007831E+02  0.43400726787E+02  0.00000000000E+00 0. -1.
         11    1    3    3    0    0  0.75148298131E+00  0.92409558624E+01  0.63044156653E+01  0.11211853061E+02  0.51100000000E-03 0. -1.
        -11    1    3    3    0    0  0.37615565625E+01  0.13971150970E+02  0.11620555047E+02  0.18557469306E+02  0.51100000000E-03 0.  1.
         12    1    3    3    0    0  0.12890322080E+02  0.12574680318E+02 -0.60296288199E+00  0.18017950846E+02  0.00000000000E+00 0. -1.
</event>
<event>
 7    1  0.2328615E-009  0.4778727E+02  0.7816164E-02  0.1312668E+00
        -11   -1    0    0    0    0  0.00000000000E+00  0.00000000000E+00  0.45593999997E+02  0.45594000000E+02  0.51100000000E-03 0.  1.
         11   -1    0    0    0    0 -0.00000000000E+00 -0.00000000000E+00 -0.45593999997E+02  0.45594000000E+02  0.51100000000E-03 0. -1.
    9900012    2    1    2    0    0  0.31029375082E+02 -0.21256585353E+02 -0.21655455508E+02  0.47787270834E+02  0.19999999040E+02 0.  0.
         12    1    1    2    0    0 -0.31029375082E+02  0.21256585353E+02  0.21655455508E+02  0.43400729166E+02  0.00000000000E+00 0. -1.
         11    1    3    3    0    0  0.78614406305E+01 -0.58324544843E+01 -0.40387419928E+01  0.10589202578E+02  0.51100000000E-03 0.  1.
        -11    1    3    3    0    0  0.13848940812E+02 -0.18348509334E+02 -0.12704822502E+02  0.26265442533E+02  0.51100000000E-03 0. -1.
         12    1    3    3    0    0  0.93189936396E+01  0.29243784647E+01 -0.49118910135E+01  0.10932625723E+02  0.00000000000E+00 0. -1.
</event>
<event>
 7    1  0.2328615E-009  0.4778727E+02  0.7816164E-02  0.1312668E+00
        -11   -1    0    0    0    0  0.00000000000E+00  0.00000000000E+00  0.45593999997E+02  0.45594000000E+02  0.51100000000E-03 0. -1.
         11   -1    0    0    0    0 -0.00000000000E+00 -0.00000000000E+00 -0.45593999997E+02  0.45594000000E+02  0.51100000000E-03 0.  1.
    9900012    2    1    2    0    0 -0.41272319893E+02  0.11514652610E+02 -0.69015643269E+01  0.47787271847E+02  0.20000003658E+02 0.  0.
         12    1    1    2    0    0  0.41272319893E+02 -0.11514652610E+02  0.69015643269E+01  0.43400728153E+02  0.00000000000E+00 0. -1.
         11    1    3    3    0    0 -0.29820967551E+02  0.62412390946E+01 -0.11603701429E+02  0.32601979361E+02  0.51100000000E-03 0. -1.
        -11    1    3    3    0    0 -0.25711364698E+01 -0.26573716409E+00 -0.15304443548E+01  0.30039339492E+01  0.51100000000E-03 0.  1.
         12    1    3    3    0    0 -0.88802158719E+01  0.55391506796E+01  0.62325814568E+01  0.12181358537E+02  0.00000000000E+00 0. -1.
</event>
<event>
 7    1  0.2328615E-009  0.4778727E+02  0.7816164E-02  0.1312668E+00
        -11   -1    0    0    0    0  0.00000000000E+00  0.00000000000E+00  0.45593999997E+02  0.45594000000E+02  0.51100000000E-03 0.  1.
         11   -1    0    0    0    0 -0.00000000000E+00 -0.00000000000E+00 -0.45593999997E+02  0.45594000000E+02  0.51100000000E-03 0. -1.
    9900012    2    1    2    0    0 -0.39438953678E+02  0.12811233233E+01  0.18070721218E+02  0.47787270634E+02  0.19999998129E+02 0.  0.
         12    1    1    2    0    0  0.39438953678E+02 -0.12811233233E+01 -0.18070721218E+02  0.43400729366E+02  0.00000000000E+00 0. -1.
         11    1    3    3    0    0 -0.73907161763E+01 -0.43260344450E+01  0.75330095299E+01  0.11405415050E+02  0.51100000000E-03 0. -1.
        -11    1    3    3    0    0 -0.71718228890E+00  0.21150871474E+00 -0.20547441936E+01  0.21865635902E+01  0.51100000000E-03 0.  1.
        -12    1    3    3    0    0 -0.31331055212E+02  0.53956490535E+01  0.12592455882E+02  0.34195291994E+02  0.00000000000E+00 0.  1.
</event>
<event>
 7    1  0.2371578E-009  0.4778727E+02  0.7816164E-02  0.1312668E+00
        -11   -1    0    0    0    0  0.00000000000E+00  0.00000000000E+00  0.45593999997E+02  0.45594000000E+02  0.51100000000E-03 0. -1.
         11   -1    0    0    0    0 -0.00000000000E+00 -0.00000000000E+00 -0.45593999997E+02  0.45594000000E+02  0.51100000000E-03 0.  1.
    9900012    2    1    2    0    0 -0.35480951751E+02 -0.86316295590E+01 -0.23456778953E+02  0.47787269075E+02  0.19999991020E+02 0.  0.
         12    1    1    2    0    0  0.35480951751E+02  0.86316295590E+01  0.23456778953E+02  0.43400730925E+02  0.00000000000E+00 0. -1.
         11    1    3    3    0    0 -0.11318848702E+01  0.30367103467E+01 -0.14252471732E+00  0.32439307399E+01  0.51100000000E-03 0. -1.
        -11    1    3    3    0    0 -0.11689880957E+02  0.11918995429E+01 -0.91129142308E+01  0.14870075566E+02  0.51100000000E-03 0.  1.
        -12    1    3    3    0    0 -0.22659185924E+02 -0.12860239449E+02 -0.14201340005E+02  0.29673262769E+02  0.00000000000E+00 0.  1.
</event>
<event>
 7    1  0.2328615E-009  0.4778727E+02  0.7816164E-02  0.1312668E+00
        -11   -1    0    0    0    0  0.00000000000E+00  0.00000000000E+00  0.45593999997E+02  0.45594000000E+02  0.51100000000E-03 0. -1.
         11   -1    0    0    0    0 -0.00000000000E+00 -0.00000000000E+00 -0.45593999997E+02  0.45594000000E+02  0.51100000000E-03 0.  1.
    9900012    2    1    2    0    0 -0.15987768517E+02  0.30698970753E+02 -0.26183732319E+02  0.47787269757E+02  0.19999994132E+02 0.  0.
         12    1    1    2    0    0  0.15987768517E+02 -0.30698970753E+02  0.26183732319E+02  0.43400730243E+02  0.00000000000E+00 0. -1.
         11    1    3    3    0    0  0.24688014960E+01  0.49319653825E+01 -0.82199719092E+01  0.98988485093E+01  0.51100000000E-03 0. -1.
        -11    1    3    3    0    0 -0.33815123283E+01  0.10664980173E+02 -0.10323649522E+02  0.15223474223E+02  0.51100000000E-03 0.  1.
        -12    1    3    3    0    0 -0.15075057685E+02  0.15102025197E+02 -0.76401108878E+01  0.22664947025E+02  0.00000000000E+00 0.  1.
</event>
<event>
 7    1  0.2328615E-009  0.4778727E+02  0.7816164E-02  0.1312668E+00
        -11   -1    0    0    0    0  0.00000000000E+00  0.00000000000E+00  0.45593999997E+02  0.45594000000E+02  0.51100000000E-03 0.  1.
         11   -1    0    0    0    0 -0.00000000000E+00 -0.00000000000E+00 -0.45593999997E+02  0.45594000000E+02  0.51100000000E-03 0. -1.
    9900012    2    1    2    0    0  0.13234388014E+02  0.40586590226E+02  0.78232213254E+01  0.47787272768E+02  0.20000007860E+02 0.  0.
         12    1    1    2    0    0 -0.13234388014E+02 -0.40586590226E+02 -0.78232213254E+01  0.43400727232E+02  0.00000000000E+00 0. -1.
         11    1    3    3    0    0 -0.26401086064E+01  0.12915581852E+02 -0.82857099805E+00  0.13208669812E+02  0.51100000000E-03 0. -1.
        -11    1    3    3    0    0  0.58036488661E+01  0.19687561405E+02  0.40003355008E+01  0.20911362907E+02  0.51100000000E-03 0.  1.
         12    1    3    3    0    0  0.10070847755E+02  0.79834469694E+01  0.46514568226E+01  0.13667240050E+02  0.00000000000E+00 0. -1.
</event>
<event>
 7    1  0.2328615E-009  0.4778727E+02  0.7816164E-02  0.1312668E+00
        -11   -1    0    0    0    0  0.00000000000E+00  0.00000000000E+00  0.45593999997E+02  0.45594000000E+02  0.51100000000E-03 0.  1.
         11   -1    0    0    0    0 -0.00000000000E+00 -0.00000000000E+00 -0.45593999997E+02  0.45594000000E+02  0.51100000000E-03 0. -1.
    9900012    2    1    2    0    0 -0.15955865651E+02  0.22486924705E+02  0.33516738518E+02  0.47787271985E+02  0.20000004290E+02 0.  0.
         12    1    1    2    0    0  0.15955865651E+02 -0.22486924705E+02 -0.33516738518E+02  0.43400728015E+02  0.00000000000E+00 0. -1.
         11    1    3    3    0    0 -0.11147253513E+02  0.12183164372E+02  0.22080955809E+02  0.27572801176E+02  0.51100000000E-03 0.  1.
        -11    1    3    3    0    0  0.14585122343E+01  0.72381409855E+01  0.10968402981E+02  0.13222095412E+02  0.51100000000E-03 0. -1.
         12    1    3    3    0    0 -0.62671243727E+01  0.30656193471E+01  0.46737972683E+00  0.69923753970E+01  0.00000000000E+00 0. -1.
</event>
<event>
 7    1  0.2328615E-009  0.4778724E+02  0.7816164E-02  0.1312668E+00
        -11   -1    0    0    0    0  0.00000000000E+00  0.00000000000E+00  0.45593999997E+02  0.45594000000E+02  0.51100000000E-03 0. -1.
         11   -1    0    0    0    0 -0.00000000000E+00 -0.00000000000E+00 -0.45593999997E+02  0.45594000000E+02  0.51100000000E-03 0.  1.
    9900012    2    1    2    0    0 -0.25807597783E+02 -0.57921629225E+01 -0.34409947509E+02  0.47787242608E+02  0.19999870346E+02 0.  0.
         12    1    1    2    0    0  0.25807597783E+02  0.57921629225E+01  0.34409947509E+02  0.43400757392E+02  0.00000000000E+00 0. -1.
         11    1    3    3    0    0 -0.19121205275E+01  0.16766622978E+01 -0.16283576366E+01  0.30197599617E+01  0.51100000000E-03 0. -1.
        -11    1    3    3    0    0 -0.73656206933E+01 -0.41679860803E+01 -0.24630482429E+02  0.26043907946E+02  0.51100000000E-03 0.  1.
         12    1    3    3    0    0 -0.16529856562E+02 -0.33008391401E+01 -0.81511074430E+01  0.18723574700E+02  0.00000000000E+00 0. -1.
</event>
<event>
 7    1  0.2328615E-009  0.4778727E+02  0.7816164E-02  0.1312668E+00
        -11   -1    0    0    0    0  0.00000000000E+00  0.00000000000E+00  0.45593999997E+02  0.45594000000E+02  0.51100000000E-03 0. -1.
         11   -1    0    0    0    0 -0.00000000000E+00 -0.00000000000E+00 -0.45593999997E+02  0.45594000000E+02  0.51100000000E-03 0.  1.
    9900012    2    1    2    0    0  0.11331938352E+02 -0.36809813211E+02 -0.20006193749E+02  0.47787274616E+02  0.20000016286E+02 0.  0.
         12    1    1    2    0    0 -0.11331938352E+02  0.36809813211E+02  0.20006193749E+02  0.43400725384E+02  0.00000000000E+00 0. -1.
         11    1    3    3    0    0  0.21325341761E-01 -0.20802452224E+01  0.35827178452E+01  0.41429147197E+01  0.51100000000E-03 0. -1.
        -11    1    3    3    0    0  0.34293382480E+00 -0.52451641516E+01 -0.36536251483E+01  0.64014316813E+01  0.51100000000E-03 0.  1.
        -12    1    3    3    0    0  0.10967679185E+02 -0.29484403838E+02 -0.19935286446E+02  0.37242928215E+02  0.00000000000E+00 0.  1.
</event>
<event>
 7    1  0.2328615E-009  0.4778727E+02  0.7816164E-02  0.1312668E+00
        -11   -1    0    0    0    0  0.00000000000E+00  0.00000000000E+00  0.45593999997E+02  0.45594000000E+02  0.51100000000E-03 0.  1.
         11   -1    0    0    0    0 -0.00000000000E+00 -0.00000000000E+00 -0.45593999997E+02  0.45594000000E+02  0.51100000000E-03 0. -1.
    9900012    2    1    2    0    0 -0.78318807833E+01 -0.33189121922E+01  0.42559016302E+02  0.47787269553E+02  0.19999993201E+02 0.  0.
         12    1    1    2    0    0  0.78318807833E+01  0.33189121922E+01 -0.42559016302E+02  0.43400730447E+02  0.00000000000E+00 0. -1.
         11    1    3    3    0    0 -0.75399589293E+01 -0.31721774904E+01  0.22443000537E+02  0.23887276195E+02  0.51100000000E-03 0.  1.
        -11    1    3    3    0    0  0.53729491810E+01  0.15251654191E+01  0.43982598865E+01  0.71091070289E+01  0.51100000000E-03 0. -1.
         12    1    3    3    0    0 -0.56648710351E+01 -0.16719001210E+01  0.15717755879E+02  0.16790886329E+02  0.00000000000E+00 0. -1.
</event>
<event>
 7    1  0.2328615E-009  0.4778727E+02  0.7816164E-02  0.1312668E+00
        -11   -1    0    0    0    0  0.00000000000E+00  0.00000000000E+00  0.45593999997E+02  0.45594000000E+02  0.51100000000E-03 0.  1.
         11   -1    0    0    0    0 -0.00000000000E+00 -0.00000000000E+00 -0.45593999997E+02  0.45594000000E+02  0.51100000000E-03 0. -1.
    9900012    2    1    2    0    0  0.73594209119E+01 -0.29676426526E+02  0.30802139178E+02  0.47787272524E+02  0.20000006747E+02 0.  0.
         12    1    1    2    0    0 -0.73594209119E+01  0.29676426526E+02 -0.30802139178E+02  0.43400727476E+02  0.00000000000E+00 0. -1.
         11    1    3    3    0    0  0.33190482241E+01 -0.13203064064E+02  0.18262843608E+02  0.22778683867E+02  0.51100000000E-03 0. -1.
        -11    1    3    3    0    0  0.50796858912E+01 -0.18509937403E+02  0.10194649990E+02  0.21733657771E+02  0.51100000000E-03 0.  1.
         12    1    3    3    0    0 -0.10393132033E+01  0.20365749403E+01  0.23446455787E+01  0.32749308866E+01  0.00000000000E+00 0. -1.
</event>
<event>
 7    1  0.2328615E-009  0.4778727E+02  0.7816164E-02  0.1312668E+00
        -11   -1    0    0    0    0  0.00000000000E+00  0.00000000000E+00  0.45593999997E+02  0.45594000000E+02  0.51100000000E-03 0.  1.
         11   -1    0    0    0    0 -0.00000000000E+00 -0.00000000000E+00 -0.45593999997E+02  0.45594000000E+02  0.51100000000E-03 0. -1.
    9900012    2    1    2    0    0 -0.13815117217E+02  0.17691778845E+01  0.41105178783E+02  0.47787272162E+02  0.20000005095E+02 0.  0.
         12    1    1    2    0    0  0.13815117217E+02 -0.17691778845E+01 -0.41105178783E+02  0.43400727838E+02  0.00000000000E+00 0. -1.
         11    1    3    3    0    0 -0.39797059343E+01  0.40245419992E+01  0.57875971792E+01  0.80951392203E+01  0.51100000000E-03 0. -1.
        -11    1    3    3    0    0 -0.13731910147E+02 -0.35309461051E+00  0.25647396222E+02  0.29094311563E+02  0.51100000000E-03 0.  1.
        -12    1    3    3    0    0  0.38964988638E+01 -0.19022695042E+01  0.96701853817E+01  0.10597821379E+02  0.00000000000E+00 0.  1.
</event>
<event>
 7    1  0.2328615E-009  0.4778727E+02  0.7816164E-02  0.1312668E+00
        -11   -1    0    0    0    0  0.00000000000E+00  0.00000000000E+00  0.45593999997E+02  0.45594000000E+02  0.51100000000E-03 0. -1.
         11   -1    0    0    0    0 -0.00000000000E+00 -0.00000000000E+00 -0.45593999997E+02  0.45594000000E+02  0.51100000000E-03 0.  1.
    9900012    2    1    2    0    0 -0.18996770498E+02 -0.13609962162E+02 -0.36572050885E+02  0.47787271142E+02  0.20000000447E+02 0.  0.
         12    1    1    2    0    0  0.18996770498E+02  0.13609962162E+02  0.36572050885E+02  0.43400728858E+02  0.00000000000E+00 0. -1.
         11    1    3    3    0    0 -0.61908497395E+01 -0.38908820222E+01 -0.20558344538E+02  0.21819970527E+02  0.51100000000E-03 0. -1.
        -11    1    3    3    0    0 -0.10288277111E+02 -0.72344308931E+01 -0.17963086504E+02  0.21928477222E+02  0.51100000000E-03 0.  1.
         12    1    3    3    0    0 -0.25176436478E+01 -0.24846492467E+01  0.19493801559E+01  0.40388233941E+01  0.00000000000E+00 0. -1.
</event>
<event>
 7    1  0.2328615E-009  0.4778727E+02  0.7816164E-02  0.1312668E+00
        -11   -1    0    0    0    0  0.00000000000E+00  0.00000000000E+00  0.45593999997E+02  0.45594000000E+02  0.51100000000E-03 0.  1.
         11   -1    0    0    0    0 -0.00000000000E+00 -0.00000000000E+00 -0.45593999997E+02  0.45594000000E+02  0.51100000000E-03 0. -1.
    9900012    2    1    2    0    0  0.10371633853E+02  0.31910929414E+02  0.27527171342E+02  0.47787269972E+02  0.19999995111E+02 0.  0.
         12    1    1    2    0    0 -0.10371633853E+02 -0.31910929414E+02 -0.27527171342E+02  0.43400730028E+02  0.00000000000E+00 0. -1.
         11    1    3    3    0    0  0.59082845126E+01  0.10230303686E+02  0.19363027231E+01  0.11971474758E+02  0.51100000000E-03 0. -1.
        -11    1    3    3    0    0  0.76859056878E+01  0.18422410926E+02  0.17640186229E+02  0.26638966591E+02  0.51100000000E-03 0.  1.
         12    1    3    3    0    0 -0.32225563473E+01  0.32582148016E+01  0.79506823901E+01  0.91768286229E+01  0.00000000000E+00 0. -1.
</event>
<event>
 7    1  0.2328615E-009  0.4778727E+02  0.7816164E-02  0.1312668E+00
        -11   -1    0    0    0    0  0.00000000000E+00  0.00000000000E+00  0.45593999997E+02  0.45594000000E+02  0.51100000000E-03 0.  1.
         11   -1    0    0    0    0 -0.00000000000E+00 -0.00000000000E+00 -0.45593999997E+02  0.45594000000E+02  0.51100000000E-03 0. -1.
    9900012    2    1    2    0    0 -0.38450001046E+02  0.20078981739E+02  0.14335892940E+01  0.47787271131E+02  0.20000000394E+02 0.  0.
         12    1    1    2    0    0  0.38450001046E+02 -0.20078981739E+02 -0.14335892940E+01  0.43400728869E+02  0.00000000000E+00 0. -1.
         11    1    3    3    0    0 -0.98004178892E+00  0.57893723250E+00  0.17352661403E+01  0.20752828882E+01  0.51100000000E-03 0. -1.
        -11    1    3    3    0    0 -0.16675026285E+02  0.15476101942E+02 -0.64685315467E+01  0.23651810365E+02  0.51100000000E-03 0.  1.
        -12    1    3    3    0    0 -0.20794932972E+02  0.40239425642E+01  0.61668547004E+01  0.22060177877E+02  0.00000000000E+00 0.  1.
</event>
<event>
 7    1  0.2328615E-009  0.4778728E+02  0.7816164E-02  0.1312668E+00
        -11   -1    0    0    0    0  0.00000000000E+00  0.00000000000E+00  0.45593999997E+02  0.45594000000E+02  0.51100000000E-03 0.  1.
         11   -1    0    0    0    0 -0.00000000000E+00 -0.00000000000E+00 -0.45593999997E+02  0.45594000000E+02  0.51100000000E-03 0. -1.
    9900012    2    1    2    0    0  0.41576031362E+02  0.11277315623E+02  0.52799465064E+01  0.47787284953E+02  0.20000063415E+02 0.  0.
         12    1    1    2    0    0 -0.41576031362E+02 -0.11277315623E+02 -0.52799465064E+01  0.43400715047E+02  0.00000000000E+00 0. -1.
         11    1    3    3    0    0 -0.75620028951E+00  0.69470172543E+00  0.24590378328E+01  0.26648295798E+01  0.51100000000E-03 0. -1.
        -11    1    3    3    0    0  0.16207142432E+02  0.71787610611E+01  0.56998326247E+01  0.18619725251E+02  0.51100000000E-03 0.  1.
         12    1    3    3    0    0  0.26125089219E+02  0.34038528363E+01 -0.28789239511E+01  0.26502730123E+02  0.00000000000E+00 0. -1.
</event>
<event>
 7    1  0.2328615E-009  0.4778728E+02  0.7816164E-02  0.1312668E+00
        -11   -1    0    0    0    0  0.00000000000E+00  0.00000000000E+00  0.45593999997E+02  0.45594000000E+02  0.51100000000E-03 0.  1.
         11   -1    0    0    0    0 -0.00000000000E+00 -0.00000000000E+00 -0.45593999997E+02  0.45594000000E+02  0.51100000000E-03 0. -1.
    9900012    2    1    2    0    0  0.38980010955E+02 -0.11230552298E+02  0.15429075106E+02  0.47787275149E+02  0.20000018715E+02 0.  0.
         12    1    1    2    0    0 -0.38980010955E+02  0.11230552298E+02 -0.15429075106E+02  0.43400724851E+02  0.00000000000E+00 0. -1.
         11    1    3    3    0    0  0.16061559468E+00  0.23251005685E+01  0.22789186344E+01  0.32596564890E+01  0.51100000000E-03 0. -1.
        -11    1    3    3    0    0  0.39702000708E+01  0.17756008937E+01  0.35941069780E+00  0.43639916873E+01  0.51100000000E-03 0.  1.
         12    1    3    3    0    0  0.34849195289E+02 -0.15331253760E+02  0.12790745773E+02  0.40163626973E+02  0.00000000000E+00 0. -1.
</event>
<event>
 7    1  0.2328615E-009  0.4778728E+02  0.7816164E-02  0.1312668E+00
        -11   -1    0    0    0    0  0.00000000000E+00  0.00000000000E+00  0.45593999997E+02  0.45594000000E+02  0.51100000000E-03 0.  1.
         11   -1    0    0    0    0 -0.00000000000E+00 -0.00000000000E+00 -0.45593999997E+02  0.45594000000E+02  0.51100000000E-03 0. -1.
    9900012    2    1    2    0    0 -0.19052362071E+02 -0.21752283923E+02  0.32364617413E+02  0.47787276312E+02  0.20000024016E+02 0.  0.
         12    1    1    2    0    0  0.19052362071E+02  0.21752283923E+02 -0.32364617413E+02  0.43400723688E+02  0.00000000000E+00 0. -1.
         11    1    3    3    0    0 -0.34526441262E+01 -0.39500840965E+01  0.73666922616E+00  0.52977917703E+01  0.51100000000E-03 0. -1.
        -11    1    3    3    0    0 -0.11939512370E+02 -0.14151201771E+02  0.11700352886E+02  0.21902208225E+02  0.51100000000E-03 0.  1.
        -12    1    3    3    0    0 -0.36602055747E+01 -0.36509980556E+01  0.19927595301E+02  0.20587276317E+02  0.00000000000E+00 0.  1.
</event>
<event>
 7    1  0.2328615E-009  0.4778726E+02  0.7816164E-02  0.1312668E+00
        -11   -1    0    0    0    0  0.00000000000E+00  0.00000000000E+00  0.45593999997E+02  0.45594000000E+02  0.51100000000E-03 0. -1.
         11   -1    0    0    0    0 -0.00000000000E+00 -0.00000000000E+00 -0.45593999997E+02  0.45594000000E+02  0.51100000000E-03 0.  1.
    9900012    2    1    2    0    0  0.26636188257E+02  0.32843888777E+02 -0.97681368919E+01  0.47787262066E+02  0.19999959064E+02 0.  0.
         12    1    1    2    0    0 -0.26636188257E+02 -0.32843888777E+02  0.97681368919E+01  0.43400737934E+02  0.00000000000E+00 0. -1.
         11    1    3    3    0    0  0.10590776489E+01 -0.10617727681E+01 -0.24296951080E-01  0.14998658209E+01  0.51100000000E-03 0. -1.
        -11    1    3    3    0    0  0.12226164695E+01  0.13249480111E+02 -0.24272306021E+01  0.13525345205E+02  0.51100000000E-03 0.  1.
         12    1    3    3    0    0  0.24354494138E+02  0.20656181435E+02 -0.73166093387E+01  0.32762051041E+02  0.00000000000E+00 0. -1.
</event>
<event>
 7    1  0.2328615E-009  0.4778727E+02  0.7816164E-02  0.1312668E+00
        -11   -1    0    0    0    0  0.00000000000E+00  0.00000000000E+00  0.45593999997E+02  0.45594000000E+02  0.51100000000E-03 0.  1.
         11   -1    0    0    0    0 -0.00000000000E+00 -0.00000000000E+00 -0.45593999997E+02  0.45594000000E+02  0.51100000000E-03 0. -1.
    9900012    2    1    2    0    0  0.12326591954E+02  0.34082165151E+02  0.23876442787E+02  0.47787269928E+02  0.19999994912E+02 0.  0.
         12    1    1    2    0    0 -0.12326591954E+02 -0.34082165151E+02 -0.23876442787E+02  0.43400730072E+02  0.00000000000E+00 0. -1.
         11    1    3    3    0    0 -0.17276626041E+00  0.34853064924E+01  0.38312762690E+01  0.51822666505E+01  0.51100000000E-03 0. -1.
        -11    1    3    3    0    0  0.49788295514E+01  0.20786471220E+02  0.21305872793E+02  0.30179568340E+02  0.51100000000E-03 0.  1.
         12    1    3    3    0    0  0.75205286634E+01  0.98103874390E+01 -0.12607062750E+01  0.12425434938E+02  0.00000000000E+00 0. -1.
</event>
<event>
 7    1  0.2328615E-009  0.4778726E+02  0.7816164E-02  0.1312668E+00
        -11   -1    0    0    0    0  0.00000000000E+00  0.00000000000E+00  0.45593999997E+02  0.45594000000E+02  0.51100000000E-03 0.  1.
         11   -1    0    0    0    0 -0.00000000000E+00 -0.00000000000E+00 -0.45593999997E+02  0.45594000000E+02  0.51100000000E-03 0. -1.
    9900012    2    1    2    0    0  0.40546410268E+02  0.67796333151E+01  0.13915782427E+02  0.47787264821E+02  0.19999971625E+02 0.  0.
         12    1    1    2    0    0 -0.40546410268E+02 -0.67796333151E+01 -0.13915782427E+02  0.43400735179E+02  0.00000000000E+00 0. -1.
         11    1    3    3    0    0  0.16693782299E+02  0.58080515636E+01  0.10781175033E+02  0.20703853887E+02  0.51100000000E-03 0. -1.
        -11    1    3    3    0    0  0.34664394695E+01  0.50360918564E+01  0.66983652583E+00  0.61503743800E+01  0.51100000000E-03 0.  1.
        -12    1    3    3    0    0  0.20386188500E+02 -0.40645101049E+01  0.24647708678E+01  0.20933036554E+02  0.00000000000E+00 0.  1.
</event>
<event>
 7    1  0.2328615E-009  0.4778727E+02  0.7816164E-02  0.1312668E+00
        -11   -1    0    0    0    0  0.00000000000E+00  0.00000000000E+00  0.45593999997E+02  0.45594000000E+02  0.51100000000E-03 0. -1.
         11   -1    0    0    0    0 -0.00000000000E+00 -0.00000000000E+00 -0.45593999997E+02  0.45594000000E+02  0.51100000000E-03 0.  1.
    9900012    2    1    2    0    0  0.92670103399E+01  0.96134667057E+01 -0.41295605583E+02  0.47787271167E+02  0.20000000558E+02 0.  0.
         12    1    1    2    0    0 -0.92670103399E+01 -0.96134667057E+01  0.41295605583E+02  0.43400728833E+02  0.00000000000E+00 0. -1.
         11    1    3    3    0    0 -0.11114741024E+01  0.67788926171E+01 -0.14214130972E+02  0.15787028832E+02  0.51100000000E-03 0. -1.
        -11    1    3    3    0    0 -0.12316504251E+01  0.46713317292E+01 -0.48102845270E+01  0.68174144942E+01  0.51100000000E-03 0.  1.
        -12    1    3    3    0    0  0.11610134867E+02 -0.18367576406E+01 -0.22271190085E+02  0.25182827841E+02  0.00000000000E+00 0.  1.
</event>
<event>
 7    1  0.2328615E-009  0.4778728E+02  0.7816164E-02  0.1312668E+00
        -11   -1    0    0    0    0  0.00000000000E+00  0.00000000000E+00  0.45593999997E+02  0.45594000000E+02  0.51100000000E-03 0.  1.
         11   -1    0    0    0    0 -0.00000000000E+00 -0.00000000000E+00 -0.45593999997E+02  0.45594000000E+02  0.51100000000E-03 0. -1.
    9900012    2    1    2    0    0 -0.35631864664E+02  0.24697416834E+02 -0.20076117539E+01  0.47787277855E+02  0.20000031053E+02 0.  0.
         12    1    1    2    0    0  0.35631864664E+02 -0.24697416834E+02  0.20076117539E+01  0.43400722145E+02  0.00000000000E+00 0. -1.
         11    1    3    3    0    0 -0.58881004026E+01  0.48592318942E+01  0.30878457063E+01  0.82350866614E+01  0.51100000000E-03 0. -1.
        -11    1    3    3    0    0 -0.16180245828E+02  0.14292144388E+02  0.44785676794E+01  0.22048204348E+02  0.51100000000E-03 0.  1.
        -12    1    3    3    0    0 -0.13563518434E+02  0.55460405514E+01 -0.95740251396E+01  0.17503986845E+02  0.00000000000E+00 0.  1.
</event>
<event>
 7    1  0.2328615E-009  0.4778728E+02  0.7816164E-02  0.1312668E+00
        -11   -1    0    0    0    0  0.00000000000E+00  0.00000000000E+00  0.45593999997E+02  0.45594000000E+02  0.51100000000E-03 0.  1.
         11   -1    0    0    0    0 -0.00000000000E+00 -0.00000000000E+00 -0.45593999997E+02  0.45594000000E+02  0.51100000000E-03 0. -1.
    9900012    2    1    2    0    0  0.14157968068E+02  0.48742992893E+01  0.40735930001E+02  0.47787275969E+02  0.20000022453E+02 0.  0.
         12    1    1    2    0    0 -0.14157968068E+02 -0.48742992893E+01 -0.40735930001E+02  0.43400724031E+02  0.00000000000E+00 0. -1.
         11    1    3    3    0    0  0.31047035946E+01 -0.55321081542E+00  0.14106169776E+02  0.14454385238E+02  0.51100000000E-03 0. -1.
        -11    1    3    3    0    0  0.14290702725E+02  0.24000151233E+01  0.24381884408E+02  0.28363013671E+02  0.51100000000E-03 0.  1.
         12    1    3    3    0    0 -0.32374382518E+01  0.30274949814E+01  0.22478758174E+01  0.49698770596E+01  0.00000000000E+00 0. -1.
</event>
<event>
 7    1  0.2328615E-009  0.4778727E+02  0.7816164E-02  0.1312668E+00
        -11   -1    0    0    0    0  0.00000000000E+00  0.00000000000E+00  0.45593999997E+02  0.45594000000E+02  0.51100000000E-03 0.  1.
         11   -1    0    0    0    0 -0.00000000000E+00 -0.00000000000E+00 -0.45593999997E+02  0.45594000000E+02  0.51100000000E-03 0. -1.
    9900012    2    1    2    0    0  0.29152273188E+02 -0.43177043509E+00  0.32149368183E+02  0.47787270371E+02  0.19999996932E+02 0.  0.
         12    1    1    2    0    0 -0.29152273188E+02  0.43177043509E+00 -0.32149368183E+02  0.43400729629E+02  0.00000000000E+00 0. -1.
         11    1    3    3    0    0 -0.48249098340E+00  0.53180242939E+00 -0.41202470508E+00  0.82787438158E+00  0.51100000000E-03 0. -1.
        -11    1    3    3    0    0  0.21441861289E+02 -0.58420823349E+01  0.14500169945E+02  0.26535603823E+02  0.51100000000E-03 0.  1.
         12    1    3    3    0    0  0.81929028823E+01  0.48785094705E+01  0.18061222943E+02  0.20423792167E+02  0.00000000000E+00 0. -1.
</event>
<event>
 7    1  0.2328615E-009  0.4778727E+02  0.7816164E-02  0.1312668E+00
        -11   -1    0    0    0    0  0.00000000000E+00  0.00000000000E+00  0.45593999997E+02  0.45594000000E+02  0.51100000000E-03 0.  1.
         11   -1    0    0    0    0 -0.00000000000E+00 -0.00000000000E+00 -0.45593999997E+02  0.45594000000E+02  0.51100000000E-03 0. -1.
    9900012    2    1    2    0    0 -0.22749023117E+01  0.41830523869E+02  0.11342632288E+02  0.47787271724E+02  0.20000003096E+02 0.  0.
         12    1    1    2    0    0  0.22749023117E+01 -0.41830523869E+02 -0.11342632288E+02  0.43400728276E+02  0.00000000000E+00 0. -1.
         11    1    3    3    0    0  0.57684210503E+01  0.84777614734E+01  0.39599404000E+01  0.10992190375E+02  0.51100000000E-03 0. -1.
        -11    1    3    3    0    0  0.22421145251E+01  0.13087174853E+02  0.35887590505E+01  0.13754287149E+02  0.51100000000E-03 0.  1.
        -12    1    3    3    0    0 -0.10285437887E+02  0.20265587542E+02  0.37939328376E+01  0.23040794200E+02  0.00000000000E+00 0.  1.
</event>
<event>
 7    1  0.2328615E-009  0.4778727E+02  0.7816164E-02  0.1312668E+00
        -11   -1    0    0    0    0  0.00000000000E+00  0.00000000000E+00  0.45593999997E+02  0.45594000000E+02  0.51100000000E-03 0.  1.
         11   -1    0    0    0    0 -0.00000000000E+00 -0.00000000000E+00 -0.45593999997E+02  0.45594000000E+02  0.51100000000E-03 0. -1.
    9900012    2    1    2    0    0  0.23557887067E+02 -0.34831757135E+02  0.10742339044E+02  0.47787271938E+02  0.20000004075E+02 0.  0.
         12    1    1    2    0    0 -0.23557887067E+02  0.34831757135E+02 -0.10742339044E+02  0.43400728062E+02  0.00000000000E+00 0. -1.
         11    1    3    3    0    0  0.10710952697E+02 -0.23638768867E+02  0.16980665630E+01  0.26007678319E+02  0.51100000000E-03 0. -1.
        -11    1    3    3    0    0  0.11857184957E+02 -0.11843129036E+02  0.48865807003E+01  0.17456552113E+02  0.51100000000E-03 0.  1.
         12    1    3    3    0    0  0.98974941293E+00  0.65014076831E+00  0.41576917811E+01  0.43230415063E+01  0.00000000000E+00 0. -1.
</event>
<event>
 7    1  0.2328615E-009  0.4778727E+02  0.7816164E-02  0.1312668E+00
        -11   -1    0    0    0    0  0.00000000000E+00  0.00000000000E+00  0.45593999997E+02  0.45594000000E+02  0.51100000000E-03 0.  1.
         11   -1    0    0    0    0 -0.00000000000E+00 -0.00000000000E+00 -0.45593999997E+02  0.45594000000E+02  0.51100000000E-03 0. -1.
    9900012    2    1    2    0    0  0.12206474229E+01 -0.32481590824E+02  0.28758993577E+02  0.47787269198E+02  0.19999991581E+02 0.  0.
         12    1    1    2    0    0 -0.12206474229E+01  0.32481590824E+02 -0.28758993577E+02  0.43400730802E+02  0.00000000000E+00 0. -1.
         11    1    3    3    0    0  0.22816962692E+01 -0.17682843791E+02  0.44935154898E+01  0.18386973218E+02  0.51100000000E-03 0. -1.
        -11    1    3    3    0    0 -0.13250907986E+01 -0.10741446872E+02  0.10624372645E+02  0.15166141265E+02  0.51100000000E-03 0.  1.
         12    1    3    3    0    0  0.26404195234E+00 -0.40573001614E+01  0.13641105443E+02  0.14234154715E+02  0.00000000000E+00 0. -1.
</event>
<event>
 7    1  0.2328615E-009  0.4778726E+02  0.7816164E-02  0.1312668E+00
        -11   -1    0    0    0    0  0.00000000000E+00  0.00000000000E+00  0.45593999997E+02  0.45594000000E+02  0.51100000000E-03 0. -1.
         11   -1    0    0    0    0 -0.00000000000E+00 -0.00000000000E+00 -0.45593999997E+02  0.45594000000E+02  0.51100000000E-03 0.  1.
    9900012    2    1    2    0    0  0.33855302351E+02 -0.26563408494E+02 -0.56416364887E+01  0.47787260025E+02  0.19999949759E+02 0.  0.
         12    1    1    2    0    0 -0.33855302351E+02  0.26563408494E+02  0.56416364887E+01  0.43400739975E+02  0.00000000000E+00 0. -1.
         11    1    3    3    0    0  0.26704227792E+02 -0.19949729338E+02 -0.12583015688E+02  0.35629198233E+02  0.51100000000E-03 0. -1.
        -11    1    3    3    0    0  0.56968978891E+01 -0.39979810399E+01  0.44192609609E+01  0.82442929142E+01  0.51100000000E-03 0.  1.
         12    1    3    3    0    0  0.14541766692E+01 -0.26156981162E+01  0.25221182386E+01  0.39137688779E+01  0.00000000000E+00 0. -1.
</event>
<event>
 7    1  0.2328615E-009  0.4778727E+02  0.7816164E-02  0.1312668E+00
        -11   -1    0    0    0    0  0.00000000000E+00  0.00000000000E+00  0.45593999997E+02  0.45594000000E+02  0.51100000000E-03 0.  1.
         11   -1    0    0    0    0 -0.00000000000E+00 -0.00000000000E+00 -0.45593999997E+02  0.45594000000E+02  0.51100000000E-03 0. -1.
    9900012    2    1    2    0    0 -0.12445730148E+02 -0.34472112144E+02  0.23246515994E+02  0.47787271659E+02  0.20000002803E+02 0.  0.
         12    1    1    2    0    0  0.12445730148E+02  0.34472112144E+02 -0.23246515994E+02  0.43400728341E+02  0.00000000000E+00 0. -1.
         11    1    3    3    0    0 -0.21647100865E+01 -0.19504654308E+02  0.96551973939E+01  0.21870993266E+02  0.51100000000E-03 0. -1.
        -11    1    3    3    0    0 -0.60765314538E+01 -0.16506128466E+02  0.10790600373E+02  0.20635250619E+02  0.51100000000E-03 0.  1.
         12    1    3    3    0    0 -0.42044886081E+01  0.15386706301E+01  0.28007182271E+01  0.52810277741E+01  0.00000000000E+00 0. -1.
</event>
<event>
 7    1  0.2328615E-009  0.4778726E+02  0.7816164E-02  0.1312668E+00
        -11   -1    0    0    0    0  0.00000000000E+00  0.00000000000E+00  0.45593999997E+02  0.45594000000E+02  0.51100000000E-03 0.  1.
         11   -1    0    0    0    0 -0.00000000000E+00 -0.00000000000E+00 -0.45593999997E+02  0.45594000000E+02  0.51100000000E-03 0. -1.
    9900012    2    1    2    0    0 -0.28629683134E+02  0.19781683071E+02  0.25935510006E+02  0.47787257831E+02  0.19999939757E+02 0.  0.
         12    1    1    2    0    0  0.28629683134E+02 -0.19781683071E+02 -0.25935510006E+02  0.43400742169E+02  0.00000000000E+00 0. -1.
         11    1    3    3    0    0 -0.22722926556E+02  0.47625707280E+01  0.11231318632E+02  0.25790618249E+02  0.51100000000E-03 0. -1.
        -11    1    3    3    0    0 -0.28224739214E+01  0.41758411404E+01  0.37963921837E+01  0.63100397891E+01  0.51100000000E-03 0.  1.
         12    1    3    3    0    0 -0.30842826569E+01  0.10843271203E+02  0.10907799190E+02  0.15686599793E+02  0.00000000000E+00 0. -1.
</event>
<event>
 7    1  0.2328615E-009  0.4778726E+02  0.7816164E-02  0.1312668E+00
        -11   -1    0    0    0    0  0.00000000000E+00  0.00000000000E+00  0.45593999997E+02  0.45594000000E+02  0.51100000000E-03 0. -1.
         11   -1    0    0    0    0 -0.00000000000E+00 -0.00000000000E+00 -0.45593999997E+02  0.45594000000E+02  0.51100000000E-03 0.  1.
    9900012    2    1    2    0    0  0.18616257535E+02 -0.36606945027E+02 -0.14035327664E+02  0.47787263930E+02  0.19999967562E+02 0.  0.
         12    1    1    2    0    0 -0.18616257535E+02  0.36606945027E+02  0.14035327664E+02  0.43400736070E+02  0.00000000000E+00 0. -1.
         11    1    3    3    0    0  0.97970570358E+01 -0.12787840639E+02  0.28426753872E+00  0.16111859081E+02  0.51100000000E-03 0. -1.
        -11    1    3    3    0    0  0.57495903040E+00 -0.42754586323E+01  0.21507441834E+01  0.48203552988E+01  0.51100000000E-03 0.  1.
        -12    1    3    3    0    0  0.82442414684E+01 -0.19543645756E+02 -0.16470339386E+02  0.26855049550E+02  0.00000000000E+00 0.  1.
</event>
<event>
 7    1  0.2328615E-009  0.4778727E+02  0.7816164E-02  0.1312668E+00
        -11   -1    0    0    0    0  0.00000000000E+00  0.00000000000E+00  0.45593999997E+02  0.45594000000E+02  0.51100000000E-03 0.  1.
         11   -1    0    0    0    0 -0.00000000000E+00 -0.00000000000E+00 -0.45593999997E+02  0.45594000000E+02  0.51100000000E-03 0. -1.
    9900012    2    1    2    0    0  0.12487197909E+02  0.38073605190E+01  0.41390786091E+02  0.47787270985E+02  0.19999999731E+02 0.  0.
         12    1    1    2    0    0 -0.12487197909E+02 -0.38073605190E+01 -0.41390786091E+02  0.43400729015E+02  0.00000000000E+00 0. -1.
         11    1    3    3    0    0 -0.35963814835E+01 -0.12709322640E+00  0.78134181843E+01  0.86023029735E+01  0.51100000000E-03 0. -1.
        -11    1    3    3    0    0  0.11913729579E+01  0.16435761222E+01  0.15586035966E+02  0.15717672519E+02  0.51100000000E-03 0.  1.
        -12    1    3    3    0    0  0.14892206435E+02  0.22908776233E+01  0.17991331941E+02  0.23467295493E+02  0.00000000000E+00 0.  1.
</event>
<event>
 7    1  0.2328615E-009  0.4778727E+02  0.7816164E-02  0.1312668E+00
        -11   -1    0    0    0    0  0.00000000000E+00  0.00000000000E+00  0.45593999997E+02  0.45594000000E+02  0.51100000000E-03 0. -1.
         11   -1    0    0    0    0 -0.00000000000E+00 -0.00000000000E+00 -0.45593999997E+02  0.45594000000E+02  0.51100000000E-03 0.  1.
    9900012    2    1    2    0    0  0.92632950460E+01  0.34372879263E+02 -0.24825791216E+02  0.47787269897E+02  0.19999994769E+02 0.  0.
         12    1    1    2    0    0 -0.92632950460E+01 -0.34372879263E+02  0.24825791216E+02  0.43400730103E+02  0.00000000000E+00 0. -1.
         11    1    3    3    0    0  0.15862305887E+01  0.10020780067E+02  0.16658206807E+01  0.10281396764E+02  0.51100000000E-03 0.  1.
        -11    1    3    3    0    0 -0.87462986767E+00  0.26562961635E+01 -0.53123024152E+01  0.60034526670E+01  0.51100000000E-03 0. -1.
        -12    1    3    3    0    0  0.85516943249E+01  0.21695803033E+02 -0.21179309482E+02  0.31502420466E+02  0.00000000000E+00 0.  1.
</event>
<event>
 7    1  0.2328615E-009  0.4778727E+02  0.7816164E-02  0.1312668E+00
        -11   -1    0    0    0    0  0.00000000000E+00  0.00000000000E+00  0.45593999997E+02  0.45594000000E+02  0.51100000000E-03 0. -1.
         11   -1    0    0    0    0 -0.00000000000E+00 -0.00000000000E+00 -0.45593999997E+02  0.45594000000E+02  0.51100000000E-03 0.  1.
    9900012    2    1    2    0    0 -0.29485677005E+02 -0.42898914317E+00 -0.31843903118E+02  0.47787270215E+02  0.19999996216E+02 0.  0.
         12    1    1    2    0    0  0.29485677005E+02  0.42898914317E+00  0.31843903118E+02  0.43400729785E+02  0.00000000000E+00 0. -1.
         11    1    3    3    0    0 -0.14632539551E+02 -0.84847912193E+01 -0.18762216286E+02  0.25261109556E+02  0.51100000000E-03 0. -1.
        -11    1    3    3    0    0 -0.89123298419E+01  0.36810240315E+01 -0.31298586955E+01  0.10137829001E+02  0.51100000000E-03 0.  1.
        -12    1    3    3    0    0 -0.59408076118E+01  0.43747780446E+01 -0.99518281361E+01  0.12388331658E+02  0.00000000000E+00 0.  1.
</event>
<event>
 7    1  0.2328615E-009  0.4778727E+02  0.7816164E-02  0.1312668E+00
        -11   -1    0    0    0    0  0.00000000000E+00  0.00000000000E+00  0.45593999997E+02  0.45594000000E+02  0.51100000000E-03 0.  1.
         11   -1    0    0    0    0 -0.00000000000E+00 -0.00000000000E+00 -0.45593999997E+02  0.45594000000E+02  0.51100000000E-03 0. -1.
    9900012    2    1    2    0    0 -0.10484714546E+02 -0.10292408755E+02  0.40838218584E+02  0.47787274036E+02  0.20000013638E+02 0.  0.
         12    1    1    2    0    0  0.10484714546E+02  0.10292408755E+02 -0.40838218584E+02  0.43400725964E+02  0.00000000000E+00 0. -1.
         11    1    3    3    0    0 -0.25538901083E-01  0.28275044513E+01  0.18449600165E+01  0.33762866261E+01  0.51100000000E-03 0. -1.
        -11    1    3    3    0    0  0.84272227317E+00  0.20787722228E+01  0.53786746657E+01  0.58276595821E+01  0.51100000000E-03 0.  1.
        -12    1    3    3    0    0 -0.11301897918E+02 -0.15198685429E+02  0.33614583902E+02  0.38583327827E+02  0.00000000000E+00 0.  1.
</event>
<event>
 7    1  0.2328615E-009  0.4778727E+02  0.7816164E-02  0.1312668E+00
        -11   -1    0    0    0    0  0.00000000000E+00  0.00000000000E+00  0.45593999997E+02  0.45594000000E+02  0.51100000000E-03 0.  1.
         11   -1    0    0    0    0 -0.00000000000E+00 -0.00000000000E+00 -0.45593999997E+02  0.45594000000E+02  0.51100000000E-03 0. -1.
    9900012    2    1    2    0    0  0.14862318252E+02 -0.39644481354E+02 -0.95420120574E+01  0.47787269594E+02  0.19999993386E+02 0.  0.
         12    1    1    2    0    0 -0.14862318252E+02  0.39644481354E+02  0.95420120574E+01  0.43400730406E+02  0.00000000000E+00 0. -1.
         11    1    3    3    0    0  0.98586677654E+00 -0.12016248543E+02  0.16286844534E+01  0.12166132321E+02  0.51100000000E-03 0. -1.
        -11    1    3    3    0    0  0.11552659937E+02 -0.26586835784E+02 -0.56393548931E+01  0.29531781397E+02  0.51100000000E-03 0.  1.
         12    1    3    3    0    0  0.23237915384E+01 -0.10413970277E+01 -0.55313416178E+01  0.60893558753E+01  0.00000000000E+00 0. -1.
</event>
<event>
 7    1  0.2328615E-009  0.4778727E+02  0.7816164E-02  0.1312668E+00
        -11   -1    0    0    0    0  0.00000000000E+00  0.00000000000E+00  0.45593999997E+02  0.45594000000E+02  0.51100000000E-03 0.  1.
         11   -1    0    0    0    0 -0.00000000000E+00 -0.00000000000E+00 -0.45593999997E+02  0.45594000000E+02  0.51100000000E-03 0. -1.
    9900012    2    1    2    0    0  0.15074080140E+02  0.27008321570E+02  0.30445786584E+02  0.47787271356E+02  0.20000001422E+02 0.  0.
         12    1    1    2    0    0 -0.15074080140E+02 -0.27008321570E+02 -0.30445786584E+02  0.43400728644E+02  0.00000000000E+00 0. -1.
         11    1    3    3    0    0  0.28514556826E+01  0.22251507172E+01  0.15456089067E+01  0.39333195113E+01  0.51100000000E-03 0. -1.
        -11    1    3    3    0    0  0.16487366373E+02  0.14918100550E+02  0.19261862980E+02  0.29417721524E+02  0.51100000000E-03 0.  1.
         12    1    3    3    0    0 -0.42647419158E+01  0.98650703026E+01  0.96383146972E+01  0.14436230321E+02  0.00000000000E+00 0. -1.
</event>
<event>
 7    1  0.2328615E-009  0.4778727E+02  0.7816164E-02  0.1312668E+00
        -11   -1    0    0    0    0  0.00000000000E+00  0.00000000000E+00  0.45593999997E+02  0.45594000000E+02  0.51100000000E-03 0. -1.
         11   -1    0    0    0    0 -0.00000000000E+00 -0.00000000000E+00 -0.45593999997E+02  0.45594000000E+02  0.51100000000E-03 0.  1.
    9900012    2    1    2    0    0  0.22152391978E+01  0.37514572038E+02 -0.21711126451E+02  0.47787269457E+02  0.19999992761E+02 0.  0.
         12    1    1    2    0    0 -0.22152391978E+01 -0.37514572038E+02  0.21711126451E+02  0.43400730543E+02  0.00000000000E+00 0. -1.
         11    1    3    3    0    0 -0.64398110438E+00  0.65672878994E+01 -0.12600464163E+02  0.14223771631E+02  0.51100000000E-03 0. -1.
        -11    1    3    3    0    0  0.37792067759E-01 -0.61041205933E+00 -0.27791721573E+00  0.67176585391E+00  0.51100000000E-03 0.  1.
        -12    1    3    3    0    0  0.28214282345E+01  0.31557696198E+02 -0.88327450720E+01  0.32891731972E+02  0.00000000000E+00 0.  1.
</event>
<event>
 7    1  0.2328615E-009  0.4778727E+02  0.7816164E-02  0.1312668E+00
        -11   -1    0    0    0    0  0.00000000000E+00  0.00000000000E+00  0.45593999997E+02  0.45594000000E+02  0.51100000000E-03 0.  1.
         11   -1    0    0    0    0 -0.00000000000E+00 -0.00000000000E+00 -0.45593999997E+02  0.45594000000E+02  0.51100000000E-03 0. -1.
    9900012    2    1    2    0    0  0.41110399963E+02 -0.13843841130E+02  0.13808689928E+01  0.47787265887E+02  0.19999976487E+02 0.  0.
         12    1    1    2    0    0 -0.41110399963E+02  0.13843841130E+02 -0.13808689928E+01  0.43400734113E+02  0.00000000000E+00 0. -1.
         11    1    3    3    0    0  0.14015305911E+02 -0.29420372048E+01 -0.10828554074E+01  0.14361648888E+02  0.51100000000E-03 0. -1.
        -11    1    3    3    0    0  0.28631093514E+02 -0.10447055340E+02  0.45286813405E+01  0.30812163768E+02  0.51100000000E-03 0.  1.
         12    1    3    3    0    0 -0.15359994629E+01 -0.45474858552E+00 -0.20649569403E+01  0.26134532312E+01  0.00000000000E+00 0. -1.
</event>
<event>
 7    1  0.2328615E-009  0.4778727E+02  0.7816164E-02  0.1312668E+00
        -11   -1    0    0    0    0  0.00000000000E+00  0.00000000000E+00  0.45593999997E+02  0.45594000000E+02  0.51100000000E-03 0.  1.
         11   -1    0    0    0    0 -0.00000000000E+00 -0.00000000000E+00 -0.45593999997E+02  0.45594000000E+02  0.51100000000E-03 0. -1.
    9900012    2    1    2    0    0  0.39123019254E+02 -0.33427111163E+01  0.18488886328E+02  0.47787271080E+02  0.20000000162E+02 0.  0.
         12    1    1    2    0    0 -0.39123019254E+02  0.33427111163E+01 -0.18488886328E+02  0.43400728920E+02  0.00000000000E+00 0. -1.
         11    1    3    3    0    0  0.13413973079E+02 -0.61184900564E+01  0.80840158016E+01  0.16814336326E+02  0.51100000000E-03 0.  1.
        -11    1    3    3    0    0  0.19291754786E+02 -0.30794320127E+01  0.34355577809E+01  0.19835769755E+02  0.51100000000E-03 0. -1.
        -12    1    3    3    0    0  0.64172913885E+01  0.58552109528E+01  0.69693127459E+01  0.11137164999E+02  0.00000000000E+00 0.  1.
</event>
<event>
 7    1  0.2328615E-009  0.4778728E+02  0.7816164E-02  0.1312668E+00
        -11   -1    0    0    0    0  0.00000000000E+00  0.00000000000E+00  0.45593999997E+02  0.45594000000E+02  0.51100000000E-03 0. -1.
         11   -1    0    0    0    0 -0.00000000000E+00 -0.00000000000E+00 -0.45593999997E+02  0.45594000000E+02  0.51100000000E-03 0.  1.
    9900012    2    1    2    0    0  0.18209976152E+02 -0.38986852888E+02  0.56608179131E+01  0.47787276630E+02  0.20000025468E+02 0.  0.
         12    1    1    2    0    0 -0.18209976152E+02  0.38986852888E+02 -0.56608179131E+01  0.43400723370E+02  0.00000000000E+00 0. -1.
         11    1    3    3    0    0  0.40127513318E+01 -0.22193752038E+01 -0.63596158071E+00  0.46294974824E+01  0.51100000000E-03 0. -1.
        -11    1    3    3    0    0  0.10270719982E+02 -0.65094294710E+01  0.11370328663E+01  0.12212829524E+02  0.51100000000E-03 0.  1.
         12    1    3    3    0    0  0.39265048375E+01 -0.30258048214E+02  0.51597466275E+01  0.30944949623E+02  0.00000000000E+00 0. -1.
</event>
<event>
 7    1  0.2328615E-009  0.4778727E+02  0.7816164E-02  0.1312668E+00
        -11   -1    0    0    0    0  0.00000000000E+00  0.00000000000E+00  0.45593999997E+02  0.45594000000E+02  0.51100000000E-03 0. -1.
         11   -1    0    0    0    0 -0.00000000000E+00 -0.00000000000E+00 -0.45593999997E+02  0.45594000000E+02  0.51100000000E-03 0.  1.
    9900012    2    1    2    0    0  0.31963109555E+02  0.33545422559E+01 -0.29167275414E+02  0.47787270960E+02  0.19999999614E+02 0.  0.
         12    1    1    2    0    0 -0.31963109555E+02 -0.33545422559E+01  0.29167275414E+02  0.43400729040E+02  0.00000000000E+00 0. -1.
         11    1    3    3    0    0  0.19724906116E+02  0.84794774822E+01 -0.23555453550E+02  0.31872132841E+02  0.51100000000E-03 0. -1.
        -11    1    3    3    0    0  0.11634532740E+01 -0.20439702646E+01 -0.35163514108E+01  0.42303859716E+01  0.51100000000E-03 0.  1.
         12    1    3    3    0    0  0.11074750165E+02 -0.30809649617E+01 -0.20954704533E+01  0.11684752147E+02  0.00000000000E+00 0. -1.
</event>
<event>
 7    1  0.2328615E-009  0.4778730E+02  0.7816164E-02  0.1312668E+00
        -11   -1    0    0    0    0  0.00000000000E+00  0.00000000000E+00  0.45593999997E+02  0.45594000000E+02  0.51100000000E-03 0.  1.
         11   -1    0    0    0    0 -0.00000000000E+00 -0.00000000000E+00 -0.45593999997E+02  0.45594000000E+02  0.51100000000E-03 0. -1.
    9900012    2    1    2    0    0 -0.24305782927E+02 -0.12275523370E+02  0.33795881471E+02  0.47787295374E+02  0.20000110927E+02 0.  0.
         12    1    1    2    0    0  0.24305782927E+02  0.12275523370E+02 -0.33795881471E+02  0.43400704626E+02  0.00000000000E+00 0. -1.
         11    1    3    3    0    0 -0.16141870002E+02 -0.15790895432E+01  0.14676570169E+02  0.21873618885E+02  0.51100000000E-03 0. -1.
        -11    1    3    3    0    0 -0.94560923780E+01 -0.64376825699E+01  0.17995208620E+02  0.21323437187E+02  0.51100000000E-03 0.  1.
         12    1    3    3    0    0  0.12921794533E+01 -0.42587512567E+01  0.11241026809E+01  0.45902393013E+01  0.00000000000E+00 0. -1.
</event>
<event>
 7    1  0.2328615E-009  0.4778727E+02  0.7816164E-02  0.1312668E+00
        -11   -1    0    0    0    0  0.00000000000E+00  0.00000000000E+00  0.45593999997E+02  0.45594000000E+02  0.51100000000E-03 0.  1.
         11   -1    0    0    0    0 -0.00000000000E+00 -0.00000000000E+00 -0.45593999997E+02  0.45594000000E+02  0.51100000000E-03 0. -1.
    9900012    2    1    2    0    0 -0.13936317047E+02 -0.25208791674E+02  0.32464124227E+02  0.47787268758E+02  0.19999989575E+02 0.  0.
         12    1    1    2    0    0  0.13936317047E+02  0.25208791674E+02 -0.32464124227E+02  0.43400731242E+02  0.00000000000E+00 0. -1.
         11    1    3    3    0    0 -0.81690380234E+01 -0.10992643838E+00  0.70376220211E+01  0.10783013958E+02  0.51100000000E-03 0. -1.
        -11    1    3    3    0    0 -0.34698988114E+01 -0.70750249248E+01  0.12226539458E+02  0.14545942486E+02  0.51100000000E-03 0.  1.
         12    1    3    3    0    0 -0.22973802119E+01 -0.18023840311E+02  0.13199962749E+02  0.22458312313E+02  0.00000000000E+00 0. -1.
</event>
<event>
 7    1  0.2328615E-009  0.4778728E+02  0.7816164E-02  0.1312668E+00
        -11   -1    0    0    0    0  0.00000000000E+00  0.00000000000E+00  0.45593999997E+02  0.45594000000E+02  0.51100000000E-03 0.  1.
         11   -1    0    0    0    0 -0.00000000000E+00 -0.00000000000E+00 -0.45593999997E+02  0.45594000000E+02  0.51100000000E-03 0. -1.
    9900012    2    1    2    0    0 -0.99103936328E+01 -0.34006598031E+02  0.25079038328E+02  0.47787276791E+02  0.20000026199E+02 0.  0.
         12    1    1    2    0    0  0.99103936328E+01  0.34006598031E+02 -0.25079038328E+02  0.43400723209E+02  0.00000000000E+00 0. -1.
         11    1    3    3    0    0 -0.69106620455E+01 -0.41880577436E+01  0.42897556326E+01  0.91487201957E+01  0.51100000000E-03 0. -1.
        -11    1    3    3    0    0 -0.39328732381E+01 -0.80535066278E+01  0.67526602973E+00  0.89879055059E+01  0.51100000000E-03 0.  1.
        -12    1    3    3    0    0  0.93314165077E+00 -0.21765033660E+02  0.20114016666E+02  0.29650651089E+02  0.00000000000E+00 0.  1.
</event>
<event>
 7    1  0.2328615E-009  0.4778727E+02  0.7816164E-02  0.1312668E+00
        -11   -1    0    0    0    0  0.00000000000E+00  0.00000000000E+00  0.45593999997E+02  0.45594000000E+02  0.51100000000E-03 0.  1.
         11   -1    0    0    0    0 -0.00000000000E+00 -0.00000000000E+00 -0.45593999997E+02  0.45594000000E+02  0.51100000000E-03 0. -1.
    9900012    2    1    2    0    0 -0.27254513524E+01 -0.32404804053E+01  0.43193686171E+02  0.47787270474E+02  0.19999997399E+02 0.  0.
         12    1    1    2    0    0  0.27254513524E+01  0.32404804053E+01 -0.43193686171E+02  0.43400729526E+02  0.00000000000E+00 0. -1.
         11    1    3    3    0    0 -0.38604546719E+01 -0.36833434880E+01  0.93928662781E+01  0.10802595369E+02  0.51100000000E-03 0. -1.
        -11    1    3    3    0    0 -0.96964272612E+00 -0.65445115358E+01  0.23127194672E+02  0.24054894968E+02  0.51100000000E-03 0.  1.
         12    1    3    3    0    0  0.21046460457E+01  0.69873746185E+01  0.10673625221E+02  0.12929780137E+02  0.00000000000E+00 0. -1.
</event>
<event>
 7    1  0.2328615E-009  0.4778725E+02  0.7816164E-02  0.1312668E+00
        -11   -1    0    0    0    0  0.00000000000E+00  0.00000000000E+00  0.45593999997E+02  0.45594000000E+02  0.51100000000E-03 0.  1.
         11   -1    0    0    0    0 -0.00000000000E+00 -0.00000000000E+00 -0.45593999997E+02  0.45594000000E+02  0.51100000000E-03 0. -1.
    9900012    2    1    2    0    0 -0.90434144235E+01  0.22203994043E+02  0.36177673124E+02  0.47787254285E+02  0.19999923589E+02 0.  0.
         12    1    1    2    0    0  0.90434144235E+01 -0.22203994043E+02 -0.36177673124E+02  0.43400745715E+02  0.00000000000E+00 0. -1.
         11    1    3    3    0    0  0.17853147302E+01  0.11580348924E+02  0.11282215358E+02  0.16265921846E+02  0.51100000000E-03 0. -1.
        -11    1    3    3    0    0 -0.31191725378E+01  0.91210685778E+01  0.20169187194E+02  0.22354400946E+02  0.51100000000E-03 0.  1.
         12    1    3    3    0    0 -0.77095566158E+01  0.15025765416E+01  0.47262705729E+01  0.91669314934E+01  0.00000000000E+00 0. -1.
</event>
<event>
 7    1  0.2328615E-009  0.4778727E+02  0.7816164E-02  0.1312668E+00
        -11   -1    0    0    0    0  0.00000000000E+00  0.00000000000E+00  0.45593999997E+02  0.45594000000E+02  0.51100000000E-03 0. -1.
         11   -1    0    0    0    0 -0.00000000000E+00 -0.00000000000E+00 -0.45593999997E+02  0.45594000000E+02  0.51100000000E-03 0.  1.
    9900012    2    1    2    0    0 -0.14497550928E+02  0.20223163372E+02 -0.35559356821E+02  0.47787272158E+02  0.20000005076E+02 0.  0.
         12    1    1    2    0    0  0.14497550928E+02 -0.20223163372E+02  0.35559356821E+02  0.43400727842E+02  0.00000000000E+00 0. -1.
         11    1    3    3    0    0 -0.14661925959E+02  0.10060768539E+02 -0.18567108304E+02  0.25708532581E+02  0.51100000000E-03 0. -1.
        -11    1    3    3    0    0 -0.25017907814E+01  0.11002436410E+02 -0.13151556071E+02  0.17328473431E+02  0.51100000000E-03 0.  1.
         12    1    3    3    0    0  0.26661658126E+01 -0.84004157788E+00 -0.38406924455E+01  0.47502661456E+01  0.00000000000E+00 0. -1.
</event>
<event>
 7    1  0.2328615E-009  0.4778727E+02  0.7816164E-02  0.1312668E+00
        -11   -1    0    0    0    0  0.00000000000E+00  0.00000000000E+00  0.45593999997E+02  0.45594000000E+02  0.51100000000E-03 0.  1.
         11   -1    0    0    0    0 -0.00000000000E+00 -0.00000000000E+00 -0.45593999997E+02  0.45594000000E+02  0.51100000000E-03 0. -1.
    9900012    2    1    2    0    0 -0.28269409834E+02 -0.31481555914E+02  0.96631035126E+01  0.47787268847E+02  0.19999989980E+02 0.  0.
         12    1    1    2    0    0  0.28269409834E+02  0.31481555914E+02 -0.96631035126E+01  0.43400731153E+02  0.00000000000E+00 0. -1.
         11    1    3    3    0    0 -0.18061012268E+02 -0.11235746800E+02  0.28946936518E+01  0.21466751545E+02  0.51100000000E-03 0. -1.
        -11    1    3    3    0    0 -0.29702766869E+01  0.33967583734E+00  0.28889967435E+01  0.41574301818E+01  0.51100000000E-03 0.  1.
        -12    1    3    3    0    0 -0.72381208794E+01 -0.20585484952E+02  0.38794131173E+01  0.22163087120E+02  0.00000000000E+00 0.  1.
</event>
<event>
 7    1  0.2328615E-009  0.4778728E+02  0.7816164E-02  0.1312668E+00
        -11   -1    0    0    0    0  0.00000000000E+00  0.00000000000E+00  0.45593999997E+02  0.45594000000E+02  0.51100000000E-03 0.  1.
         11   -1    0    0    0    0 -0.00000000000E+00 -0.00000000000E+00 -0.45593999997E+02  0.45594000000E+02  0.51100000000E-03 0. -1.
    9900012    2    1    2    0    0  0.13168666788E+02 -0.41341755263E+02 -0.10335816859E+01  0.47787276454E+02  0.20000024666E+02 0.  0.
         12    1    1    2    0    0 -0.13168666788E+02  0.41341755263E+02  0.10335816859E+01  0.43400723546E+02  0.00000000000E+00 0. -1.
         11    1    3    3    0    0  0.68438744648E+01 -0.16326958444E+02 -0.25282884465E+01  0.17882964867E+02  0.51100000000E-03 0. -1.
        -11    1    3    3    0    0  0.54481790707E+01 -0.11263411748E+02  0.78072457604E+01  0.14747887510E+02  0.51100000000E-03 0.  1.
        -12    1    3    3    0    0  0.87661325202E+00 -0.13751385071E+02 -0.63125389998E+01  0.15156424076E+02  0.00000000000E+00 0.  1.
</event>
<event>
 7    1  0.2328615E-009  0.4778727E+02  0.7816164E-02  0.1312668E+00
        -11   -1    0    0    0    0  0.00000000000E+00  0.00000000000E+00  0.45593999997E+02  0.45594000000E+02  0.51100000000E-03 0.  1.
         11   -1    0    0    0    0 -0.00000000000E+00 -0.00000000000E+00 -0.45593999997E+02  0.45594000000E+02  0.51100000000E-03 0. -1.
    9900012    2    1    2    0    0  0.22039836679E+02 -0.34959736160E+02  0.13254651902E+02  0.47787270165E+02  0.19999995989E+02 0.  0.
         12    1    1    2    0    0 -0.22039836679E+02  0.34959736160E+02 -0.13254651902E+02  0.43400729835E+02  0.00000000000E+00 0. -1.
         11    1    3    3    0    0  0.11827011045E+01 -0.13983157279E+02  0.43178210038E+01  0.14682337956E+02  0.51100000000E-03 0. -1.
        -11    1    3    3    0    0  0.28751222746E+01 -0.63363022269E+01  0.69456632250E+01  0.98314440395E+01  0.51100000000E-03 0.  1.
        -12    1    3    3    0    0  0.17982013300E+02 -0.14640276654E+02  0.19911676730E+01  0.23273488169E+02  0.00000000000E+00 0.  1.
</event>
<event>
 7    1  0.2328615E-009  0.4778727E+02  0.7816164E-02  0.1312668E+00
        -11   -1    0    0    0    0  0.00000000000E+00  0.00000000000E+00  0.45593999997E+02  0.45594000000E+02  0.51100000000E-03 0.  1.
         11   -1    0    0    0    0 -0.00000000000E+00 -0.00000000000E+00 -0.45593999997E+02  0.45594000000E+02  0.51100000000E-03 0. -1.
    9900012    2    1    2    0    0  0.35063807427E+02 -0.11706073661E+02  0.22740294809E+02  0.47787265446E+02  0.19999974472E+02 0.  0.
         12    1    1    2    0    0 -0.35063807427E+02  0.11706073661E+02 -0.22740294809E+02  0.43400734554E+02  0.00000000000E+00 0. -1.
         11    1    3    3    0    0  0.10281322711E+02  0.44836637346E+01  0.50457276144E+01  0.12299113976E+02  0.51100000000E-03 0. -1.
        -11    1    3    3    0    0  0.52931091246E+01 -0.59138201118E+00  0.56732077701E+01  0.77815180750E+01  0.51100000000E-03 0.  1.
        -12    1    3    3    0    0  0.19489375592E+02 -0.15598355384E+02  0.12021359425E+02  0.27706633395E+02  0.00000000000E+00 0.  1.
</event>
<event>
 7    1  0.2328615E-009  0.4778727E+02  0.7816164E-02  0.1312668E+00
        -11   -1    0    0    0    0  0.00000000000E+00  0.00000000000E+00  0.45593999997E+02  0.45594000000E+02  0.51100000000E-03 0.  1.
         11   -1    0    0    0    0 -0.00000000000E+00 -0.00000000000E+00 -0.45593999997E+02  0.45594000000E+02  0.51100000000E-03 0. -1.
    9900012    2    1    2    0    0  0.18501149428E+02 -0.35584169150E+02  0.16586074460E+02  0.47787268552E+02  0.19999988638E+02 0.  0.
         12    1    1    2    0    0 -0.18501149428E+02  0.35584169150E+02 -0.16586074460E+02  0.43400731448E+02  0.00000000000E+00 0. -1.
         11    1    3    3    0    0 -0.64010198222E+00  0.69980302780E+00  0.75270549174E+00  0.12107933943E+01  0.51100000000E-03 0. -1.
        -11    1    3    3    0    0  0.14169528350E+02 -0.12810878847E+02  0.11186940912E+02  0.22136887716E+02  0.51100000000E-03 0.  1.
         12    1    3    3    0    0  0.49717230593E+01 -0.23473093330E+02  0.46464280562E+01  0.24439587442E+02  0.00000000000E+00 0. -1.
</event>
<event>
 7    1  0.2518071E-009  0.4778727E+02  0.7816164E-02  0.1312668E+00
        -11   -1    0    0    0    0  0.00000000000E+00  0.00000000000E+00  0.45593999997E+02  0.45594000000E+02  0.51100000000E-03 0. -1.
         11   -1    0    0    0    0 -0.00000000000E+00 -0.00000000000E+00 -0.45593999997E+02  0.45594000000E+02  0.51100000000E-03 0.  1.
    9900012    2    1    2    0    0  0.43213728788E+02  0.21937284269E+00  0.40185548517E+01  0.47787271166E+02  0.20000000554E+02 0.  0.
         12    1    1    2    0    0 -0.43213728788E+02 -0.21937284269E+00 -0.40185548517E+01  0.43400728834E+02  0.00000000000E+00 0. -1.
         11    1    3    3    0    0  0.41217907064E+01 -0.40858206398E+01  0.23519813758E+01  0.62621805772E+01  0.51100000000E-03 0. -1.
        -11    1    3    3    0    0  0.24670329058E+02  0.54722907789E+00  0.70754280951E+01  0.25670728047E+02  0.51100000000E-03 0.  1.
        -12    1    3    3    0    0  0.14421609024E+02  0.37579644046E+01 -0.54088546192E+01  0.15854362542E+02  0.00000000000E+00 0.  1.
</event>
<event>
 7    1  0.2328615E-009  0.4778727E+02  0.7816164E-02  0.1312668E+00
        -11   -1    0    0    0    0  0.00000000000E+00  0.00000000000E+00  0.45593999997E+02  0.45594000000E+02  0.51100000000E-03 0.  1.
         11   -1    0    0    0    0 -0.00000000000E+00 -0.00000000000E+00 -0.45593999997E+02  0.45594000000E+02  0.51100000000E-03 0. -1.
    9900012    2    1    2    0    0  0.39409727179E+02 -0.15266300329E+02  0.98710081225E+01  0.47787270474E+02  0.19999997397E+02 0.  0.
         12    1    1    2    0    0 -0.39409727179E+02  0.15266300329E+02 -0.98710081225E+01  0.43400729526E+02  0.00000000000E+00 0. -1.
         11    1    3    3    0    0  0.18731939400E+02 -0.43610845670E+01  0.51307247021E+01  0.19905500459E+02  0.51100000000E-03 0. -1.
        -11    1    3    3    0    0  0.17691629438E+02 -0.10825584773E+02 -0.16715733458E+01  0.20808200200E+02  0.51100000000E-03 0.  1.
        -12    1    3    3    0    0  0.29861583411E+01 -0.79630988600E-01  0.64118567662E+01  0.70735698146E+01  0.00000000000E+00 0.  1.
</event>
<event>
 7    1  0.2328615E-009  0.4778726E+02  0.7816164E-02  0.1312668E+00
        -11   -1    0    0    0    0  0.00000000000E+00  0.00000000000E+00  0.45593999997E+02  0.45594000000E+02  0.51100000000E-03 0. -1.
         11   -1    0    0    0    0 -0.00000000000E+00 -0.00000000000E+00 -0.45593999997E+02  0.45594000000E+02  0.51100000000E-03 0.  1.
    9900012    2    1    2    0    0 -0.34353486925E+02 -0.24505859971E+02 -0.10145213952E+02  0.47787255733E+02  0.19999930189E+02 0.  0.
         12    1    1    2    0    0  0.34353486925E+02  0.24505859971E+02  0.10145213952E+02  0.43400744267E+02  0.00000000000E+00 0. -1.
         11    1    3    3    0    0 -0.21358903187E+02 -0.12463260566E+02 -0.22521632267E+01  0.24831589735E+02  0.51100000000E-03 0. -1.
        -11    1    3    3    0    0 -0.34465632388E+01  0.49397721518E+00  0.23137283297E+01  0.41804486234E+01  0.51100000000E-03 0.  1.
        -12    1    3    3    0    0 -0.95480204983E+01 -0.12536576620E+02 -0.10206779055E+02  0.18775217375E+02  0.00000000000E+00 0.  1.
</event>
<event>
 7    1  0.2328615E-009  0.4778727E+02  0.7816164E-02  0.1312668E+00
        -11   -1    0    0    0    0  0.00000000000E+00  0.00000000000E+00  0.45593999997E+02  0.45594000000E+02  0.51100000000E-03 0.  1.
         11   -1    0    0    0    0 -0.00000000000E+00 -0.00000000000E+00 -0.45593999997E+02  0.45594000000E+02  0.51100000000E-03 0. -1.
    9900012    2    1    2    0    0 -0.84073732728E+00  0.76068266295E+01  0.42720636189E+02  0.47787269511E+02  0.19999993007E+02 0.  0.
         12    1    1    2    0    0  0.84073732728E+00 -0.76068266295E+01 -0.42720636189E+02  0.43400730489E+02  0.00000000000E+00 0. -1.
         11    1    3    3    0    0  0.22019078896E+01  0.28438870844E+01  0.19555577122E+02  0.19883578374E+02  0.51100000000E-03 0. -1.
        -11    1    3    3    0    0 -0.25364051835E+01 -0.48208276953E+01  0.12014885867E+02  0.13192089053E+02  0.51100000000E-03 0.  1.
         12    1    3    3    0    0 -0.50624003330E+00  0.95837672405E+01  0.11150173200E+02  0.14711602084E+02  0.00000000000E+00 0. -1.
</event>
<event>
 7    1  0.2328615E-009  0.4778727E+02  0.7816164E-02  0.1312668E+00
        -11   -1    0    0    0    0  0.00000000000E+00  0.00000000000E+00  0.45593999997E+02  0.45594000000E+02  0.51100000000E-03 0.  1.
         11   -1    0    0    0    0 -0.00000000000E+00 -0.00000000000E+00 -0.45593999997E+02  0.45594000000E+02  0.51100000000E-03 0. -1.
    9900012    2    1    2    0    0 -0.29454818112E+02 -0.26875768374E+02  0.17138560473E+02  0.47787268546E+02  0.19999988607E+02 0.  0.
         12    1    1    2    0    0  0.29454818112E+02  0.26875768374E+02 -0.17138560473E+02  0.43400731454E+02  0.00000000000E+00 0. -1.
         11    1    3    3    0    0 -0.52498971785E+01 -0.95462134481E+01  0.12694593431E+02  0.16728547882E+02  0.51100000000E-03 0. -1.
        -11    1    3    3    0    0 -0.53705312338E+00  0.62813192976E+00 -0.46233396899E+00  0.94695762235E+00  0.51100000000E-03 0.  1.
        -12    1    3    3    0    0 -0.23667867810E+02 -0.17957686855E+02  0.49063010109E+01  0.30111763042E+02  0.00000000000E+00 0.  1.
</event>
<event>
 7    1  0.2328615E-009  0.4778727E+02  0.7816164E-02  0.1312668E+00
        -11   -1    0    0    0    0  0.00000000000E+00  0.00000000000E+00  0.45593999997E+02  0.45594000000E+02  0.51100000000E-03 0.  1.
         11   -1    0    0    0    0 -0.00000000000E+00 -0.00000000000E+00 -0.45593999997E+02  0.45594000000E+02  0.51100000000E-03 0. -1.
    9900012    2    1    2    0    0 -0.45283629112E+01 -0.23319505593E+02  0.36322417352E+02  0.47787269430E+02  0.19999992637E+02 0.  0.
         12    1    1    2    0    0  0.45283629112E+01  0.23319505593E+02 -0.36322417352E+02  0.43400730570E+02  0.00000000000E+00 0. -1.
         11    1    3    3    0    0  0.94375863015E+00  0.13684723946E+01  0.12506774524E+01  0.20802863740E+01  0.51100000000E-03 0. -1.
        -11    1    3    3    0    0 -0.38781739640E+00 -0.13002595053E+02  0.67613409421E+01  0.14660614313E+02  0.51100000000E-03 0.  1.
        -12    1    3    3    0    0 -0.50843041449E+01 -0.11685382935E+02  0.28310398958E+02  0.31046368743E+02  0.00000000000E+00 0.  1.
</event>
<event>
 7    1  0.2328615E-009  0.4778727E+02  0.7816164E-02  0.1312668E+00
        -11   -1    0    0    0    0  0.00000000000E+00  0.00000000000E+00  0.45593999997E+02  0.45594000000E+02  0.51100000000E-03 0.  1.
         11   -1    0    0    0    0 -0.00000000000E+00 -0.00000000000E+00 -0.45593999997E+02  0.45594000000E+02  0.51100000000E-03 0. -1.
    9900012    2    1    2    0    0 -0.31320269526E+02 -0.17729525564E+02  0.24255468902E+02  0.47787272684E+02  0.20000007474E+02 0.  0.
         12    1    1    2    0    0  0.31320269526E+02  0.17729525564E+02 -0.24255468902E+02  0.43400727316E+02  0.00000000000E+00 0. -1.
         11    1    3    3    0    0 -0.91144913207E+01 -0.49009892652E+01 -0.51294269198E+00  0.10361310645E+02  0.51100000000E-03 0. -1.
        -11    1    3    3    0    0 -0.49120963364E+01  0.19171746302E+01  0.56363339540E+01  0.77183229838E+01  0.51100000000E-03 0.  1.
         12    1    3    3    0    0 -0.17293681869E+02 -0.14745710930E+02  0.19132077640E+02  0.29707639055E+02  0.00000000000E+00 0. -1.
</event>
<event>
 7    1  0.2431758E-009  0.4778727E+02  0.7816164E-02  0.1312668E+00
        -11   -1    0    0    0    0  0.00000000000E+00  0.00000000000E+00  0.45593999997E+02  0.45594000000E+02  0.51100000000E-03 0. -1.
         11   -1    0    0    0    0 -0.00000000000E+00 -0.00000000000E+00 -0.45593999997E+02  0.45594000000E+02  0.51100000000E-03 0.  1.
    9900012    2    1    2    0    0  0.19024098396E+02 -0.34125241282E+02 -0.18899074430E+02  0.47787269284E+02  0.19999991973E+02 0.  0.
         12    1    1    2    0    0 -0.19024098396E+02  0.34125241282E+02  0.18899074430E+02  0.43400730716E+02  0.00000000000E+00 0. -1.
         11    1    3    3    0    0 -0.16681344196E+01 -0.79592547670E+01  0.49296885093E+00  0.81471116009E+01  0.51100000000E-03 0. -1.
        -11    1    3    3    0    0  0.35521204702E+01 -0.11417460312E+02 -0.69849254106E+01  0.13847929197E+02  0.51100000000E-03 0.  1.
        -12    1    3    3    0    0  0.17140112346E+02 -0.14748526204E+02 -0.12407117870E+02  0.25792228486E+02  0.00000000000E+00 0.  1.
</event>
<event>
 7    1  0.2328615E-009  0.4778727E+02  0.7816164E-02  0.1312668E+00
        -11   -1    0    0    0    0  0.00000000000E+00  0.00000000000E+00  0.45593999997E+02  0.45594000000E+02  0.51100000000E-03 0.  1.
         11   -1    0    0    0    0 -0.00000000000E+00 -0.00000000000E+00 -0.45593999997E+02  0.45594000000E+02  0.51100000000E-03 0. -1.
    9900012    2    1    2    0    0  0.23289580918E+02 -0.31361299875E+02  0.18912631286E+02  0.47787270382E+02  0.19999996981E+02 0.  0.
         12    1    1    2    0    0 -0.23289580918E+02  0.31361299875E+02 -0.18912631286E+02  0.43400729618E+02  0.00000000000E+00 0. -1.
         11    1    3    3    0    0  0.14140357135E+02 -0.98595186113E+01  0.15194033110E+02  0.22978652040E+02  0.51100000000E-03 0. -1.
        -11    1    3    3    0    0 -0.27461538866E-01  0.58166930256E+00  0.28777225380E+00  0.64954325863E+00  0.51100000000E-03 0.  1.
        -12    1    3    3    0    0  0.91766853219E+01 -0.22083450566E+02  0.34308259222E+01  0.24159075084E+02  0.00000000000E+00 0.  1.
</event>
<event>
 7    1  0.2328615E-009  0.4778727E+02  0.7816164E-02  0.1312668E+00
        -11   -1    0    0    0    0  0.00000000000E+00  0.00000000000E+00  0.45593999997E+02  0.45594000000E+02  0.51100000000E-03 0.  1.
         11   -1    0    0    0    0 -0.00000000000E+00 -0.00000000000E+00 -0.45593999997E+02  0.45594000000E+02  0.51100000000E-03 0. -1.
    9900012    2    1    2    0    0  0.41896803915E+02  0.11821277267E+01  0.11264257049E+02  0.47787273150E+02  0.20000009599E+02 0.  0.
         12    1    1    2    0    0 -0.41896803915E+02 -0.11821277267E+01 -0.11264257049E+02  0.43400726850E+02  0.00000000000E+00 0. -1.
         11    1    3    3    0    0  0.17467201794E+02  0.60154933205E+01  0.85440421512E+01  0.20354113956E+02  0.51100000000E-03 0. -1.
        -11    1    3    3    0    0 -0.11917468627E+01 -0.57536236394E+00  0.63698547352E-01  0.13249000719E+01  0.51100000000E-03 0.  1.
        -12    1    3    3    0    0  0.25621348984E+02 -0.42580032299E+01  0.26565163510E+01  0.26108259122E+02  0.00000000000E+00 0.  1.
</event>
<event>
 7    1  0.2328615E-009  0.4778727E+02  0.7816164E-02  0.1312668E+00
        -11   -1    0    0    0    0  0.00000000000E+00  0.00000000000E+00  0.45593999997E+02  0.45594000000E+02  0.51100000000E-03 0.  1.
         11   -1    0    0    0    0 -0.00000000000E+00 -0.00000000000E+00 -0.45593999997E+02  0.45594000000E+02  0.51100000000E-03 0. -1.
    9900012    2    1    2    0    0 -0.99553297994E+01 -0.29699123527E+02  0.30041257622E+02  0.47787266260E+02  0.19999978184E+02 0.  0.
         12    1    1    2    0    0  0.99553297994E+01  0.29699123527E+02 -0.30041257622E+02  0.43400733740E+02  0.00000000000E+00 0. -1.
         11    1    3    3    0    0 -0.44370275214E+00 -0.71468840618E+01  0.66791240680E+00  0.71917265778E+01  0.51100000000E-03 0. -1.
        -11    1    3    3    0    0  0.22655181536E+01 -0.11982176496E+02  0.13032237668E+02  0.17847810650E+02  0.51100000000E-03 0.  1.
        -12    1    3    3    0    0 -0.11777145201E+02 -0.10570062969E+02  0.16341107547E+02  0.22747729032E+02  0.00000000000E+00 0.  1.
</event>
<event>
 7    1  0.2328615E-009  0.4778727E+02  0.7816164E-02  0.1312668E+00
        -11   -1    0    0    0    0  0.00000000000E+00  0.00000000000E+00  0.45593999997E+02  0.45594000000E+02  0.51100000000E-03 0. -1.
         11   -1    0    0    0    0 -0.00000000000E+00 -0.00000000000E+00 -0.45593999997E+02  0.45594000000E+02  0.51100000000E-03 0.  1.
    9900012    2    1    2    0    0  0.14197931957E+01 -0.37648855763E+02 -0.21544624407E+02  0.47787274271E+02  0.20000014711E+02 0.  0.
         12    1    1    2    0    0 -0.14197931957E+01  0.37648855763E+02  0.21544624407E+02  0.43400725729E+02  0.00000000000E+00 0. -1.
         11    1    3    3    0    0  0.23748850855E+01 -0.16012493412E+02 -0.21567239127E+01  0.16330691435E+02  0.51100000000E-03 0. -1.
        -11    1    3    3    0    0 -0.46254659386E+01 -0.18011257081E+02 -0.10989240149E+02  0.21600086021E+02  0.51100000000E-03 0.  1.
         12    1    3    3    0    0  0.36703740488E+01 -0.36251052698E+01 -0.83986603458E+01  0.98564968158E+01  0.00000000000E+00 0. -1.
</event>
<event>
 7    1  0.2328615E-009  0.4778730E+02  0.7816164E-02  0.1312668E+00
        -11   -1    0    0    0    0  0.00000000000E+00  0.00000000000E+00  0.45593999997E+02  0.45594000000E+02  0.51100000000E-03 0. -1.
         11   -1    0    0    0    0 -0.00000000000E+00 -0.00000000000E+00 -0.45593999997E+02  0.45594000000E+02  0.51100000000E-03 0.  1.
    9900012    2    1    2    0    0 -0.23296483172E+02 -0.13241876013E+02 -0.34140112955E+02  0.47787300454E+02  0.20000134089E+02 0.  0.
         12    1    1    2    0    0  0.23296483172E+02  0.13241876013E+02  0.34140112955E+02  0.43400699546E+02  0.00000000000E+00 0. -1.
         11    1    3    3    0    0  0.16866250201E+00 -0.13354107793E+01 -0.52753813037E+01  0.54443931847E+01  0.51100000000E-03 0. -1.
        -11    1    3    3    0    0 -0.62617254917E+01 -0.96095226792E+01 -0.19496146872E+02  0.22619723149E+02  0.51100000000E-03 0.  1.
         12    1    3    3    0    0 -0.17203420182E+02 -0.22969425549E+01 -0.93685847794E+01  0.19723184120E+02  0.00000000000E+00 0. -1.
</event>
<event>
 7    1  0.2328615E-009  0.4778726E+02  0.7816164E-02  0.1312668E+00
        -11   -1    0    0    0    0  0.00000000000E+00  0.00000000000E+00  0.45593999997E+02  0.45594000000E+02  0.51100000000E-03 0.  1.
         11   -1    0    0    0    0 -0.00000000000E+00 -0.00000000000E+00 -0.45593999997E+02  0.45594000000E+02  0.51100000000E-03 0. -1.
    9900012    2    1    2    0    0 -0.23384468640E+02  0.30257467294E+02  0.20525018842E+02  0.47787261537E+02  0.19999956654E+02 0.  0.
         12    1    1    2    0    0  0.23384468640E+02 -0.30257467294E+02 -0.20525018842E+02  0.43400738463E+02  0.00000000000E+00 0. -1.
         11    1    3    3    0    0  0.16013546001E+01 -0.45732319918E+00 -0.10155491831E+01  0.19505951574E+01  0.51100000000E-03 0. -1.
        -11    1    3    3    0    0 -0.91785691926E+00  0.15782215550E+01  0.35268739170E+01  0.39714083759E+01  0.51100000000E-03 0.  1.
        -12    1    3    3    0    0 -0.24067966321E+02  0.29136568938E+02  0.18013694108E+02  0.41865258004E+02  0.00000000000E+00 0.  1.
</event>
<event>
 7    1  0.2328615E-009  0.4778727E+02  0.7816164E-02  0.1312668E+00
        -11   -1    0    0    0    0  0.00000000000E+00  0.00000000000E+00  0.45593999997E+02  0.45594000000E+02  0.51100000000E-03 0.  1.
         11   -1    0    0    0    0 -0.00000000000E+00 -0.00000000000E+00 -0.45593999997E+02  0.45594000000E+02  0.51100000000E-03 0. -1.
    9900012    2    1    2    0    0 -0.17335102048E+02 -0.43953127266E+01  0.39544895681E+02  0.47787270612E+02  0.19999998028E+02 0.  0.
         12    1    1    2    0    0  0.17335102048E+02  0.43953127266E+01 -0.39544895681E+02  0.43400729388E+02  0.00000000000E+00 0. -1.
         11    1    3    3    0    0 -0.98933092413E+01 -0.61593321335E+00  0.51976998223E+01  0.11192543284E+02  0.51100000000E-03 0. -1.
        -11    1    3    3    0    0 -0.18142089492E+01 -0.43447951054E+01  0.56933905969E+01  0.73880508505E+01  0.51100000000E-03 0.  1.
        -12    1    3    3    0    0 -0.56275838579E+01  0.56541559217E+00  0.28653805262E+02  0.29206676477E+02  0.00000000000E+00 0.  1.
</event>
<event>
 7    1  0.2328615E-009  0.4778727E+02  0.7816164E-02  0.1312668E+00
        -11   -1    0    0    0    0  0.00000000000E+00  0.00000000000E+00  0.45593999997E+02  0.45594000000E+02  0.51100000000E-03 0.  1.
         11   -1    0    0    0    0 -0.00000000000E+00 -0.00000000000E+00 -0.45593999997E+02  0.45594000000E+02  0.51100000000E-03 0. -1.
    9900012    2    1    2    0    0 -0.17851766190E+02 -0.94524501811E+01  0.38413397021E+02  0.47787269116E+02  0.19999991209E+02 0.  0.
         12    1    1    2    0    0  0.17851766190E+02  0.94524501811E+01 -0.38413397021E+02  0.43400730884E+02  0.00000000000E+00 0. -1.
         11    1    3    3    0    0 -0.64339548741E+01 -0.85984822366E+01  0.47310469818E+01  0.11735095990E+02  0.51100000000E-03 0. -1.
        -11    1    3    3    0    0 -0.44818232817E+01 -0.23957562932E+01  0.86643901328E+01  0.10044801879E+02  0.51100000000E-03 0.  1.
         12    1    3    3    0    0 -0.69359880344E+01  0.15417883487E+01  0.25017959907E+02  0.26007371248E+02  0.00000000000E+00 0. -1.
</event>
<event>
 7    1  0.2328615E-009  0.4778722E+02  0.7816164E-02  0.1312668E+00
        -11   -1    0    0    0    0  0.00000000000E+00  0.00000000000E+00  0.45593999997E+02  0.45594000000E+02  0.51100000000E-03 0.  1.
         11   -1    0    0    0    0 -0.00000000000E+00 -0.00000000000E+00 -0.45593999997E+02  0.45594000000E+02  0.51100000000E-03 0. -1.
    9900012    2    1    2    0    0 -0.15122795018E+02  0.37598346155E+02  0.15533600586E+02  0.47787224547E+02  0.19999788000E+02 0.  0.
         12    1    1    2    0    0  0.15122795018E+02 -0.37598346155E+02 -0.15533600586E+02  0.43400775453E+02  0.00000000000E+00 0. -1.
         11    1    3    3    0    0 -0.47769048884E-01  0.22574932325E+02  0.58667311364E+01  0.23324844820E+02  0.51100000000E-03 0. -1.
        -11    1    3    3    0    0 -0.77330874421E+01  0.12448692539E+02  0.56514277989E+01  0.15706980096E+02  0.51100000000E-03 0.  1.
         12    1    3    3    0    0 -0.73419385265E+01  0.25747212907E+01  0.40154416510E+01  0.87553996313E+01  0.00000000000E+00 0. -1.
</event>
<event>
 7    1  0.2328615E-009  0.4778727E+02  0.7816164E-02  0.1312668E+00
        -11   -1    0    0    0    0  0.00000000000E+00  0.00000000000E+00  0.45593999997E+02  0.45594000000E+02  0.51100000000E-03 0. -1.
         11   -1    0    0    0    0 -0.00000000000E+00 -0.00000000000E+00 -0.45593999997E+02  0.45594000000E+02  0.51100000000E-03 0.  1.
    9900012    2    1    2    0    0 -0.35854256286E+02 -0.23408089692E+02 -0.70821438903E+01  0.47787272829E+02  0.20000008138E+02 0.  0.
         12    1    1    2    0    0  0.35854256286E+02  0.23408089692E+02  0.70821438903E+01  0.43400727171E+02  0.00000000000E+00 0. -1.
         11    1    3    3    0    0 -0.19047296959E+02 -0.98905793899E+01 -0.55647910474E+01  0.22171828561E+02  0.51100000000E-03 0. -1.
        -11    1    3    3    0    0 -0.15800651199E+02 -0.10353157899E+02 -0.61938915999E+01  0.19879958506E+02  0.51100000000E-03 0.  1.
         12    1    3    3    0    0 -0.10063081289E+01 -0.31643524032E+01  0.46765387570E+01  0.57354857621E+01  0.00000000000E+00 0. -1.
</event>
<event>
 7    1  0.2328615E-009  0.4778727E+02  0.7816164E-02  0.1312668E+00
        -11   -1    0    0    0    0  0.00000000000E+00  0.00000000000E+00  0.45593999997E+02  0.45594000000E+02  0.51100000000E-03 0.  1.
         11   -1    0    0    0    0 -0.00000000000E+00 -0.00000000000E+00 -0.45593999997E+02  0.45594000000E+02  0.51100000000E-03 0. -1.
    9900012    2    1    2    0    0 -0.67245868756E+01 -0.90878953417E+01  0.41902426779E+02  0.47787270970E+02  0.19999999660E+02 0.  0.
         12    1    1    2    0    0  0.67245868756E+01  0.90878953417E+01 -0.41902426779E+02  0.43400729030E+02  0.00000000000E+00 0. -1.
         11    1    3    3    0    0  0.21632991396E+01  0.15971180491E+01  0.64709207513E+01  0.70073864501E+01  0.51100000000E-03 0. -1.
        -11    1    3    3    0    0 -0.17080818588E+01  0.76334356807E+00  0.20718201214E+02  0.20802502226E+02  0.51100000000E-03 0.  1.
        -12    1    3    3    0    0 -0.71798041564E+01 -0.11448356959E+02  0.14713304813E+02  0.19977382294E+02  0.00000000000E+00 0.  1.
</event>
<event>
 7    1  0.2328615E-009  0.4778727E+02  0.7816164E-02  0.1312668E+00
        -11   -1    0    0    0    0  0.00000000000E+00  0.00000000000E+00  0.45593999997E+02  0.45594000000E+02  0.51100000000E-03 0. -1.
         11   -1    0    0    0    0 -0.00000000000E+00 -0.00000000000E+00 -0.45593999997E+02  0.45594000000E+02  0.51100000000E-03 0.  1.
    9900012    2    1    2    0    0 -0.26964965484E+02 -0.34005931134E+02 -0.33318133810E+00  0.47787265840E+02  0.19999976269E+02 0.  0.
         12    1    1    2    0    0  0.26964965484E+02  0.34005931134E+02  0.33318133810E+00  0.43400734160E+02  0.00000000000E+00 0. -1.
         11    1    3    3    0    0 -0.96556723580E+01 -0.23094285425E+01  0.33919712337E+01  0.10491469773E+02  0.51100000000E-03 0. -1.
        -11    1    3    3    0    0 -0.10395519373E+02 -0.16180458971E+02 -0.60257855034E+01  0.20154011182E+02  0.51100000000E-03 0.  1.
        -12    1    3    3    0    0 -0.69137737527E+01 -0.15516043621E+02  0.23006329316E+01  0.17141784885E+02  0.00000000000E+00 0.  1.
</event>
<event>
 7    1  0.2328615E-009  0.4778728E+02  0.7816164E-02  0.1312668E+00
        -11   -1    0    0    0    0  0.00000000000E+00  0.00000000000E+00  0.45593999997E+02  0.45594000000E+02  0.51100000000E-03 0.  1.
         11   -1    0    0    0    0 -0.00000000000E+00 -0.00000000000E+00 -0.45593999997E+02  0.45594000000E+02  0.51100000000E-03 0. -1.
    9900012    2    1    2    0    0 -0.22569873133E+02  0.27625830440E+02  0.24719167629E+02  0.47787275018E+02  0.20000018117E+02 0.  0.
         12    1    1    2    0    0  0.22569873133E+02 -0.27625830440E+02 -0.24719167629E+02  0.43400724982E+02  0.00000000000E+00 0. -1.
         11    1    3    3    0    0 -0.15460758247E+02  0.19552845305E+02  0.11073154154E+02  0.27275695193E+02  0.51100000000E-03 0.  1.
        -11    1    3    3    0    0 -0.65026910747E+01  0.15578813308E+01  0.17134517032E+01  0.69027460083E+01  0.51100000000E-03 0. -1.
        -12    1    3    3    0    0 -0.60642381068E+00  0.65151038042E+01  0.11932561772E+02  0.13608833817E+02  0.00000000000E+00 0.  1.
</event>
<event>
 7    1  0.2328615E-009  0.4778727E+02  0.7816164E-02  0.1312668E+00
        -11   -1    0    0    0    0  0.00000000000E+00  0.00000000000E+00  0.45593999997E+02  0.45594000000E+02  0.51100000000E-03 0.  1.
         11   -1    0    0    0    0 -0.00000000000E+00 -0.00000000000E+00 -0.45593999997E+02  0.45594000000E+02  0.51100000000E-03 0. -1.
    9900012    2    1    2    0    0 -0.39370167303E+02  0.18133785436E+02  0.21860853741E+01  0.47787271700E+02  0.20000002987E+02 0.  0.
         12    1    1    2    0    0  0.39370167303E+02 -0.18133785436E+02 -0.21860853741E+01  0.43400728300E+02  0.00000000000E+00 0. -1.
         11    1    3    3    0    0 -0.29720271679E+01  0.67612421735E+01 -0.21249543991E+01  0.76852308146E+01  0.51100000000E-03 0. -1.
        -11    1    3    3    0    0  0.42708236486E-01  0.21304835656E+01  0.10236247718E+01  0.23640203365E+01  0.51100000000E-03 0.  1.
        -12    1    3    3    0    0 -0.36440848372E+02  0.92420596973E+01  0.32874150013E+01  0.37738020548E+02  0.00000000000E+00 0.  1.
</event>
<event>
 7    1  0.2328615E-009  0.4778727E+02  0.7816164E-02  0.1312668E+00
        -11   -1    0    0    0    0  0.00000000000E+00  0.00000000000E+00  0.45593999997E+02  0.45594000000E+02  0.51100000000E-03 0.  1.
         11   -1    0    0    0    0 -0.00000000000E+00 -0.00000000000E+00 -0.45593999997E+02  0.45594000000E+02  0.51100000000E-03 0. -1.
    9900012    2    1    2    0    0 -0.62683207589E+01  0.51107025194E+01  0.42640499849E+02  0.47787270135E+02  0.19999995855E+02 0.  0.
         12    1    1    2    0    0  0.62683207589E+01 -0.51107025194E+01 -0.42640499849E+02  0.43400729865E+02  0.00000000000E+00 0. -1.
         11    1    3    3    0    0  0.38894253574E+01  0.14466224100E+01  0.84761432702E+01  0.94374440928E+01  0.51100000000E-03 0. -1.
        -11    1    3    3    0    0 -0.30353712930E+01  0.66057103400E+01  0.69202010338E+01  0.10036835686E+02  0.51100000000E-03 0.  1.
        -12    1    3    3    0    0 -0.71223748232E+01 -0.29416302307E+01  0.27244155545E+02  0.28312990356E+02  0.00000000000E+00 0.  1.
</event>
<event>
 7    1  0.2328615E-009  0.4778727E+02  0.7816164E-02  0.1312668E+00
        -11   -1    0    0    0    0  0.00000000000E+00  0.00000000000E+00  0.45593999997E+02  0.45594000000E+02  0.51100000000E-03 0. -1.
         11   -1    0    0    0    0 -0.00000000000E+00 -0.00000000000E+00 -0.45593999997E+02  0.45594000000E+02  0.51100000000E-03 0.  1.
    9900012    2    1    2    0    0 -0.20171314481E+02 -0.33322500710E+02 -0.19140328193E+02  0.47787272532E+02  0.20000006782E+02 0.  0.
         12    1    1    2    0    0  0.20171314481E+02  0.33322500710E+02  0.19140328193E+02  0.43400727468E+02  0.00000000000E+00 0. -1.
         11    1    3    3    0    0 -0.11286831034E+02 -0.12581392525E+02 -0.23583122214E+01  0.17065920117E+02  0.51100000000E-03 0. -1.
        -11    1    3    3    0    0 -0.11421762510E+02 -0.18033664225E+02 -0.11444433792E+02  0.24220750800E+02  0.51100000000E-03 0.  1.
        -12    1    3    3    0    0  0.25372790626E+01 -0.27074439591E+01 -0.53375821795E+01  0.65006016149E+01  0.00000000000E+00 0.  1.
</event>
<event>
 7    1  0.2328615E-009  0.4778727E+02  0.7816164E-02  0.1312668E+00
        -11   -1    0    0    0    0  0.00000000000E+00  0.00000000000E+00  0.45593999997E+02  0.45594000000E+02  0.51100000000E-03 0. -1.
         11   -1    0    0    0    0 -0.00000000000E+00 -0.00000000000E+00 -0.45593999997E+02  0.45594000000E+02  0.51100000000E-03 0.  1.
    9900012    2    1    2    0    0  0.12652115064E+02 -0.14134353534E+02 -0.39035462328E+02  0.47787270921E+02  0.19999999439E+02 0.  0.
         12    1    1    2    0    0 -0.12652115064E+02  0.14134353534E+02  0.39035462328E+02  0.43400729079E+02  0.00000000000E+00 0. -1.
         11    1    3    3    0    0 -0.71417598250E+00 -0.10683681222E+01 -0.28580490847E+01  0.31336723840E+01  0.51100000000E-03 0. -1.
        -11    1    3    3    0    0  0.16245582193E+02 -0.75865105952E+01 -0.33316153174E+02  0.37834377838E+02  0.51100000000E-03 0.  1.
         12    1    3    3    0    0 -0.28792911461E+01 -0.54794748162E+01 -0.28612600690E+01  0.68192206994E+01  0.00000000000E+00 0. -1.
</event>
<event>
 7    1  0.2328615E-009  0.4778727E+02  0.7816164E-02  0.1312668E+00
        -11   -1    0    0    0    0  0.00000000000E+00  0.00000000000E+00  0.45593999997E+02  0.45594000000E+02  0.51100000000E-03 0.  1.
         11   -1    0    0    0    0 -0.00000000000E+00 -0.00000000000E+00 -0.45593999997E+02  0.45594000000E+02  0.51100000000E-03 0. -1.
    9900012    2    1    2    0    0 -0.33642806690E+02  0.14167614728E+02  0.23474741572E+02  0.47787271424E+02  0.20000001729E+02 0.  0.
         12    1    1    2    0    0  0.33642806690E+02 -0.14167614728E+02 -0.23474741572E+02  0.43400728576E+02  0.00000000000E+00 0. -1.
         11    1    3    3    0    0 -0.21750098264E+02  0.53557291343E+01  0.83610283915E+01  0.23909358107E+02  0.51100000000E-03 0. -1.
        -11    1    3    3    0    0 -0.76337207761E+01  0.19120982073E+01  0.14685446855E+01  0.80054004394E+01  0.51100000000E-03 0.  1.
         12    1    3    3    0    0 -0.42589876502E+01  0.68997873859E+01  0.13645168495E+02  0.15872512877E+02  0.00000000000E+00 0. -1.
</event>
<event>
 7    1  0.2328615E-009  0.4778728E+02  0.7816164E-02  0.1312668E+00
        -11   -1    0    0    0    0  0.00000000000E+00  0.00000000000E+00  0.45593999997E+02  0.45594000000E+02  0.51100000000E-03 0.  1.
         11   -1    0    0    0    0 -0.00000000000E+00 -0.00000000000E+00 -0.45593999997E+02  0.45594000000E+02  0.51100000000E-03 0. -1.
    9900012    2    1    2    0    0 -0.20408208387E+02 -0.15172302424E+02  0.35169993960E+02  0.47787283352E+02  0.20000056115E+02 0.  0.
         12    1    1    2    0    0  0.20408208387E+02  0.15172302424E+02 -0.35169993960E+02  0.43400716648E+02  0.00000000000E+00 0. -1.
         11    1    3    3    0    0 -0.14051642566E+02  0.16287312013E+01  0.17479704709E+02  0.22486473737E+02  0.51100000000E-03 0. -1.
        -11    1    3    3    0    0 -0.46547446225E+00 -0.34602752412E+01  0.38070864749E+01  0.51656634529E+01  0.51100000000E-03 0.  1.
         12    1    3    3    0    0 -0.58910913589E+01 -0.13340758385E+02  0.13883202776E+02  0.20135146163E+02  0.00000000000E+00 0. -1.
</event>
<event>
 7    1  0.2328615E-009  0.4778727E+02  0.7816164E-02  0.1312668E+00
        -11   -1    0    0    0    0  0.00000000000E+00  0.00000000000E+00  0.45593999997E+02  0.45594000000E+02  0.51100000000E-03 0.  1.
         11   -1    0    0    0    0 -0.00000000000E+00 -0.00000000000E+00 -0.45593999997E+02  0.45594000000E+02  0.51100000000E-03 0. -1.
    9900012    2    1    2    0    0 -0.18932990269E+02  0.16212914314E+02  0.35528956299E+02  0.47787269053E+02  0.19999990920E+02 0.  0.
         12    1    1    2    0    0  0.18932990269E+02 -0.16212914314E+02 -0.35528956299E+02  0.43400730947E+02  0.00000000000E+00 0. -1.
         11    1    3    3    0    0  0.13258236995E+01 -0.12922724853E+01  0.11325992019E+01  0.21703819644E+01  0.51100000000E-03 0. -1.
        -11    1    3    3    0    0 -0.33411957052E+00  0.30883775658E+01  0.11857535437E+02  0.12257685703E+02  0.51100000000E-03 0.  1.
        -12    1    3    3    0    0 -0.19924694397E+02  0.14416809233E+02  0.22538821660E+02  0.33359201386E+02  0.00000000000E+00 0.  1.
</event>
<event>
 7    1  0.2328615E-009  0.4778727E+02  0.7816164E-02  0.1312668E+00
        -11   -1    0    0    0    0  0.00000000000E+00  0.00000000000E+00  0.45593999997E+02  0.45594000000E+02  0.51100000000E-03 0.  1.
         11   -1    0    0    0    0 -0.00000000000E+00 -0.00000000000E+00 -0.45593999997E+02  0.45594000000E+02  0.51100000000E-03 0. -1.
    9900012    2    1    2    0    0  0.25218079914E+01  0.15668735561E+00  0.43327120343E+02  0.47787269319E+02  0.19999992132E+02 0.  0.
         12    1    1    2    0    0 -0.25218079914E+01 -0.15668735561E+00 -0.43327120343E+02  0.43400730681E+02  0.00000000000E+00 0. -1.
         11    1    3    3    0    0 -0.11347100395E+01  0.70306990424E+01  0.14513832000E+02  0.16166929686E+02  0.51100000000E-03 0. -1.
        -11    1    3    3    0    0 -0.19351279003E+01 -0.25131489505E+01  0.20274159351E+02  0.20520774237E+02  0.51100000000E-03 0.  1.
         12    1    3    3    0    0  0.55916459313E+01 -0.43608627363E+01  0.85391289920E+01  0.11099565395E+02  0.00000000000E+00 0. -1.
</event>
<event>
 7    1  0.2328615E-009  0.4778727E+02  0.7816164E-02  0.1312668E+00
        -11   -1    0    0    0    0  0.00000000000E+00  0.00000000000E+00  0.45593999997E+02  0.45594000000E+02  0.51100000000E-03 0.  1.
         11   -1    0    0    0    0 -0.00000000000E+00 -0.00000000000E+00 -0.45593999997E+02  0.45594000000E+02  0.51100000000E-03 0. -1.
    9900012    2    1    2    0    0 -0.36239250467E+01 -0.38491168256E+02 -0.19721068824E+02  0.47787269338E+02  0.19999992218E+02 0.  0.
         12    1    1    2    0    0  0.36239250467E+01  0.38491168256E+02  0.19721068824E+02  0.43400730662E+02  0.00000000000E+00 0. -1.
         11    1    3    3    0    0 -0.46441245728E+01 -0.16183138921E+02  0.82586606810E+00  0.16856569444E+02  0.51100000000E-03 0. -1.
        -11    1    3    3    0    0  0.24541596387E+01 -0.60621124373E+01 -0.38442360014E+01  0.75861885970E+01  0.51100000000E-03 0.  1.
         12    1    3    3    0    0 -0.14339601126E+01 -0.16245916898E+02 -0.16702698891E+02  0.23344511297E+02  0.00000000000E+00 0. -1.
</event>
<event>
 7    1  0.2328615E-009  0.4778727E+02  0.7816164E-02  0.1312668E+00
        -11   -1    0    0    0    0  0.00000000000E+00  0.00000000000E+00  0.45593999997E+02  0.45594000000E+02  0.51100000000E-03 0.  1.
         11   -1    0    0    0    0 -0.00000000000E+00 -0.00000000000E+00 -0.45593999997E+02  0.45594000000E+02  0.51100000000E-03 0. -1.
    9900012    2    1    2    0    0 -0.20387196200E+02 -0.28157657637E+02  0.25983304003E+02  0.47787267985E+02  0.19999986053E+02 0.  0.
         12    1    1    2    0    0  0.20387196200E+02  0.28157657637E+02 -0.25983304003E+02  0.43400732015E+02  0.00000000000E+00 0. -1.
         11    1    3    3    0    0 -0.63035461436E+01 -0.20636386620E+02  0.14531296297E+02  0.26014490559E+02  0.51100000000E-03 0. -1.
        -11    1    3    3    0    0 -0.23894840080E+01 -0.42866528778E+01  0.75923676193E+01  0.90404133228E+01  0.51100000000E-03 0.  1.
        -12    1    3    3    0    0 -0.11694166048E+02 -0.32346181391E+01  0.38596400870E+01  0.12732364104E+02  0.00000000000E+00 0.  1.
</event>
<event>
 7    1  0.2328615E-009  0.4778726E+02  0.7816164E-02  0.1312668E+00
        -11   -1    0    0    0    0  0.00000000000E+00  0.00000000000E+00  0.45593999997E+02  0.45594000000E+02  0.51100000000E-03 0.  1.
         11   -1    0    0    0    0 -0.00000000000E+00 -0.00000000000E+00 -0.45593999997E+02  0.45594000000E+02  0.51100000000E-03 0. -1.
    9900012    2    1    2    0    0 -0.21323092783E+02  0.28307588730E+02  0.25052548691E+02  0.47787261971E+02  0.19999958632E+02 0.  0.
         12    1    1    2    0    0  0.21323092783E+02 -0.28307588730E+02 -0.25052548691E+02  0.43400738029E+02  0.00000000000E+00 0. -1.
         11    1    3    3    0    0 -0.47099469270E+01 -0.66859050623E+00  0.58754272431E+01  0.75598451618E+01  0.51100000000E-03 0. -1.
        -11    1    3    3    0    0  0.11943998645E+01  0.63616493778E+01  0.23537277659E+01  0.68874674954E+01  0.51100000000E-03 0.  1.
         12    1    3    3    0    0 -0.17807545720E+02  0.22614529858E+02  0.16823393682E+02  0.33339949314E+02  0.00000000000E+00 0. -1.
</event>
<event>
 7    1  0.2328615E-009  0.4778727E+02  0.7816164E-02  0.1312668E+00
        -11   -1    0    0    0    0  0.00000000000E+00  0.00000000000E+00  0.45593999997E+02  0.45594000000E+02  0.51100000000E-03 0.  1.
         11   -1    0    0    0    0 -0.00000000000E+00 -0.00000000000E+00 -0.45593999997E+02  0.45594000000E+02  0.51100000000E-03 0. -1.
    9900012    2    1    2    0    0  0.35082481269E+02 -0.60180980634E+01  0.24831946303E+02  0.47787267823E+02  0.19999985314E+02 0.  0.
         12    1    1    2    0    0 -0.35082481269E+02  0.60180980634E+01 -0.24831946303E+02  0.43400732177E+02  0.00000000000E+00 0. -1.
         11    1    3    3    0    0  0.10430513130E+02  0.51773047113E+01  0.91849652209E+01  0.14831172395E+02  0.51100000000E-03 0. -1.
        -11    1    3    3    0    0  0.22785935522E+01 -0.22745077321E+01 -0.13347780031E+01  0.34852555972E+01  0.51100000000E-03 0.  1.
        -12    1    3    3    0    0  0.22373374587E+02 -0.89208950426E+01  0.16981759085E+02  0.29470839832E+02  0.00000000000E+00 0.  1.
</event>
<event>
 7    1  0.2328615E-009  0.4778726E+02  0.7816164E-02  0.1312668E+00
        -11   -1    0    0    0    0  0.00000000000E+00  0.00000000000E+00  0.45593999997E+02  0.45594000000E+02  0.51100000000E-03 0.  1.
         11   -1    0    0    0    0 -0.00000000000E+00 -0.00000000000E+00 -0.45593999997E+02  0.45594000000E+02  0.51100000000E-03 0. -1.
    9900012    2    1    2    0    0 -0.18615111828E+02 -0.39204663298E+02  0.31051740293E+00  0.47787257682E+02  0.19999939074E+02 0.  0.
         12    1    1    2    0    0  0.18615111828E+02  0.39204663298E+02 -0.31051740293E+00  0.43400742318E+02  0.00000000000E+00 0. -1.
         11    1    3    3    0    0 -0.14821346085E+01 -0.41464106566E+01 -0.19529386150E+01  0.48169921970E+01  0.51100000000E-03 0. -1.
        -11    1    3    3    0    0 -0.19825986507E+02 -0.32688142853E+02  0.48647751314E+01  0.38538947333E+02  0.51100000000E-03 0.  1.
         12    1    3    3    0    0  0.26930092875E+01 -0.23701097884E+01 -0.26013191135E+01  0.44313181517E+01  0.00000000000E+00 0. -1.
</event>
<event>
 7    1  0.2328615E-009  0.4778727E+02  0.7816164E-02  0.1312668E+00
        -11   -1    0    0    0    0  0.00000000000E+00  0.00000000000E+00  0.45593999997E+02  0.45594000000E+02  0.51100000000E-03 0. -1.
         11   -1    0    0    0    0 -0.00000000000E+00 -0.00000000000E+00 -0.45593999997E+02  0.45594000000E+02  0.51100000000E-03 0.  1.
    9900012    2    1    2    0    0  0.27774813711E+02 -0.33348644417E+02  0.22523207700E+00  0.47787273155E+02  0.20000009624E+02 0.  0.
         12    1    1    2    0    0 -0.27774813711E+02  0.33348644417E+02 -0.22523207700E+00  0.43400726845E+02  0.00000000000E+00 0. -1.
         11    1    3    3    0    0 -0.68545648695E-01 -0.12038525153E+01  0.22774405163E-01  0.12060175452E+01  0.51100000000E-03 0. -1.
        -11    1    3    3    0    0  0.15277282331E+02 -0.13924933646E+02  0.92804363097E+01  0.22658897388E+02  0.51100000000E-03 0.  1.
        -12    1    3    3    0    0  0.12566077029E+02 -0.18219858256E+02 -0.90779786379E+01  0.23922358222E+02  0.00000000000E+00 0.  1.
</event>
<event>
 7    1  0.2328615E-009  0.4778727E+02  0.7816164E-02  0.1312668E+00
        -11   -1    0    0    0    0  0.00000000000E+00  0.00000000000E+00  0.45593999997E+02  0.45594000000E+02  0.51100000000E-03 0.  1.
         11   -1    0    0    0    0 -0.00000000000E+00 -0.00000000000E+00 -0.45593999997E+02  0.45594000000E+02  0.51100000000E-03 0. -1.
    9900012    2    1    2    0    0 -0.65334476682E+01 -0.10961864983E+02  0.41482222344E+02  0.47787271977E+02  0.20000004252E+02 0.  0.
         12    1    1    2    0    0  0.65334476682E+01  0.10961864983E+02 -0.41482222344E+02  0.43400728023E+02  0.00000000000E+00 0. -1.
         11    1    3    3    0    0 -0.45143051239E+01 -0.34379060693E+01  0.23737123005E+00  0.56793040291E+01  0.51100000000E-03 0. -1.
        -11    1    3    3    0    0  0.84879189548E+00 -0.96073702844E+00  0.78131850109E+01  0.79176589719E+01  0.51100000000E-03 0.  1.
         12    1    3    3    0    0 -0.28679344399E+01 -0.65632218851E+01  0.33431666103E+02  0.34190308976E+02  0.00000000000E+00 0. -1.
</event>
<event>
 7    1  0.2328615E-009  0.4778727E+02  0.7816164E-02  0.1312668E+00
        -11   -1    0    0    0    0  0.00000000000E+00  0.00000000000E+00  0.45593999997E+02  0.45594000000E+02  0.51100000000E-03 0.  1.
         11   -1    0    0    0    0 -0.00000000000E+00 -0.00000000000E+00 -0.45593999997E+02  0.45594000000E+02  0.51100000000E-03 0. -1.
    9900012    2    1    2    0    0  0.14546729473E+02  0.84972481654E+01  0.39997658044E+02  0.47787271737E+02  0.20000003156E+02 0.  0.
         12    1    1    2    0    0 -0.14546729473E+02 -0.84972481654E+01 -0.39997658044E+02  0.43400728263E+02  0.00000000000E+00 0. -1.
         11    1    3    3    0    0  0.54556275199E+00  0.71563707120E+00  0.49593625224E+01  0.50403424511E+01  0.51100000000E-03 0. -1.
        -11    1    3    3    0    0  0.18177638448E+02  0.42632860483E+01  0.29887594990E+02  0.35240182775E+02  0.51100000000E-03 0.  1.
         12    1    3    3    0    0 -0.41764717261E+01  0.35183250459E+01  0.51507005315E+01  0.75067465104E+01  0.00000000000E+00 0. -1.
</event>
<event>
 7    1  0.2328615E-009  0.4778727E+02  0.7816164E-02  0.1312668E+00
        -11   -1    0    0    0    0  0.00000000000E+00  0.00000000000E+00  0.45593999997E+02  0.45594000000E+02  0.51100000000E-03 0.  1.
         11   -1    0    0    0    0 -0.00000000000E+00 -0.00000000000E+00 -0.45593999997E+02  0.45594000000E+02  0.51100000000E-03 0. -1.
    9900012    2    1    2    0    0  0.10527419303E+02 -0.23205236293E+02  0.35132802571E+02  0.47787269994E+02  0.19999995210E+02 0.  0.
         12    1    1    2    0    0 -0.10527419303E+02  0.23205236293E+02 -0.35132802571E+02  0.43400730006E+02  0.00000000000E+00 0. -1.
         11    1    3    3    0    0  0.11450194880E+00 -0.61145859733E+01  0.54044713552E+01  0.81614694272E+01  0.51100000000E-03 0. -1.
        -11    1    3    3    0    0  0.14158273571E+02 -0.17407823748E+02  0.25652581210E+02  0.34081431325E+02  0.51100000000E-03 0.  1.
         12    1    3    3    0    0 -0.37453562172E+01  0.31717342854E+00  0.40757500056E+01  0.55443692415E+01  0.00000000000E+00 0. -1.
</event>
<event>
 7    1  0.2328615E-009  0.4778727E+02  0.7816164E-02  0.1312668E+00
        -11   -1    0    0    0    0  0.00000000000E+00  0.00000000000E+00  0.45593999997E+02  0.45594000000E+02  0.51100000000E-03 0. -1.
         11   -1    0    0    0    0 -0.00000000000E+00 -0.00000000000E+00 -0.45593999997E+02  0.45594000000E+02  0.51100000000E-03 0.  1.
    9900012    2    1    2    0    0  0.11529068777E+02  0.22443679610E+02 -0.35312675812E+02  0.47787271270E+02  0.20000001028E+02 0.  0.
         12    1    1    2    0    0 -0.11529068777E+02 -0.22443679610E+02  0.35312675812E+02  0.43400728730E+02  0.00000000000E+00 0. -1.
         11    1    3    3    0    0  0.14661829578E+01  0.28665989188E+01 -0.75193370195E+01  0.81797011743E+01  0.51100000000E-03 0. -1.
        -11    1    3    3    0    0  0.69952639730E+01  0.17127480190E+02 -0.29893487529E+02  0.35155439019E+02  0.51100000000E-03 0.  1.
         12    1    3    3    0    0  0.30676218463E+01  0.24496005011E+01  0.21001487367E+01  0.44521310766E+01  0.00000000000E+00 0. -1.
</event>
<event>
 7    1  0.2328615E-009  0.4778727E+02  0.7816164E-02  0.1312668E+00
        -11   -1    0    0    0    0  0.00000000000E+00  0.00000000000E+00  0.45593999997E+02  0.45594000000E+02  0.51100000000E-03 0.  1.
         11   -1    0    0    0    0 -0.00000000000E+00 -0.00000000000E+00 -0.45593999997E+02  0.45594000000E+02  0.51100000000E-03 0. -1.
    9900012    2    1    2    0    0 -0.30498504413E+02  0.27928939823E+02 -0.13169610102E+02  0.47787273263E+02  0.20000010114E+02 0.  0.
         12    1    1    2    0    0  0.30498504413E+02 -0.27928939823E+02  0.13169610102E+02  0.43400726737E+02  0.00000000000E+00 0. -1.
         11    1    3    3    0    0 -0.56232904049E+01  0.63414109210E+01  0.28719549911E+01  0.89489112846E+01  0.51100000000E-03 0. -1.
        -11    1    3    3    0    0 -0.18540507004E+01  0.46871124527E+01  0.15780148866E+01  0.52817287309E+01  0.51100000000E-03 0.  1.
        -12    1    3    3    0    0 -0.23021163308E+02  0.16900416449E+02 -0.17619579980E+02  0.33556633247E+02  0.00000000000E+00 0.  1.
</event>
<event>
 7    1  0.2328615E-009  0.4778728E+02  0.7816164E-02  0.1312668E+00
        -11   -1    0    0    0    0  0.00000000000E+00  0.00000000000E+00  0.45593999997E+02  0.45594000000E+02  0.51100000000E-03 0.  1.
         11   -1    0    0    0    0 -0.00000000000E+00 -0.00000000000E+00 -0.45593999997E+02  0.45594000000E+02  0.51100000000E-03 0. -1.
    9900012    2    1    2    0    0  0.11504756150E+02  0.21858855077E+02  0.35685480057E+02  0.47787280579E+02  0.20000043472E+02 0.  0.
         12    1    1    2    0    0 -0.11504756150E+02 -0.21858855077E+02 -0.35685480057E+02  0.43400719421E+02  0.00000000000E+00 0. -1.
         11    1    3    3    0    0  0.35533809782E+01  0.70264143220E+01  0.11797372171E+02  0.14183617486E+02  0.51100000000E-03 0. -1.
        -11    1    3    3    0    0  0.10156039749E+02  0.87768329298E+01  0.23603021417E+02  0.27152910709E+02  0.51100000000E-03 0.  1.
         12    1    3    3    0    0 -0.22046645771E+01  0.60556078248E+01  0.28508646921E+00  0.64507523840E+01  0.00000000000E+00 0. -1.
</event>
<event>
 7    1  0.2328615E-009  0.4778729E+02  0.7816164E-02  0.1312668E+00
        -11   -1    0    0    0    0  0.00000000000E+00  0.00000000000E+00  0.45593999997E+02  0.45594000000E+02  0.51100000000E-03 0.  1.
         11   -1    0    0    0    0 -0.00000000000E+00 -0.00000000000E+00 -0.45593999997E+02  0.45594000000E+02  0.51100000000E-03 0. -1.
    9900012    2    1    2    0    0  0.25190685601E+02 -0.20442979615E+02 -0.28829425011E+02  0.47787287989E+02  0.20000077255E+02 0.  0.
         12    1    1    2    0    0 -0.25190685601E+02  0.20442979615E+02  0.28829425011E+02  0.43400712011E+02  0.00000000000E+00 0. -1.
         11    1    3    3    0    0  0.21338533672E+02 -0.13246905677E+02 -0.18906378627E+02  0.31436677342E+02  0.51100000000E-03 0. -1.
        -11    1    3    3    0    0  0.64859381089E+01 -0.21013086929E+01 -0.74676982761E+01  0.10111844994E+02  0.51100000000E-03 0.  1.
         12    1    3    3    0    0 -0.26337861790E+01 -0.50947652446E+01 -0.24553481087E+01  0.62387656527E+01  0.00000000000E+00 0. -1.
</event>
<event>
 7    1  0.2328615E-009  0.4778727E+02  0.7816164E-02  0.1312668E+00
        -11   -1    0    0    0    0  0.00000000000E+00  0.00000000000E+00  0.45593999997E+02  0.45594000000E+02  0.51100000000E-03 0.  1.
         11   -1    0    0    0    0 -0.00000000000E+00 -0.00000000000E+00 -0.45593999997E+02  0.45594000000E+02  0.51100000000E-03 0. -1.
    9900012    2    1    2    0    0 -0.11755053614E+02 -0.40220244088E+02  0.11303701133E+02  0.47787274439E+02  0.20000015476E+02 0.  0.
         12    1    1    2    0    0  0.11755053614E+02  0.40220244088E+02 -0.11303701133E+02  0.43400725561E+02  0.00000000000E+00 0. -1.
         11    1    3    3    0    0 -0.53680133822E+01 -0.20353241873E+02 -0.32848630059E+00  0.21051791513E+02  0.51100000000E-03 0. -1.
        -11    1    3    3    0    0 -0.56827162822E+01 -0.16779627187E+02  0.35675903601E+01  0.18071437522E+02  0.51100000000E-03 0.  1.
         12    1    3    3    0    0 -0.70432394962E+00 -0.30873750273E+01  0.80645970736E+01  0.86640454030E+01  0.00000000000E+00 0. -1.
</event>
<event>
 7    1  0.2328615E-009  0.4778727E+02  0.7816164E-02  0.1312668E+00
        -11   -1    0    0    0    0  0.00000000000E+00  0.00000000000E+00  0.45593999997E+02  0.45594000000E+02  0.51100000000E-03 0. -1.
         11   -1    0    0    0    0 -0.00000000000E+00 -0.00000000000E+00 -0.45593999997E+02  0.45594000000E+02  0.51100000000E-03 0.  1.
    9900012    2    1    2    0    0 -0.38696875156E+02  0.19640432250E+02  0.65497030235E+00  0.47787265998E+02  0.19999976992E+02 0.  0.
         12    1    1    2    0    0  0.38696875156E+02 -0.19640432250E+02 -0.65497030235E+00  0.43400734002E+02  0.00000000000E+00 0. -1.
         11    1    3    3    0    0 -0.18610367797E+01 -0.89156974848E+00  0.24660551300E+01  0.32155532459E+01  0.51100000000E-03 0. -1.
        -11    1    3    3    0    0 -0.20023984882E+02  0.63335380662E+01  0.48999423731E+01  0.21565785646E+02  0.51100000000E-03 0.  1.
        -12    1    3    3    0    0 -0.16811853494E+02  0.14198463932E+02 -0.67110272008E+01  0.23005927106E+02  0.00000000000E+00 0.  1.
</event>
<event>
 7    1  0.2328615E-009  0.4778728E+02  0.7816164E-02  0.1312668E+00
        -11   -1    0    0    0    0  0.00000000000E+00  0.00000000000E+00  0.45593999997E+02  0.45594000000E+02  0.51100000000E-03 0. -1.
         11   -1    0    0    0    0 -0.00000000000E+00 -0.00000000000E+00 -0.45593999997E+02  0.45594000000E+02  0.51100000000E-03 0.  1.
    9900012    2    1    2    0    0  0.34743143219E+02  0.14379392398E+02 -0.21674176801E+02  0.47787275738E+02  0.20000021399E+02 0.  0.
         12    1    1    2    0    0 -0.34743143219E+02 -0.14379392398E+02  0.21674176801E+02  0.43400724262E+02  0.00000000000E+00 0. -1.
         11    1    3    3    0    0  0.18549599277E+02  0.16964210792E+01 -0.11919405134E+02  0.22114196726E+02  0.51100000000E-03 0. -1.
        -11    1    3    3    0    0  0.68897863268E+01  0.39504914224E+01 -0.10173317507E+02  0.12906274732E+02  0.51100000000E-03 0.  1.
         12    1    3    3    0    0  0.93037576158E+01  0.87324798960E+01  0.41854583981E+00  0.12766804280E+02  0.00000000000E+00 0. -1.
</event>
<event>
 7    1  0.2328615E-009  0.4778727E+02  0.7816164E-02  0.1312668E+00
        -11   -1    0    0    0    0  0.00000000000E+00  0.00000000000E+00  0.45593999997E+02  0.45594000000E+02  0.51100000000E-03 0. -1.
         11   -1    0    0    0    0 -0.00000000000E+00 -0.00000000000E+00 -0.45593999997E+02  0.45594000000E+02  0.51100000000E-03 0.  1.
    9900012    2    1    2    0    0  0.35885868258E+02  0.16323282754E+02 -0.18148777281E+02  0.47787271696E+02  0.20000002970E+02 0.  0.
         12    1    1    2    0    0 -0.35885868258E+02 -0.16323282754E+02  0.18148777281E+02  0.43400728304E+02  0.00000000000E+00 0. -1.
         11    1    3    3    0    0  0.23886703329E+01 -0.37433994607E+01 -0.26144067629E+01  0.51530484633E+01  0.51100000000E-03 0. -1.
        -11    1    3    3    0    0  0.27747011447E+01  0.31733892749E+01 -0.37616931381E+01  0.56497523361E+01  0.51100000000E-03 0.  1.
        -12    1    3    3    0    0  0.30722496781E+02  0.16893292939E+02 -0.11772677380E+02  0.36984470896E+02  0.00000000000E+00 0.  1.
</event>
<event>
 7    1  0.2328615E-009  0.4778727E+02  0.7816164E-02  0.1312668E+00
        -11   -1    0    0    0    0  0.00000000000E+00  0.00000000000E+00  0.45593999997E+02  0.45594000000E+02  0.51100000000E-03 0.  1.
         11   -1    0    0    0    0 -0.00000000000E+00 -0.00000000000E+00 -0.45593999997E+02  0.45594000000E+02  0.51100000000E-03 0. -1.
    9900012    2    1    2    0    0 -0.71509265329E+01 -0.42381539329E+02  0.60243475748E+01  0.47787269708E+02  0.19999993908E+02 0.  0.
         12    1    1    2    0    0  0.71509265329E+01  0.42381539329E+02 -0.60243475748E+01  0.43400730292E+02  0.00000000000E+00 0. -1.
         11    1    3    3    0    0 -0.53752486481E+01 -0.87380288570E+01 -0.25221526564E+01  0.10564454582E+02  0.51100000000E-03 0. -1.
        -11    1    3    3    0    0  0.92885351890E-01  0.11753071814E+01 -0.36309102595E+00  0.12336166396E+01  0.51100000000E-03 0.  1.
        -12    1    3    3    0    0 -0.18685632367E+01 -0.34818817653E+02  0.89095912572E+01  0.35989198486E+02  0.00000000000E+00 0.  1.
</event>
<event>
 7    1  0.2328615E-009  0.4778727E+02  0.7816164E-02  0.1312668E+00
        -11   -1    0    0    0    0  0.00000000000E+00  0.00000000000E+00  0.45593999997E+02  0.45594000000E+02  0.51100000000E-03 0. -1.
         11   -1    0    0    0    0 -0.00000000000E+00 -0.00000000000E+00 -0.45593999997E+02  0.45594000000E+02  0.51100000000E-03 0.  1.
    9900012    2    1    2    0    0  0.25602468653E+02 -0.45918915108E+01 -0.34742644798E+02  0.47787271477E+02  0.20000001971E+02 0.  0.
         12    1    1    2    0    0 -0.25602468653E+02  0.45918915108E+01  0.34742644798E+02  0.43400728523E+02  0.00000000000E+00 0. -1.
         11    1    3    3    0    0  0.33213984456E+01 -0.24074890935E+00 -0.22798459962E+01  0.40357583797E+01  0.51100000000E-03 0. -1.
        -11    1    3    3    0    0  0.17259191401E+02  0.13397603217E+01 -0.98904262162E+01  0.19937281071E+02  0.51100000000E-03 0.  1.
         12    1    3    3    0    0  0.50218788071E+01 -0.56909029232E+01 -0.22572372586E+02  0.23814232026E+02  0.00000000000E+00 0. -1.
</event>
<event>
 7    1  0.2328615E-009  0.4778727E+02  0.7816164E-02  0.1312668E+00
        -11   -1    0    0    0    0  0.00000000000E+00  0.00000000000E+00  0.45593999997E+02  0.45594000000E+02  0.51100000000E-03 0.  1.
         11   -1    0    0    0    0 -0.00000000000E+00 -0.00000000000E+00 -0.45593999997E+02  0.45594000000E+02  0.51100000000E-03 0. -1.
    9900012    2    1    2    0    0  0.41773504993E+02  0.57248911871E+01  0.10287031805E+02  0.47787272796E+02  0.20000007986E+02 0.  0.
         12    1    1    2    0    0 -0.41773504993E+02 -0.57248911871E+01 -0.10287031805E+02  0.43400727204E+02  0.00000000000E+00 0. -1.
         11    1    3    3    0    0  0.64145939685E+01  0.23762260357E+01 -0.35580528446E+01  0.77105905260E+01  0.51100000000E-03 0. -1.
        -11    1    3    3    0    0  0.13463941453E+02  0.48773713874E+01  0.10761143808E+02  0.17912807916E+02  0.51100000000E-03 0.  1.
         12    1    3    3    0    0  0.21894969571E+02 -0.15287062359E+01  0.30839408412E+01  0.22163874354E+02  0.00000000000E+00 0. -1.
</event>
<event>
 7    1  0.2328615E-009  0.4778728E+02  0.7816164E-02  0.1312668E+00
        -11   -1    0    0    0    0  0.00000000000E+00  0.00000000000E+00  0.45593999997E+02  0.45594000000E+02  0.51100000000E-03 0.  1.
         11   -1    0    0    0    0 -0.00000000000E+00 -0.00000000000E+00 -0.45593999997E+02  0.45594000000E+02  0.51100000000E-03 0. -1.
    9900012    2    1    2    0    0  0.17304799725E+02 -0.34048555649E+02  0.20612188611E+02  0.47787279330E+02  0.20000037778E+02 0.  0.
         12    1    1    2    0    0 -0.17304799725E+02  0.34048555649E+02 -0.20612188611E+02  0.43400720670E+02  0.00000000000E+00 0. -1.
         11    1    3    3    0    0  0.83974435332E+01 -0.12994319626E+02  0.34442367229E+01  0.15850304960E+02  0.51100000000E-03 0. -1.
        -11    1    3    3    0    0  0.11324369324E+02 -0.21544100047E+02  0.16419828843E+02  0.29359842761E+02  0.51100000000E-03 0.  1.
        -12    1    3    3    0    0 -0.24170131322E+01  0.48986402454E+00  0.74812304488E+00  0.25771316097E+01  0.00000000000E+00 0.  1.
</event>
<event>
 7    1  0.2328615E-009  0.4778727E+02  0.7816164E-02  0.1312668E+00
        -11   -1    0    0    0    0  0.00000000000E+00  0.00000000000E+00  0.45593999997E+02  0.45594000000E+02  0.51100000000E-03 0.  1.
         11   -1    0    0    0    0 -0.00000000000E+00 -0.00000000000E+00 -0.45593999997E+02  0.45594000000E+02  0.51100000000E-03 0. -1.
    9900012    2    1    2    0    0 -0.32473555653E+02 -0.20876333956E+02  0.19831040661E+02  0.47787270629E+02  0.19999998105E+02 0.  0.
         12    1    1    2    0    0  0.32473555653E+02  0.20876333956E+02 -0.19831040661E+02  0.43400729371E+02  0.00000000000E+00 0. -1.
         11    1    3    3    0    0  0.38589197617E+00  0.24786384768E+01  0.57633240979E+00  0.25738532638E+01  0.51100000000E-03 0. -1.
        -11    1    3    3    0    0 -0.11833087572E+02 -0.46152716343E+01  0.50441174441E+01  0.13666228990E+02  0.51100000000E-03 0.  1.
        -12    1    3    3    0    0 -0.21026360058E+02 -0.18739700799E+02  0.14210590808E+02  0.31547188375E+02  0.00000000000E+00 0.  1.
</event>
<event>
 7    1  0.2328615E-009  0.4778727E+02  0.7816164E-02  0.1312668E+00
        -11   -1    0    0    0    0  0.00000000000E+00  0.00000000000E+00  0.45593999997E+02  0.45594000000E+02  0.51100000000E-03 0.  1.
         11   -1    0    0    0    0 -0.00000000000E+00 -0.00000000000E+00 -0.45593999997E+02  0.45594000000E+02  0.51100000000E-03 0. -1.
    9900012    2    1    2    0    0  0.12202635410E+02 -0.33495696088E+02  0.24753934508E+02  0.47787271423E+02  0.20000001728E+02 0.  0.
         12    1    1    2    0    0 -0.12202635410E+02  0.33495696088E+02 -0.24753934508E+02  0.43400728577E+02  0.00000000000E+00 0. -1.
         11    1    3    3    0    0  0.17620978271E+01 -0.18165455465E+02  0.13065792432E+02  0.22445571794E+02  0.51100000000E-03 0. -1.
        -11    1    3    3    0    0  0.97287502658E+01 -0.15953950087E+02  0.60744878813E+01  0.19648829695E+02  0.51100000000E-03 0.  1.
        -12    1    3    3    0    0  0.71178731751E+00  0.62370946416E+00  0.56136541941E+01  0.56928699346E+01  0.00000000000E+00 0.  1.
</event>
<event>
 7    1  0.2385757E-009  0.4778727E+02  0.7816164E-02  0.1312668E+00
        -11   -1    0    0    0    0  0.00000000000E+00  0.00000000000E+00  0.45593999997E+02  0.45594000000E+02  0.51100000000E-03 0. -1.
         11   -1    0    0    0    0 -0.00000000000E+00 -0.00000000000E+00 -0.45593999997E+02  0.45594000000E+02  0.51100000000E-03 0.  1.
    9900012    2    1    2    0    0 -0.46520474067E+01  0.42794677478E+02 -0.55315232929E+01  0.47787265957E+02  0.19999976806E+02 0.  0.
         12    1    1    2    0    0  0.46520474067E+01 -0.42794677478E+02  0.55315232929E+01  0.43400734043E+02  0.00000000000E+00 0. -1.
         11    1    3    3    0    0  0.19342636102E+01  0.12092172825E+02  0.34086312230E+01  0.12711443129E+02  0.51100000000E-03 0. -1.
        -11    1    3    3    0    0  0.33429803316E+01  0.14349883125E+02 -0.29277811550E+01  0.15022202433E+02  0.51100000000E-03 0.  1.
        -12    1    3    3    0    0 -0.99292913485E+01  0.16352621527E+02 -0.60123733609E+01  0.20053620395E+02  0.00000000000E+00 0.  1.
</event>
<event>
 7    1  0.2328615E-009  0.4778727E+02  0.7816164E-02  0.1312668E+00
        -11   -1    0    0    0    0  0.00000000000E+00  0.00000000000E+00  0.45593999997E+02  0.45594000000E+02  0.51100000000E-03 0. -1.
         11   -1    0    0    0    0 -0.00000000000E+00 -0.00000000000E+00 -0.45593999997E+02  0.45594000000E+02  0.51100000000E-03 0.  1.
    9900012    2    1    2    0    0  0.28905316399E+02 -0.74679124089E+01 -0.31501366879E+02  0.47787272505E+02  0.20000006658E+02 0.  0.
         12    1    1    2    0    0 -0.28905316399E+02  0.74679124089E+01  0.31501366879E+02  0.43400727495E+02  0.00000000000E+00 0. -1.
         11    1    3    3    0    0  0.26094071973E+01 -0.25364759805E+01 -0.10327162833E+01  0.37827529003E+01  0.51100000000E-03 0. -1.
        -11    1    3    3    0    0  0.14055828701E+02  0.18954051403E+01 -0.25417586185E+02  0.29106916168E+02  0.51100000000E-03 0.  1.
         12    1    3    3    0    0  0.12240080500E+02 -0.68268415686E+01 -0.50510644114E+01  0.14897603436E+02  0.00000000000E+00 0. -1.
</event>
<event>
 7    1  0.2328615E-009  0.4778727E+02  0.7816164E-02  0.1312668E+00
        -11   -1    0    0    0    0  0.00000000000E+00  0.00000000000E+00  0.45593999997E+02  0.45594000000E+02  0.51100000000E-03 0.  1.
         11   -1    0    0    0    0 -0.00000000000E+00 -0.00000000000E+00 -0.45593999997E+02  0.45594000000E+02  0.51100000000E-03 0. -1.
    9900012    2    1    2    0    0  0.14536654535E+02 -0.40796769723E+02 -0.28164947862E+01  0.47787269732E+02  0.19999994016E+02 0.  0.
         12    1    1    2    0    0 -0.14536654535E+02  0.40796769723E+02  0.28164947862E+01  0.43400730268E+02  0.00000000000E+00 0. -1.
         11    1    3    3    0    0  0.91301287454E+00 -0.95338873437E+01 -0.71497068382E+01  0.11951857953E+02  0.51100000000E-03 0. -1.
        -11    1    3    3    0    0  0.59546847086E+01 -0.24898731049E+02  0.28262800624E+01  0.25756415454E+02  0.51100000000E-03 0.  1.
         12    1    3    3    0    0  0.76689569516E+01 -0.63641513312E+01  0.15069319896E+01  0.10078996325E+02  0.00000000000E+00 0. -1.
</event>
<event>
 7    1  0.2328615E-009  0.4778727E+02  0.7816164E-02  0.1312668E+00
        -11   -1    0    0    0    0  0.00000000000E+00  0.00000000000E+00  0.45593999997E+02  0.45594000000E+02  0.51100000000E-03 0.  1.
         11   -1    0    0    0    0 -0.00000000000E+00 -0.00000000000E+00 -0.45593999997E+02  0.45594000000E+02  0.51100000000E-03 0. -1.
    9900012    2    1    2    0    0  0.39585655158E+02 -0.92643915162E+00 -0.17769091966E+02  0.47787274048E+02  0.20000013697E+02 0.  0.
         12    1    1    2    0    0 -0.39585655158E+02  0.92643915162E+00  0.17769091966E+02  0.43400725952E+02  0.00000000000E+00 0. -1.
         11    1    3    3    0    0  0.44722800953E+01 -0.93883830777E+00 -0.34070568475E+00  0.45824433704E+01  0.51100000000E-03 0. -1.
        -11    1    3    3    0    0  0.35615865649E+02 -0.36396644388E+01 -0.15178569403E+02  0.38886064503E+02  0.51100000000E-03 0.  1.
        -12    1    3    3    0    0 -0.50249058551E+00  0.36520635950E+01 -0.22498168788E+01  0.43187661755E+01  0.00000000000E+00 0.  1.
</event>
<event>
 7    1  0.2328615E-009  0.4778727E+02  0.7816164E-02  0.1312668E+00
        -11   -1    0    0    0    0  0.00000000000E+00  0.00000000000E+00  0.45593999997E+02  0.45594000000E+02  0.51100000000E-03 0.  1.
         11   -1    0    0    0    0 -0.00000000000E+00 -0.00000000000E+00 -0.45593999997E+02  0.45594000000E+02  0.51100000000E-03 0. -1.
    9900012    2    1    2    0    0  0.89466804627E+01 -0.37582035546E+02  0.19778032841E+02  0.47787273391E+02  0.20000010701E+02 0.  0.
         12    1    1    2    0    0 -0.89466804627E+01  0.37582035546E+02 -0.19778032841E+02  0.43400726609E+02  0.00000000000E+00 0. -1.
         11    1    3    3    0    0 -0.29541054849E+01  0.40270120892E+00  0.33502550695E+01  0.44847649628E+01  0.51100000000E-03 0. -1.
        -11    1    3    3    0    0  0.38379013028E+01 -0.65377580345E+01  0.25763100730E+01  0.80068183682E+01  0.51100000000E-03 0.  1.
         12    1    3    3    0    0  0.80628846448E+01 -0.31446978720E+02  0.13851467699E+02  0.35295690060E+02  0.00000000000E+00 0. -1.
</event>
<event>
 7    1  0.2328615E-009  0.4778727E+02  0.7816164E-02  0.1312668E+00
        -11   -1    0    0    0    0  0.00000000000E+00  0.00000000000E+00  0.45593999997E+02  0.45594000000E+02  0.51100000000E-03 0.  1.
         11   -1    0    0    0    0 -0.00000000000E+00 -0.00000000000E+00 -0.45593999997E+02  0.45594000000E+02  0.51100000000E-03 0. -1.
    9900012    2    1    2    0    0 -0.40571320436E+01 -0.33458736926E+02  0.27343660170E+02  0.47787272488E+02  0.20000006580E+02 0.  0.
         12    1    1    2    0    0  0.40571320436E+01  0.33458736926E+02 -0.27343660170E+02  0.43400727512E+02  0.00000000000E+00 0. -1.
         11    1    3    3    0    0 -0.18491183608E+01 -0.96333891036E+01  0.74455195785E+01  0.12314917230E+02  0.51100000000E-03 0. -1.
        -11    1    3    3    0    0 -0.70105821447E+01 -0.71425467154E+01  0.13852145494E+02  0.17089358403E+02  0.51100000000E-03 0.  1.
         12    1    3    3    0    0  0.48025684619E+01 -0.16682801107E+02  0.60459950974E+01  0.18382996854E+02  0.00000000000E+00 0. -1.
</event>
<event>
 7    1  0.2328615E-009  0.4778727E+02  0.7816164E-02  0.1312668E+00
        -11   -1    0    0    0    0  0.00000000000E+00  0.00000000000E+00  0.45593999997E+02  0.45594000000E+02  0.51100000000E-03 0. -1.
         11   -1    0    0    0    0 -0.00000000000E+00 -0.00000000000E+00 -0.45593999997E+02  0.45594000000E+02  0.51100000000E-03 0.  1.
    9900012    2    1    2    0    0 -0.45327820130E+01  0.28155566845E+02 -0.32716070072E+02  0.47787270766E+02  0.19999998730E+02 0.  0.
         12    1    1    2    0    0  0.45327820130E+01 -0.28155566845E+02  0.32716070072E+02  0.43400729234E+02  0.00000000000E+00 0. -1.
         11    1    3    3    0    0  0.46243232643E+00  0.68404476758E+01 -0.15731322778E+02  0.17160422042E+02  0.51100000000E-03 0. -1.
        -11    1    3    3    0    0 -0.39898178674E+01  0.16721311206E+02 -0.18900576217E+02  0.25549024965E+02  0.51100000000E-03 0.  1.
         12    1    3    3    0    0 -0.10053964721E+01  0.45938079632E+01  0.19158289228E+01  0.50778237593E+01  0.00000000000E+00 0. -1.
</event>
<event>
 7    1  0.2328615E-009  0.4778728E+02  0.7816164E-02  0.1312668E+00
        -11   -1    0    0    0    0  0.00000000000E+00  0.00000000000E+00  0.45593999997E+02  0.45594000000E+02  0.51100000000E-03 0.  1.
         11   -1    0    0    0    0 -0.00000000000E+00 -0.00000000000E+00 -0.45593999997E+02  0.45594000000E+02  0.51100000000E-03 0. -1.
    9900012    2    1    2    0    0  0.19058989527E+02  0.38448361154E+02  0.64885403142E+01  0.47787277511E+02  0.20000029483E+02 0.  0.
         12    1    1    2    0    0 -0.19058989527E+02 -0.38448361154E+02 -0.64885403142E+01  0.43400722489E+02  0.00000000000E+00 0. -1.
         11    1    3    3    0    0  0.14123508391E+02  0.27756972124E+02  0.11635691901E+02  0.33246237637E+02  0.51100000000E-03 0.  1.
        -11    1    3    3    0    0 -0.19760863345E-01 -0.68110486051E+00  0.56382699427E+00  0.88441814959E+00  0.51100000000E-03 0. -1.
         12    1    3    3    0    0  0.49552419992E+01  0.11372493890E+02 -0.57109785816E+01  0.13656621724E+02  0.00000000000E+00 0. -1.
</event>
<event>
 7    1  0.2328615E-009  0.4778731E+02  0.7816164E-02  0.1312668E+00
        -11   -1    0    0    0    0  0.00000000000E+00  0.00000000000E+00  0.45593999997E+02  0.45594000000E+02  0.51100000000E-03 0.  1.
         11   -1    0    0    0    0 -0.00000000000E+00 -0.00000000000E+00 -0.45593999997E+02  0.45594000000E+02  0.51100000000E-03 0. -1.
    9900012    2    1    2    0    0  0.16467313613E+02 -0.38414758871E+02  0.11694187638E+02  0.47787307134E+02  0.20000164546E+02 0.  0.
         12    1    1    2    0    0 -0.16467313613E+02  0.38414758871E+02 -0.11694187638E+02  0.43400692866E+02  0.00000000000E+00 0. -1.
         11    1    3    3    0    0  0.18474275247E+01 -0.14832846897E+01 -0.22618392360E+01  0.32755211677E+01  0.51100000000E-03 0. -1.
        -11    1    3    3    0    0  0.86234241693E+01 -0.79163952458E+01 -0.12713431007E+00  0.11706789546E+02  0.51100000000E-03 0.  1.
        -12    1    3    3    0    0  0.59964619192E+01 -0.29015078935E+02  0.14083161184E+02  0.32804996420E+02  0.00000000000E+00 0.  1.
</event>
<event>
 7    1  0.2328615E-009  0.4778727E+02  0.7816164E-02  0.1312668E+00
        -11   -1    0    0    0    0  0.00000000000E+00  0.00000000000E+00  0.45593999997E+02  0.45594000000E+02  0.51100000000E-03 0.  1.
         11   -1    0    0    0    0 -0.00000000000E+00 -0.00000000000E+00 -0.45593999997E+02  0.45594000000E+02  0.51100000000E-03 0. -1.
    9900012    2    1    2    0    0 -0.42505202639E+02 -0.17381335515E+00  0.87692988777E+01  0.47787273448E+02  0.20000010958E+02 0.  0.
         12    1    1    2    0    0  0.42505202639E+02  0.17381335515E+00 -0.87692988777E+01  0.43400726552E+02  0.00000000000E+00 0. -1.
         11    1    3    3    0    0 -0.88692766270E+01  0.34469376895E+01  0.26200471085E+01  0.98696552338E+01  0.51100000000E-03 0. -1.
        -11    1    3    3    0    0 -0.34943682098E+02 -0.16091474911E+01  0.61561322774E+01  0.35518280351E+02  0.51100000000E-03 0.  1.
         12    1    3    3    0    0  0.13077560865E+01 -0.20116035536E+01 -0.68805082083E-02  0.23993378628E+01  0.00000000000E+00 0. -1.
</event>
<event>
 7    1  0.2328615E-009  0.4778727E+02  0.7816164E-02  0.1312668E+00
        -11   -1    0    0    0    0  0.00000000000E+00  0.00000000000E+00  0.45593999997E+02  0.45594000000E+02  0.51100000000E-03 0.  1.
         11   -1    0    0    0    0 -0.00000000000E+00 -0.00000000000E+00 -0.45593999997E+02  0.45594000000E+02  0.51100000000E-03 0. -1.
    9900012    2    1    2    0    0  0.22737653703E+02 -0.74497367419E+00  0.36960349302E+02  0.47787270718E+02  0.19999998510E+02 0.  0.
         12    1    1    2    0    0 -0.22737653703E+02  0.74497367419E+00 -0.36960349302E+02  0.43400729282E+02  0.00000000000E+00 0. -1.
         11    1    3    3    0    0  0.12148637050E+02 -0.36749233295E+00  0.21551642818E+02  0.24742630039E+02  0.51100000000E-03 0. -1.
        -11    1    3    3    0    0  0.73866396873E+00 -0.45925520422E+01  0.10029780189E+02  0.11055932779E+02  0.51100000000E-03 0.  1.
         12    1    3    3    0    0  0.98503526844E+01  0.42150707010E+01  0.53789262946E+01  0.11988707900E+02  0.00000000000E+00 0. -1.
</event>
<event>
 7    1  0.2328615E-009  0.4778727E+02  0.7816164E-02  0.1312668E+00
        -11   -1    0    0    0    0  0.00000000000E+00  0.00000000000E+00  0.45593999997E+02  0.45594000000E+02  0.51100000000E-03 0.  1.
         11   -1    0    0    0    0 -0.00000000000E+00 -0.00000000000E+00 -0.45593999997E+02  0.45594000000E+02  0.51100000000E-03 0. -1.
    9900012    2    1    2    0    0 -0.24820526052E+02  0.23211806737E+02  0.26995861074E+02  0.47787274193E+02  0.20000014355E+02 0.  0.
         12    1    1    2    0    0  0.24820526052E+02 -0.23211806737E+02 -0.26995861074E+02  0.43400725807E+02  0.00000000000E+00 0. -1.
         11    1    3    3    0    0 -0.38913705477E+01  0.19919038179E+01  0.58788962094E+01  0.73261085483E+01  0.51100000000E-03 0. -1.
        -11    1    3    3    0    0 -0.25340216744E+01  0.14798882003E+02  0.97951192882E+01  0.17926866333E+02  0.51100000000E-03 0.  1.
        -12    1    3    3    0    0 -0.18395133830E+02  0.64210209154E+01  0.11321845576E+02  0.22534299312E+02  0.00000000000E+00 0.  1.
</event>
<event>
 7    1  0.2328615E-009  0.4778727E+02  0.7816164E-02  0.1312668E+00
        -11   -1    0    0    0    0  0.00000000000E+00  0.00000000000E+00  0.45593999997E+02  0.45594000000E+02  0.51100000000E-03 0. -1.
         11   -1    0    0    0    0 -0.00000000000E+00 -0.00000000000E+00 -0.45593999997E+02  0.45594000000E+02  0.51100000000E-03 0.  1.
    9900012    2    1    2    0    0  0.29915905300E+02 -0.80123538770E+01 -0.30405001932E+02  0.47787270202E+02  0.19999996158E+02 0.  0.
         12    1    1    2    0    0 -0.29915905300E+02  0.80123538770E+01  0.30405001932E+02  0.43400729798E+02  0.00000000000E+00 0. -1.
         11    1    3    3    0    0  0.11407812119E+02  0.31090417763E+01 -0.30868164852E+01  0.12220178165E+02  0.51100000000E-03 0. -1.
        -11    1    3    3    0    0  0.10399919236E+02 -0.20720916780E+01 -0.11970825714E+02  0.15992265398E+02  0.51100000000E-03 0.  1.
         12    1    3    3    0    0  0.81081739445E+01 -0.90493039753E+01 -0.15347359733E+02  0.19574826638E+02  0.00000000000E+00 0. -1.
</event>
<event>
 7    1  0.2328615E-009  0.4778727E+02  0.7816164E-02  0.1312668E+00
        -11   -1    0    0    0    0  0.00000000000E+00  0.00000000000E+00  0.45593999997E+02  0.45594000000E+02  0.51100000000E-03 0.  1.
         11   -1    0    0    0    0 -0.00000000000E+00 -0.00000000000E+00 -0.45593999997E+02  0.45594000000E+02  0.51100000000E-03 0. -1.
    9900012    2    1    2    0    0  0.15777252152E+02 -0.26433895647E+02  0.30593315865E+02  0.47787268438E+02  0.19999988114E+02 0.  0.
         12    1    1    2    0    0 -0.15777252152E+02  0.26433895647E+02 -0.30593315865E+02  0.43400731562E+02  0.00000000000E+00 0. -1.
         11    1    3    3    0    0  0.62716411637E+01 -0.21093333455E+02  0.20658565893E+02  0.30183415051E+02  0.51100000000E-03 0. -1.
        -11    1    3    3    0    0  0.10780000948E+01 -0.59264814947E+01  0.33484241641E+01  0.68918220925E+01  0.51100000000E-03 0.  1.
        -12    1    3    3    0    0  0.84276108935E+01  0.58591930220E+00  0.65863258071E+01  0.10712031294E+02  0.00000000000E+00 0.  1.
</event>
<event>
 7    1  0.2328615E-009  0.4778728E+02  0.7816164E-02  0.1312668E+00
        -11   -1    0    0    0    0  0.00000000000E+00  0.00000000000E+00  0.45593999997E+02  0.45594000000E+02  0.51100000000E-03 0.  1.
         11   -1    0    0    0    0 -0.00000000000E+00 -0.00000000000E+00 -0.45593999997E+02  0.45594000000E+02  0.51100000000E-03 0. -1.
    9900012    2    1    2    0    0  0.15290895652E+02  0.14563039619E+02  0.37917395811E+02  0.47787279754E+02  0.20000039709E+02 0.  0.
         12    1    1    2    0    0 -0.15290895652E+02 -0.14563039619E+02 -0.37917395811E+02  0.43400720246E+02  0.00000000000E+00 0. -1.
         11    1    3    3    0    0  0.29667003565E+01  0.10131696441E+02  0.86407480475E+01  0.13642401213E+02  0.51100000000E-03 0. -1.
        -11    1    3    3    0    0 -0.15931024909E+01 -0.68876498952E+00  0.55722517629E+00  0.18228749040E+01  0.51100000000E-03 0.  1.
        -12    1    3    3    0    0  0.13917297787E+02  0.51201081671E+01  0.28719422587E+02  0.32322003637E+02  0.00000000000E+00 0.  1.
</event>
<event>
 7    1  0.2328615E-009  0.4778727E+02  0.7816164E-02  0.1312668E+00
        -11   -1    0    0    0    0  0.00000000000E+00  0.00000000000E+00  0.45593999997E+02  0.45594000000E+02  0.51100000000E-03 0.  1.
         11   -1    0    0    0    0 -0.00000000000E+00 -0.00000000000E+00 -0.45593999997E+02  0.45594000000E+02  0.51100000000E-03 0. -1.
    9900012    2    1    2    0    0  0.33185940651E+01  0.43247513359E+02 -0.15043017842E+01  0.47787269566E+02  0.19999993259E+02 0.  0.
         12    1    1    2    0    0 -0.33185940651E+01 -0.43247513359E+02  0.15043017842E+01  0.43400730434E+02  0.00000000000E+00 0. -1.
         11    1    3    3    0    0  0.57684938821E+01  0.35489183901E+01  0.25764935783E+00  0.67776638202E+01  0.51100000000E-03 0.  1.
        -11    1    3    3    0    0  0.87532991793E-01  0.11977403906E+02  0.39115621798E+01  0.12600245446E+02  0.51100000000E-03 0. -1.
        -12    1    3    3    0    0 -0.25374328088E+01  0.27721191064E+02 -0.56735133218E+01  0.28409360300E+02  0.00000000000E+00 0.  1.
</event>
<event>
 7    1  0.2328615E-009  0.4778727E+02  0.7816164E-02  0.1312668E+00
        -11   -1    0    0    0    0  0.00000000000E+00  0.00000000000E+00  0.45593999997E+02  0.45594000000E+02  0.51100000000E-03 0.  1.
         11   -1    0    0    0    0 -0.00000000000E+00 -0.00000000000E+00 -0.45593999997E+02  0.45594000000E+02  0.51100000000E-03 0. -1.
    9900012    2    1    2    0    0  0.37136004608E+02  0.22068830147E+02  0.41841589495E+01  0.47787270877E+02  0.19999999237E+02 0.  0.
         12    1    1    2    0    0 -0.37136004608E+02 -0.22068830147E+02 -0.41841589495E+01  0.43400729123E+02  0.00000000000E+00 0. -1.
         11    1    3    3    0    0  0.22730591244E+02  0.15221149141E+02  0.41859904134E+00  0.27359429543E+02  0.51100000000E-03 0. -1.
        -11    1    3    3    0    0  0.11734963864E+02  0.84015785792E+01  0.69258173231E+01  0.16008211810E+02  0.51100000000E-03 0.  1.
         12    1    3    3    0    0  0.26704494999E+01 -0.15538975737E+01 -0.31602574149E+01  0.44196295240E+01  0.00000000000E+00 0. -1.
</event>
<event>
 7    1  0.2328615E-009  0.4778728E+02  0.7816164E-02  0.1312668E+00
        -11   -1    0    0    0    0  0.00000000000E+00  0.00000000000E+00  0.45593999997E+02  0.45594000000E+02  0.51100000000E-03 0. -1.
         11   -1    0    0    0    0 -0.00000000000E+00 -0.00000000000E+00 -0.45593999997E+02  0.45594000000E+02  0.51100000000E-03 0.  1.
    9900012    2    1    2    0    0  0.27659384928E+02 -0.26961443802E+02 -0.19790449575E+02  0.47787275111E+02  0.20000018541E+02 0.  0.
         12    1    1    2    0    0 -0.27659384928E+02  0.26961443802E+02  0.19790449575E+02  0.43400724889E+02  0.00000000000E+00 0. -1.
         11    1    3    3    0    0  0.37321244524E+01 -0.77764700373E+01 -0.10532103868E+02  0.13613502537E+02  0.51100000000E-03 0. -1.
        -11    1    3    3    0    0  0.63130883000E+01 -0.11426134656E+02 -0.69487357157E+01  0.14788392928E+02  0.51100000000E-03 0.  1.
         12    1    3    3    0    0  0.17614172175E+02 -0.77588391086E+01 -0.23096099914E+01  0.19385379647E+02  0.00000000000E+00 0. -1.
</event>
<event>
 7    1  0.2328615E-009  0.4778727E+02  0.7816164E-02  0.1312668E+00
        -11   -1    0    0    0    0  0.00000000000E+00  0.00000000000E+00  0.45593999997E+02  0.45594000000E+02  0.51100000000E-03 0.  1.
         11   -1    0    0    0    0 -0.00000000000E+00 -0.00000000000E+00 -0.45593999997E+02  0.45594000000E+02  0.51100000000E-03 0. -1.
    9900012    2    1    2    0    0  0.82272860584E+00 -0.27858169391E+02  0.33269638066E+02  0.47787270729E+02  0.19999998562E+02 0.  0.
         12    1    1    2    0    0 -0.82272860584E+00  0.27858169391E+02 -0.33269638066E+02  0.43400729271E+02  0.00000000000E+00 0. -1.
         11    1    3    3    0    0  0.12394216568E+01 -0.18319844689E+01  0.89441493873E+00  0.23858565509E+01  0.51100000000E-03 0. -1.
        -11    1    3    3    0    0 -0.25271910172E+01 -0.18179233185E+02  0.32443455396E+02  0.37275313706E+02  0.51100000000E-03 0.  1.
        -12    1    3    3    0    0  0.21104979663E+01 -0.78469517376E+01 -0.68232268157E-01  0.81261004719E+01  0.00000000000E+00 0.  1.
</event>
<event>
 7    1  0.2328615E-009  0.4778727E+02  0.7816164E-02  0.1312668E+00
        -11   -1    0    0    0    0  0.00000000000E+00  0.00000000000E+00  0.45593999997E+02  0.45594000000E+02  0.51100000000E-03 0.  1.
         11   -1    0    0    0    0 -0.00000000000E+00 -0.00000000000E+00 -0.45593999997E+02  0.45594000000E+02  0.51100000000E-03 0. -1.
    9900012    2    1    2    0    0  0.38560183739E+02 -0.19134335754E+02  0.55328812884E+01  0.47787270166E+02  0.19999995995E+02 0.  0.
         12    1    1    2    0    0 -0.38560183739E+02  0.19134335754E+02 -0.55328812884E+01  0.43400729834E+02  0.00000000000E+00 0. -1.
         11    1    3    3    0    0 -0.12821059265E+01  0.44136082115E+00  0.35250423954E+00  0.14010190866E+01  0.51100000000E-03 0. -1.
        -11    1    3    3    0    0  0.42845964807E+01 -0.70222699130E+01  0.24295408072E+01  0.85774536156E+01  0.51100000000E-03 0.  1.
        -12    1    3    3    0    0  0.35557693185E+02 -0.12553426662E+02  0.27508362417E+01  0.37808797464E+02  0.00000000000E+00 0.  1.
</event>
<event>
 7    1  0.2328615E-009  0.4778727E+02  0.7816164E-02  0.1312668E+00
        -11   -1    0    0    0    0  0.00000000000E+00  0.00000000000E+00  0.45593999997E+02  0.45594000000E+02  0.51100000000E-03 0.  1.
         11   -1    0    0    0    0 -0.00000000000E+00 -0.00000000000E+00 -0.45593999997E+02  0.45594000000E+02  0.51100000000E-03 0. -1.
    9900012    2    1    2    0    0 -0.33949090603E+02 -0.14729304997E+02  0.22674434804E+02  0.47787272216E+02  0.20000005341E+02 0.  0.
         12    1    1    2    0    0  0.33949090603E+02  0.14729304997E+02 -0.22674434804E+02  0.43400727784E+02  0.00000000000E+00 0. -1.
         11    1    3    3    0    0 -0.73180578630E+01 -0.15770821579E+01  0.71371836068E+01  0.10343140196E+02  0.51100000000E-03 0. -1.
        -11    1    3    3    0    0 -0.28090354446E+02 -0.14683462864E+02  0.13325554897E+02  0.34383753550E+02  0.51100000000E-03 0.  1.
         12    1    3    3    0    0  0.14593217056E+01  0.15312400246E+01  0.22116963008E+01  0.30603784701E+01  0.00000000000E+00 0. -1.
</event>
<event>
 7    1  0.2328615E-009  0.4778727E+02  0.7816164E-02  0.1312668E+00
        -11   -1    0    0    0    0  0.00000000000E+00  0.00000000000E+00  0.45593999997E+02  0.45594000000E+02  0.51100000000E-03 0. -1.
         11   -1    0    0    0    0 -0.00000000000E+00 -0.00000000000E+00 -0.45593999997E+02  0.45594000000E+02  0.51100000000E-03 0.  1.
    9900012    2    1    2    0    0 -0.28551666148E+02 -0.32461310809E+02 -0.38325980442E+01  0.47787272506E+02  0.20000006662E+02 0.  0.
         12    1    1    2    0    0  0.28551666148E+02  0.32461310809E+02  0.38325980442E+01  0.43400727494E+02  0.00000000000E+00 0. -1.
         11    1    3    3    0    0 -0.12203850705E+02 -0.16428550777E+02 -0.60913564908E+01  0.21352655030E+02  0.51100000000E-03 0. -1.
        -11    1    3    3    0    0 -0.99983193616E+01 -0.33453968782E+01 -0.35201936135E+01  0.11115297282E+02  0.51100000000E-03 0.  1.
         12    1    3    3    0    0 -0.63494960811E+01 -0.12687363154E+02  0.57789520601E+01  0.15319320194E+02  0.00000000000E+00 0. -1.
</event>
<event>
 7    1  0.2328615E-009  0.4778725E+02  0.7816164E-02  0.1312668E+00
        -11   -1    0    0    0    0  0.00000000000E+00  0.00000000000E+00  0.45593999997E+02  0.45594000000E+02  0.51100000000E-03 0.  1.
         11   -1    0    0    0    0 -0.00000000000E+00 -0.00000000000E+00 -0.45593999997E+02  0.45594000000E+02  0.51100000000E-03 0. -1.
    9900012    2    1    2    0    0 -0.16246194844E+02 -0.39268843296E+02  0.88115739669E+01  0.47787254194E+02  0.19999923174E+02 0.  0.
         12    1    1    2    0    0  0.16246194844E+02  0.39268843296E+02 -0.88115739669E+01  0.43400745806E+02  0.00000000000E+00 0. -1.
         11    1    3    3    0    0 -0.34694976304E+01 -0.24487247604E+02  0.29995991863E+01  0.24913054903E+02  0.51100000000E-03 0. -1.
        -11    1    3    3    0    0  0.38381575298E+00 -0.36916326149E+01  0.41753289964E+01  0.55864871239E+01  0.51100000000E-03 0.  1.
         12    1    3    3    0    0 -0.13160512966E+02 -0.11089963077E+02  0.16366457841E+01  0.17287712168E+02  0.00000000000E+00 0. -1.
</event>
<event>
 7    1  0.2328615E-009  0.4778727E+02  0.7816164E-02  0.1312668E+00
        -11   -1    0    0    0    0  0.00000000000E+00  0.00000000000E+00  0.45593999997E+02  0.45594000000E+02  0.51100000000E-03 0.  1.
         11   -1    0    0    0    0 -0.00000000000E+00 -0.00000000000E+00 -0.45593999997E+02  0.45594000000E+02  0.51100000000E-03 0. -1.
    9900012    2    1    2    0    0  0.16610645675E+02  0.40071629402E+02  0.14050113557E+01  0.47787273168E+02  0.20000009681E+02 0.  0.
         12    1    1    2    0    0 -0.16610645675E+02 -0.40071629402E+02 -0.14050113557E+01  0.43400726832E+02  0.00000000000E+00 0. -1.
         11    1    3    3    0    0 -0.31465707112E+00  0.51094521999E+00 -0.31391903061E+01  0.31960272417E+01  0.51100000000E-03 0. -1.
        -11    1    3    3    0    0 -0.11134123536E+01  0.24118176046E+01 -0.11667179775E+01  0.29013414703E+01  0.51100000000E-03 0.  1.
        -12    1    3    3    0    0  0.18038715100E+02  0.37148866577E+02  0.57109196393E+01  0.41689904456E+02  0.00000000000E+00 0.  1.
</event>
<event>
 7    1  0.2328615E-009  0.4778726E+02  0.7816164E-02  0.1312668E+00
        -11   -1    0    0    0    0  0.00000000000E+00  0.00000000000E+00  0.45593999997E+02  0.45594000000E+02  0.51100000000E-03 0. -1.
         11   -1    0    0    0    0 -0.00000000000E+00 -0.00000000000E+00 -0.45593999997E+02  0.45594000000E+02  0.51100000000E-03 0.  1.
    9900012    2    1    2    0    0  0.19180254023E+02 -0.72386061723E+01 -0.38253687061E+02  0.47787261096E+02  0.19999954639E+02 0.  0.
         12    1    1    2    0    0 -0.19180254023E+02  0.72386061723E+01  0.38253687061E+02  0.43400738904E+02  0.00000000000E+00 0. -1.
         11    1    3    3    0    0  0.12157621216E+01 -0.45946500938E+01 -0.15556708136E+02  0.16266531754E+02  0.51100000000E-03 0.  1.
        -11    1    3    3    0    0  0.25534269416E+00  0.81471195780E+00 -0.85493811454E+01  0.85919074539E+01  0.51100000000E-03 0. -1.
         12    1    3    3    0    0  0.17709149207E+02 -0.34586680364E+01 -0.14147597780E+02  0.22928821888E+02  0.00000000000E+00 0. -1.
</event>
<event>
 7    1  0.2328615E-009  0.4778727E+02  0.7816164E-02  0.1312668E+00
        -11   -1    0    0    0    0  0.00000000000E+00  0.00000000000E+00  0.45593999997E+02  0.45594000000E+02  0.51100000000E-03 0.  1.
         11   -1    0    0    0    0 -0.00000000000E+00 -0.00000000000E+00 -0.45593999997E+02  0.45594000000E+02  0.51100000000E-03 0. -1.
    9900012    2    1    2    0    0 -0.25753536316E+02 -0.49374103941E+01  0.34583240527E+02  0.47787272131E+02  0.20000004956E+02 0.  0.
         12    1    1    2    0    0  0.25753536316E+02  0.49374103941E+01 -0.34583240527E+02  0.43400727869E+02  0.00000000000E+00 0. -1.
         11    1    3    3    0    0 -0.36765492066E+01  0.29013536290E+01  0.12977401733E+02  0.13796659847E+02  0.51100000000E-03 0. -1.
        -11    1    3    3    0    0 -0.44781979871E+01 -0.67189979317E+01  0.10115576419E+02  0.12943109247E+02  0.51100000000E-03 0.  1.
         12    1    3    3    0    0 -0.17598789122E+02 -0.11197660914E+01  0.11490262375E+02  0.21047503038E+02  0.00000000000E+00 0. -1.
</event>
<event>
 7    1  0.2857432E-009  0.4778727E+02  0.7816164E-02  0.1312668E+00
        -11   -1    0    0    0    0  0.00000000000E+00  0.00000000000E+00  0.45593999997E+02  0.45594000000E+02  0.51100000000E-03 0.  1.
         11   -1    0    0    0    0 -0.00000000000E+00 -0.00000000000E+00 -0.45593999997E+02  0.45594000000E+02  0.51100000000E-03 0. -1.
    9900012    2    1    2    0    0  0.57932465564E+01  0.41115245109E+02 -0.12633213964E+02  0.47787272114E+02  0.20000004875E+02 0.  0.
         12    1    1    2    0    0 -0.57932465564E+01 -0.41115245109E+02  0.12633213964E+02  0.43400727886E+02  0.00000000000E+00 0. -1.
         11    1    3    3    0    0 -0.53990091233E+00 -0.44551660332E+00 -0.29167592196E+01  0.29995770778E+01  0.51100000000E-03 0. -1.
        -11    1    3    3    0    0  0.60316635119E+00  0.17539952284E+02 -0.97830488558E+01  0.20092829093E+02  0.51100000000E-03 0.  1.
        -12    1    3    3    0    0  0.57299811175E+01  0.24020809428E+02  0.66594111574E-01  0.24694865943E+02  0.00000000000E+00 0.  1.
</event>
<event>
 7    1  0.2328615E-009  0.4778730E+02  0.7816164E-02  0.1312668E+00
        -11   -1    0    0    0    0  0.00000000000E+00  0.00000000000E+00  0.45593999997E+02  0.45594000000E+02  0.51100000000E-03 0. -1.
         11   -1    0    0    0    0 -0.00000000000E+00 -0.00000000000E+00 -0.45593999997E+02  0.45594000000E+02  0.51100000000E-03 0.  1.
    9900012    2    1    2    0    0  0.38171423181E+02  0.48948282042E+00 -0.20647612288E+02  0.47787296846E+02  0.20000117637E+02 0.  0.
         12    1    1    2    0    0 -0.38171423181E+02 -0.48948282042E+00  0.20647612288E+02  0.43400703154E+02  0.00000000000E+00 0. -1.
         11    1    3    3    0    0  0.19756693037E+02 -0.23205245012E+01 -0.16314907801E+02  0.25727183494E+02  0.51100000000E-03 0.  1.
        -11    1    3    3    0    0  0.18812642010E+01 -0.29170152497E+01 -0.28662526920E+01  0.45015039394E+01  0.51100000000E-03 0. -1.
         12    1    3    3    0    0  0.16533465943E+02  0.57270225713E+01 -0.14664517951E+01  0.17558609412E+02  0.00000000000E+00 0. -1.
</event>
<event>
 7    1  0.2328615E-009  0.4778727E+02  0.7816164E-02  0.1312668E+00
        -11   -1    0    0    0    0  0.00000000000E+00  0.00000000000E+00  0.45593999997E+02  0.45594000000E+02  0.51100000000E-03 0. -1.
         11   -1    0    0    0    0 -0.00000000000E+00 -0.00000000000E+00 -0.45593999997E+02  0.45594000000E+02  0.51100000000E-03 0.  1.
    9900012    2    1    2    0    0  0.39991642089E+02 -0.93858586101E+01 -0.14007053727E+02  0.47787270364E+02  0.19999996897E+02 0.  0.
         12    1    1    2    0    0 -0.39991642089E+02  0.93858586101E+01  0.14007053727E+02  0.43400729636E+02  0.00000000000E+00 0. -1.
         11    1    3    3    0    0  0.48974484060E+01 -0.42492595238E+01 -0.11666112100E+01  0.65880338013E+01  0.51100000000E-03 0. -1.
        -11    1    3    3    0    0 -0.29067031511E+00  0.22397980860E+01 -0.29681445392E+01  0.37297542768E+01  0.51100000000E-03 0.  1.
         12    1    3    3    0    0  0.35384863998E+02 -0.73763971723E+01 -0.98722979781E+01  0.37469482286E+02  0.00000000000E+00 0. -1.
</event>
<event>
 7    1  0.2328615E-009  0.4778727E+02  0.7816164E-02  0.1312668E+00
        -11   -1    0    0    0    0  0.00000000000E+00  0.00000000000E+00  0.45593999997E+02  0.45594000000E+02  0.51100000000E-03 0.  1.
         11   -1    0    0    0    0 -0.00000000000E+00 -0.00000000000E+00 -0.45593999997E+02  0.45594000000E+02  0.51100000000E-03 0. -1.
    9900012    2    1    2    0    0  0.65782089351E+01  0.25335815178E+02  0.34618587789E+02  0.47787274384E+02  0.20000015226E+02 0.  0.
         12    1    1    2    0    0 -0.65782089351E+01 -0.25335815178E+02 -0.34618587789E+02  0.43400725616E+02  0.00000000000E+00 0. -1.
         11    1    3    3    0    0  0.90733621597E+01  0.56557810092E+01  0.92027234797E+01  0.14106873481E+02  0.51100000000E-03 0. -1.
        -11    1    3    3    0    0  0.32472331390E+01  0.11069493221E+02  0.15718964405E+02  0.19497795912E+02  0.51100000000E-03 0.  1.
         12    1    3    3    0    0 -0.57423863636E+01  0.86105409474E+01  0.96968999047E+01  0.14182604991E+02  0.00000000000E+00 0. -1.
</event>
<event>
 7    1  0.2328615E-009  0.4778727E+02  0.7816164E-02  0.1312668E+00
        -11   -1    0    0    0    0  0.00000000000E+00  0.00000000000E+00  0.45593999997E+02  0.45594000000E+02  0.51100000000E-03 0.  1.
         11   -1    0    0    0    0 -0.00000000000E+00 -0.00000000000E+00 -0.45593999997E+02  0.45594000000E+02  0.51100000000E-03 0. -1.
    9900012    2    1    2    0    0  0.38762872633E+02 -0.31389929286E+01  0.19266801393E+02  0.47787271811E+02  0.20000003497E+02 0.  0.
         12    1    1    2    0    0 -0.38762872633E+02  0.31389929286E+01 -0.19266801393E+02  0.43400728189E+02  0.00000000000E+00 0. -1.
         11    1    3    3    0    0  0.10426919442E+02  0.38217017525E+01  0.28768400273E+01  0.11471802916E+02  0.51100000000E-03 0. -1.
        -11    1    3    3    0    0  0.27659247462E+02 -0.38448166011E+01  0.17481019074E+02  0.32945449048E+02  0.51100000000E-03 0.  1.
         12    1    3    3    0    0  0.67670572967E+00 -0.31158780799E+01 -0.10910577082E+01  0.33700198481E+01  0.00000000000E+00 0. -1.
</event>
<event>
 7    1  0.2328615E-009  0.4778726E+02  0.7816164E-02  0.1312668E+00
        -11   -1    0    0    0    0  0.00000000000E+00  0.00000000000E+00  0.45593999997E+02  0.45594000000E+02  0.51100000000E-03 0.  1.
         11   -1    0    0    0    0 -0.00000000000E+00 -0.00000000000E+00 -0.45593999997E+02  0.45594000000E+02  0.51100000000E-03 0. -1.
    9900012    2    1    2    0    0 -0.39305270639E+02 -0.13825719096E+02 -0.12147807013E+02  0.47787262405E+02  0.19999960610E+02 0.  0.
         12    1    1    2    0    0  0.39305270639E+02  0.13825719096E+02  0.12147807013E+02  0.43400737595E+02  0.00000000000E+00 0. -1.
         11    1    3    3    0    0 -0.12798477225E+02 -0.24111186611E+00 -0.52988086963E+00  0.12811710589E+02  0.51100000000E-03 0. -1.
        -11    1    3    3    0    0 -0.16110761841E+02 -0.31712346537E+00 -0.50647239602E+01  0.16891081772E+02  0.51100000000E-03 0.  1.
         12    1    3    3    0    0 -0.10396031573E+02 -0.13267483765E+02 -0.65532021833E+01  0.18084470044E+02  0.00000000000E+00 0. -1.
</event>
<event>
 7    1  0.2328615E-009  0.4778727E+02  0.7816164E-02  0.1312668E+00
        -11   -1    0    0    0    0  0.00000000000E+00  0.00000000000E+00  0.45593999997E+02  0.45594000000E+02  0.51100000000E-03 0. -1.
         11   -1    0    0    0    0 -0.00000000000E+00 -0.00000000000E+00 -0.45593999997E+02  0.45594000000E+02  0.51100000000E-03 0.  1.
    9900012    2    1    2    0    0  0.24943786772E+02 -0.13606714062E+02 -0.32806828258E+02  0.47787272513E+02  0.20000006694E+02 0.  0.
         12    1    1    2    0    0 -0.24943786772E+02  0.13606714062E+02  0.32806828258E+02  0.43400727487E+02  0.00000000000E+00 0. -1.
         11    1    3    3    0    0  0.37178042181E+01  0.27398168216E+01 -0.80239254677E+01  0.92580799625E+01  0.51100000000E-03 0. -1.
        -11    1    3    3    0    0  0.54022245996E+01 -0.30664070810E+01  0.69333383758E-01  0.62122210513E+01  0.51100000000E-03 0.  1.
         12    1    3    3    0    0  0.15823757954E+02 -0.13280123803E+02 -0.24852236174E+02  0.32316971499E+02  0.00000000000E+00 0. -1.
</event>
<event>
 7    1  0.2328615E-009  0.4778727E+02  0.7816164E-02  0.1312668E+00
        -11   -1    0    0    0    0  0.00000000000E+00  0.00000000000E+00  0.45593999997E+02  0.45594000000E+02  0.51100000000E-03 0. -1.
         11   -1    0    0    0    0 -0.00000000000E+00 -0.00000000000E+00 -0.45593999997E+02  0.45594000000E+02  0.51100000000E-03 0.  1.
    9900012    2    1    2    0    0  0.34832446925E+02 -0.23386405428E+02  0.11108564767E+02  0.47787268107E+02  0.19999986609E+02 0.  0.
         12    1    1    2    0    0 -0.34832446925E+02  0.23386405428E+02 -0.11108564767E+02  0.43400731893E+02  0.00000000000E+00 0. -1.
         11    1    3    3    0    0  0.14124117109E+02 -0.10210023181E+01  0.23584923598E+01  0.14356030660E+02  0.51100000000E-03 0. -1.
        -11    1    3    3    0    0  0.51705961162E+01 -0.30777914072E+01  0.60233286144E+01  0.85140091614E+01  0.51100000000E-03 0.  1.
         12    1    3    3    0    0  0.15537733699E+02 -0.19287611703E+02  0.27267437932E+01  0.24917228285E+02  0.00000000000E+00 0. -1.
</event>
<event>
 7    1  0.2328615E-009  0.4778732E+02  0.7816164E-02  0.1312668E+00
        -11   -1    0    0    0    0  0.00000000000E+00  0.00000000000E+00  0.45593999997E+02  0.45594000000E+02  0.51100000000E-03 0.  1.
         11   -1    0    0    0    0 -0.00000000000E+00 -0.00000000000E+00 -0.45593999997E+02  0.45594000000E+02  0.51100000000E-03 0. -1.
    9900012    2    1    2    0    0 -0.23737361784E+02 -0.32323550330E+02  0.16593514485E+02  0.47787320589E+02  0.20000225893E+02 0.  0.
         12    1    1    2    0    0  0.23737361784E+02  0.32323550330E+02 -0.16593514485E+02  0.43400679411E+02  0.00000000000E+00 0. -1.
         11    1    3    3    0    0  0.17254095386E+01  0.29269989867E+00  0.14614687246E+01  0.22800443857E+01  0.51100000000E-03 0. -1.
        -11    1    3    3    0    0 -0.10430629705E+02 -0.52114729451E+01  0.42408184811E+01  0.12407337666E+02  0.51100000000E-03 0.  1.
        -12    1    3    3    0    0 -0.15032141618E+02 -0.27404777283E+02  0.10891227279E+02  0.33099938537E+02  0.00000000000E+00 0.  1.
</event>
<event>
 7    1  0.2328615E-009  0.4778728E+02  0.7816164E-02  0.1312668E+00
        -11   -1    0    0    0    0  0.00000000000E+00  0.00000000000E+00  0.45593999997E+02  0.45594000000E+02  0.51100000000E-03 0. -1.
         11   -1    0    0    0    0 -0.00000000000E+00 -0.00000000000E+00 -0.45593999997E+02  0.45594000000E+02  0.51100000000E-03 0.  1.
    9900012    2    1    2    0    0  0.10402894066E+02 -0.40162218900E+02 -0.12743557492E+02  0.47787282385E+02  0.20000051707E+02 0.  0.
         12    1    1    2    0    0 -0.10402894066E+02  0.40162218900E+02  0.12743557492E+02  0.43400717615E+02  0.00000000000E+00 0. -1.
         11    1    3    3    0    0 -0.19433521229E+00 -0.18770625610E+02  0.37596555859E+00  0.18775396197E+02  0.51100000000E-03 0. -1.
        -11    1    3    3    0    0  0.45426075465E+01 -0.18216654312E+02 -0.77181687271E+01  0.20299061713E+02  0.51100000000E-03 0.  1.
        -12    1    3    3    0    0  0.60546217317E+01 -0.31749389775E+01 -0.54013543230E+01  0.87128244759E+01  0.00000000000E+00 0.  1.
</event>
<event>
 7    1  0.2328615E-009  0.4778727E+02  0.7816164E-02  0.1312668E+00
        -11   -1    0    0    0    0  0.00000000000E+00  0.00000000000E+00  0.45593999997E+02  0.45594000000E+02  0.51100000000E-03 0.  1.
         11   -1    0    0    0    0 -0.00000000000E+00 -0.00000000000E+00 -0.45593999997E+02  0.45594000000E+02  0.51100000000E-03 0. -1.
    9900012    2    1    2    0    0  0.34107539779E+00  0.34024637554E+01  0.43265813172E+02  0.47787266349E+02  0.19999978590E+02 0.  0.
         12    1    1    2    0    0 -0.34107539779E+00 -0.34024637554E+01 -0.43265813172E+02  0.43400733651E+02  0.00000000000E+00 0. -1.
         11    1    3    3    0    0 -0.35975215645E+00 -0.31228851809E+01  0.17284907920E+01  0.35874105071E+01  0.51100000000E-03 0. -1.
        -11    1    3    3    0    0 -0.39044466400E+01 -0.87451600137E+00  0.26650862206E+02  0.26949544307E+02  0.51100000000E-03 0.  1.
        -12    1    3    3    0    0  0.46052741943E+01  0.73998649377E+01  0.14886460175E+02  0.17250311534E+02  0.00000000000E+00 0.  1.
</event>
<event>
 7    1  0.2328615E-009  0.4778728E+02  0.7816164E-02  0.1312668E+00
        -11   -1    0    0    0    0  0.00000000000E+00  0.00000000000E+00  0.45593999997E+02  0.45594000000E+02  0.51100000000E-03 0.  1.
         11   -1    0    0    0    0 -0.00000000000E+00 -0.00000000000E+00 -0.45593999997E+02  0.45594000000E+02  0.51100000000E-03 0. -1.
    9900012    2    1    2    0    0  0.63140487801E+01 -0.55731189269E+01  0.42575763544E+02  0.47787279868E+02  0.20000040232E+02 0.  0.
         12    1    1    2    0    0 -0.63140487801E+01  0.55731189269E+01 -0.42575763544E+02  0.43400720132E+02  0.00000000000E+00 0. -1.
         11    1    3    3    0    0 -0.34516347671E+01 -0.30835097744E+01  0.22382950537E+02  0.22856471515E+02  0.51100000000E-03 0. -1.
        -11    1    3    3    0    0 -0.91891733064E+00  0.41021922959E+00  0.94528555643E+01  0.95062699024E+01  0.51100000000E-03 0.  1.
         12    1    3    3    0    0  0.10684600878E+02 -0.28998283821E+01  0.10739957443E+02  0.15424538451E+02  0.00000000000E+00 0. -1.
</event>
<event>
 7    1  0.2328615E-009  0.4778727E+02  0.7816164E-02  0.1312668E+00
        -11   -1    0    0    0    0  0.00000000000E+00  0.00000000000E+00  0.45593999997E+02  0.45594000000E+02  0.51100000000E-03 0. -1.
         11   -1    0    0    0    0 -0.00000000000E+00 -0.00000000000E+00 -0.45593999997E+02  0.45594000000E+02  0.51100000000E-03 0.  1.
    9900012    2    1    2    0    0  0.31769914199E+02  0.25950641878E+02  0.14172508716E+02  0.47787271142E+02  0.20000000446E+02 0.  0.
         12    1    1    2    0    0 -0.31769914199E+02 -0.25950641878E+02 -0.14172508716E+02  0.43400728858E+02  0.00000000000E+00 0. -1.
         11    1    3    3    0    0  0.56078327966E+01  0.93124832655E+01  0.74571679780E+01  0.13182544813E+02  0.51100000000E-03 0. -1.
        -11    1    3    3    0    0  0.18449446205E+02  0.17456156057E+02  0.82367895010E+01  0.26701014046E+02  0.51100000000E-03 0.  1.
         12    1    3    3    0    0  0.77126351971E+01 -0.81799744452E+00 -0.15214487633E+01  0.79037122824E+01  0.00000000000E+00 0. -1.
</event>
<event>
 7    1  0.2328615E-009  0.4778727E+02  0.7816164E-02  0.1312668E+00
        -11   -1    0    0    0    0  0.00000000000E+00  0.00000000000E+00  0.45593999997E+02  0.45594000000E+02  0.51100000000E-03 0.  1.
         11   -1    0    0    0    0 -0.00000000000E+00 -0.00000000000E+00 -0.45593999997E+02  0.45594000000E+02  0.51100000000E-03 0. -1.
    9900012    2    1    2    0    0 -0.18238296077E+02 -0.26779626262E+02  0.28876282622E+02  0.47787268156E+02  0.19999986830E+02 0.  0.
         12    1    1    2    0    0  0.18238296077E+02  0.26779626262E+02 -0.28876282622E+02  0.43400731844E+02  0.00000000000E+00 0. -1.
         11    1    3    3    0    0 -0.82562814657E+01 -0.63810090565E+01  0.43739803553E+01  0.11314378667E+02  0.51100000000E-03 0. -1.
        -11    1    3    3    0    0 -0.96134164407E+01 -0.21627824152E+02  0.17710265027E+02  0.29560684038E+02  0.51100000000E-03 0.  1.
         12    1    3    3    0    0 -0.36859817074E+00  0.12292069461E+01  0.67920372391E+01  0.69122054502E+01  0.00000000000E+00 0. -1.
</event>
<event>
 7    1  0.2328615E-009  0.4778727E+02  0.7816164E-02  0.1312668E+00
        -11   -1    0    0    0    0  0.00000000000E+00  0.00000000000E+00  0.45593999997E+02  0.45594000000E+02  0.51100000000E-03 0.  1.
         11   -1    0    0    0    0 -0.00000000000E+00 -0.00000000000E+00 -0.45593999997E+02  0.45594000000E+02  0.51100000000E-03 0. -1.
    9900012    2    1    2    0    0 -0.18330092366E+02 -0.39336811301E+02 -0.49621179406E+00  0.47787271485E+02  0.20000002009E+02 0.  0.
         12    1    1    2    0    0  0.18330092366E+02  0.39336811301E+02  0.49621179406E+00  0.43400728515E+02  0.00000000000E+00 0. -1.
         11    1    3    3    0    0 -0.12911919555E+02 -0.10583625982E+02 -0.17982037235E+01  0.16791793901E+02  0.51100000000E-03 0. -1.
        -11    1    3    3    0    0 -0.84284491561E+01 -0.20846282139E+02  0.42628600150E+00  0.22489729972E+02  0.51100000000E-03 0.  1.
         12    1    3    3    0    0  0.30102763451E+01 -0.79069031800E+01  0.87570592799E+00  0.85057476123E+01  0.00000000000E+00 0. -1.
</event>
<event>
 7    1  0.2328615E-009  0.4778731E+02  0.7816164E-02  0.1312668E+00
        -11   -1    0    0    0    0  0.00000000000E+00  0.00000000000E+00  0.45593999997E+02  0.45594000000E+02  0.51100000000E-03 0. -1.
         11   -1    0    0    0    0 -0.00000000000E+00 -0.00000000000E+00 -0.45593999997E+02  0.45594000000E+02  0.51100000000E-03 0.  1.
    9900012    2    1    2    0    0 -0.89596349150E+01 -0.42464670427E+02  0.31141915865E+00  0.47787305603E+02  0.20000157564E+02 0.  0.
         12    1    1    2    0    0  0.89596349150E+01  0.42464670427E+02 -0.31141915865E+00  0.43400694397E+02  0.00000000000E+00 0. -1.
         11    1    3    3    0    0  0.10950520808E+01  0.64709712136E-01 -0.75507338908E+00  0.13317141174E+01  0.51100000000E-03 0. -1.
        -11    1    3    3    0    0 -0.12942497979E+02 -0.21430849950E+02 -0.10332508967E+01  0.25057078664E+02  0.51100000000E-03 0.  1.
         12    1    3    3    0    0  0.28878109829E+01 -0.21098530189E+02  0.20997434444E+01  0.21398512821E+02  0.00000000000E+00 0. -1.
</event>
<event>
 7    1  0.2328615E-009  0.4778727E+02  0.7816164E-02  0.1312668E+00
        -11   -1    0    0    0    0  0.00000000000E+00  0.00000000000E+00  0.45593999997E+02  0.45594000000E+02  0.51100000000E-03 0. -1.
         11   -1    0    0    0    0 -0.00000000000E+00 -0.00000000000E+00 -0.45593999997E+02  0.45594000000E+02  0.51100000000E-03 0.  1.
    9900012    2    1    2    0    0 -0.42245928594E+02  0.60977842596E+01 -0.78563429343E+01  0.47787267518E+02  0.19999983921E+02 0.  0.
         12    1    1    2    0    0  0.42245928594E+02 -0.60977842596E+01  0.78563429343E+01  0.43400732482E+02  0.00000000000E+00 0. -1.
         11    1    3    3    0    0 -0.30617969707E+01 -0.21484265042E+01 -0.24149954979E+01  0.44522511890E+01  0.51100000000E-03 0. -1.
        -11    1    3    3    0    0 -0.12575679619E+02 -0.18357340079E+01 -0.75843310268E+01  0.14799990359E+02  0.51100000000E-03 0.  1.
         12    1    3    3    0    0 -0.26608452004E+02  0.10081944772E+02  0.21429835905E+01  0.28535025970E+02  0.00000000000E+00 0. -1.
</event>
<event>
 7    1  0.2328615E-009  0.4778727E+02  0.7816164E-02  0.1312668E+00
        -11   -1    0    0    0    0  0.00000000000E+00  0.00000000000E+00  0.45593999997E+02  0.45594000000E+02  0.51100000000E-03 0.  1.
         11   -1    0    0    0    0 -0.00000000000E+00 -0.00000000000E+00 -0.45593999997E+02  0.45594000000E+02  0.51100000000E-03 0. -1.
    9900012    2    1    2    0    0 -0.17346846575E+02 -0.37535355376E+02  0.13183602585E+02  0.47787269978E+02  0.19999995138E+02 0.  0.
         12    1    1    2    0    0  0.17346846575E+02  0.37535355376E+02 -0.13183602585E+02  0.43400730022E+02  0.00000000000E+00 0. -1.
         11    1    3    3    0    0  0.41001800306E+00  0.60582360441E+00 -0.53172113313E+00  0.90435868273E+00  0.51100000000E-03 0. -1.
        -11    1    3    3    0    0  0.18482949158E+01 -0.99481834455E+01  0.57257756043E+01  0.11626136697E+02  0.51100000000E-03 0.  1.
        -12    1    3    3    0    0 -0.19605159494E+02 -0.28192995535E+02  0.79895481138E+01  0.35256774599E+02  0.00000000000E+00 0.  1.
</event>
<event>
 7    1  0.2328615E-009  0.4778727E+02  0.7816164E-02  0.1312668E+00
        -11   -1    0    0    0    0  0.00000000000E+00  0.00000000000E+00  0.45593999997E+02  0.45594000000E+02  0.51100000000E-03 0.  1.
         11   -1    0    0    0    0 -0.00000000000E+00 -0.00000000000E+00 -0.45593999997E+02  0.45594000000E+02  0.51100000000E-03 0. -1.
    9900012    2    1    2    0    0 -0.29628585868E+01 -0.30748783375E+02  0.30485361737E+02  0.47787268552E+02  0.19999988635E+02 0.  0.
         12    1    1    2    0    0  0.29628585868E+01  0.30748783375E+02 -0.30485361737E+02  0.43400731448E+02  0.00000000000E+00 0. -1.
         11    1    3    3    0    0 -0.24522213163E+01 -0.12920100328E+02  0.90328455933E+01  0.15954143087E+02  0.51100000000E-03 0.  1.
        -11    1    3    3    0    0  0.11252523341E+01 -0.70946322886E+01 -0.64485801086E+00  0.72122009290E+01  0.51100000000E-03 0. -1.
        -12    1    3    3    0    0 -0.16358896046E+01 -0.10734050758E+02  0.22097374154E+02  0.24620924536E+02  0.00000000000E+00 0.  1.
</event>
<event>
 7    1  0.2328615E-009  0.4778724E+02  0.7816164E-02  0.1312668E+00
        -11   -1    0    0    0    0  0.00000000000E+00  0.00000000000E+00  0.45593999997E+02  0.45594000000E+02  0.51100000000E-03 0.  1.
         11   -1    0    0    0    0 -0.00000000000E+00 -0.00000000000E+00 -0.45593999997E+02  0.45594000000E+02  0.51100000000E-03 0. -1.
    9900012    2    1    2    0    0  0.29965097352E+02  0.10972391462E+02  0.29416418818E+02  0.47787238143E+02  0.19999849987E+02 0.  0.
         12    1    1    2    0    0 -0.29965097352E+02 -0.10972391462E+02 -0.29416418818E+02  0.43400761857E+02  0.00000000000E+00 0. -1.
         11    1    3    3    0    0  0.20073462153E+01  0.44351525548E+01  0.39448454351E+01  0.62659255327E+01  0.51100000000E-03 0. -1.
        -11    1    3    3    0    0  0.25514083281E+02  0.10817794008E+02  0.22965893465E+02  0.35992018223E+02  0.51100000000E-03 0.  1.
         12    1    3    3    0    0  0.24436678555E+01 -0.42805551013E+01  0.25056799179E+01  0.55292943866E+01  0.00000000000E+00 0. -1.
</event>
<event>
 7    1  0.2328615E-009  0.4778727E+02  0.7816164E-02  0.1312668E+00
        -11   -1    0    0    0    0  0.00000000000E+00  0.00000000000E+00  0.45593999997E+02  0.45594000000E+02  0.51100000000E-03 0.  1.
         11   -1    0    0    0    0 -0.00000000000E+00 -0.00000000000E+00 -0.45593999997E+02  0.45594000000E+02  0.51100000000E-03 0. -1.
    9900012    2    1    2    0    0  0.22297088331E+01  0.43249516079E+02 -0.28514773325E+01  0.47787272292E+02  0.20000005689E+02 0.  0.
         12    1    1    2    0    0 -0.22297088331E+01 -0.43249516079E+02  0.28514773325E+01  0.43400727708E+02  0.00000000000E+00 0. -1.
         11    1    3    3    0    0  0.75556287152E+01  0.62645433519E+01  0.18529136601E+01  0.99882590067E+01  0.51100000000E-03 0. -1.
        -11    1    3    3    0    0 -0.40161311972E+00  0.12003415770E+02 -0.22460541758E+01  0.12218348615E+02  0.51100000000E-03 0.  1.
         12    1    3    3    0    0 -0.49243067624E+01  0.24981556957E+02 -0.24583368169E+01  0.25580664671E+02  0.00000000000E+00 0. -1.
</event>
<event>
 7    1  0.2328615E-009  0.4778728E+02  0.7816164E-02  0.1312668E+00
        -11   -1    0    0    0    0  0.00000000000E+00  0.00000000000E+00  0.45593999997E+02  0.45594000000E+02  0.51100000000E-03 0.  1.
         11   -1    0    0    0    0 -0.00000000000E+00 -0.00000000000E+00 -0.45593999997E+02  0.45594000000E+02  0.51100000000E-03 0. -1.
    9900012    2    1    2    0    0 -0.12551792581E+02 -0.38753936887E+02  0.14973569562E+02  0.47787275275E+02  0.20000019290E+02 0.  0.
         12    1    1    2    0    0  0.12551792581E+02  0.38753936887E+02 -0.14973569562E+02  0.43400724725E+02  0.00000000000E+00 0. -1.
         11    1    3    3    0    0 -0.90829375561E+00 -0.36180574270E+01  0.87213575919E+01  0.94856426033E+01  0.51100000000E-03 0. -1.
        -11    1    3    3    0    0 -0.13978558943E+01 -0.14071780619E+02  0.43772471441E+01  0.14803016710E+02  0.51100000000E-03 0.  1.
        -12    1    3    3    0    0 -0.10245642931E+02 -0.21064098840E+02  0.18749648256E+01  0.23498615962E+02  0.00000000000E+00 0.  1.
</event>
<event>
 7    1  0.2328615E-009  0.4778727E+02  0.7816164E-02  0.1312668E+00
        -11   -1    0    0    0    0  0.00000000000E+00  0.00000000000E+00  0.45593999997E+02  0.45594000000E+02  0.51100000000E-03 0.  1.
         11   -1    0    0    0    0 -0.00000000000E+00 -0.00000000000E+00 -0.45593999997E+02  0.45594000000E+02  0.51100000000E-03 0. -1.
    9900012    2    1    2    0    0 -0.61037883185E+01 -0.38696409424E+02  0.18680341553E+02  0.47787268500E+02  0.19999988401E+02 0.  0.
         12    1    1    2    0    0  0.61037883185E+01  0.38696409424E+02 -0.18680341553E+02  0.43400731500E+02  0.00000000000E+00 0. -1.
         11    1    3    3    0    0 -0.47449923479E+00 -0.92248851060E+00  0.30390428428E+01  0.32112172517E+01  0.51100000000E-03 0.  1.
        -11    1    3    3    0    0  0.60387842319E+01 -0.12947415567E+02  0.46480756795E+01  0.15023551267E+02  0.51100000000E-03 0. -1.
         12    1    3    3    0    0 -0.11668073316E+02 -0.24826505346E+02  0.10993223031E+02  0.29552499982E+02  0.00000000000E+00 0. -1.
</event>
<event>
 7    1  0.2328615E-009  0.4778727E+02  0.7816164E-02  0.1312668E+00
        -11   -1    0    0    0    0  0.00000000000E+00  0.00000000000E+00  0.45593999997E+02  0.45594000000E+02  0.51100000000E-03 0. -1.
         11   -1    0    0    0    0 -0.00000000000E+00 -0.00000000000E+00 -0.45593999997E+02  0.45594000000E+02  0.51100000000E-03 0.  1.
    9900012    2    1    2    0    0 -0.18560357894E+02 -0.39005665588E+02 -0.42064935227E+01  0.47787269350E+02  0.19999992276E+02 0.  0.
         12    1    1    2    0    0  0.18560357894E+02  0.39005665588E+02  0.42064935227E+01  0.43400730650E+02  0.00000000000E+00 0. -1.
         11    1    3    3    0    0 -0.96737768250E+00 -0.70486547712E+01 -0.29498674093E+01  0.77020173758E+01  0.51100000000E-03 0. -1.
        -11    1    3    3    0    0 -0.17580359398E+02 -0.19253591049E+02 -0.55865129434E+01  0.26664188193E+02  0.51100000000E-03 0.  1.
        -12    1    3    3    0    0 -0.12620814387E-01 -0.12703419768E+02  0.43298868300E+01  0.13421063782E+02  0.00000000000E+00 0.  1.
</event>
<event>
 7    1  0.2328615E-009  0.4778726E+02  0.7816164E-02  0.1312668E+00
        -11   -1    0    0    0    0  0.00000000000E+00  0.00000000000E+00  0.45593999997E+02  0.45594000000E+02  0.51100000000E-03 0.  1.
         11   -1    0    0    0    0 -0.00000000000E+00 -0.00000000000E+00 -0.45593999997E+02  0.45594000000E+02  0.51100000000E-03 0. -1.
    9900012    2    1    2    0    0  0.35301975690E+02 -0.18244655495E+02  0.17450706462E+02  0.47787261552E+02  0.19999956722E+02 0.  0.
         12    1    1    2    0    0 -0.35301975690E+02  0.18244655495E+02 -0.17450706462E+02  0.43400738448E+02  0.00000000000E+00 0. -1.
         11    1    3    3    0    0  0.75820510724E+01 -0.55819778968E+01 -0.28386819862E+01  0.98338238435E+01  0.51100000000E-03 0. -1.
        -11    1    3    3    0    0  0.55338834248E+01  0.15151360540E+01  0.39615187146E+01  0.69723119414E+01  0.51100000000E-03 0.  1.
        -12    1    3    3    0    0  0.22186041193E+02 -0.14177813652E+02  0.16327869733E+02  0.30981125767E+02  0.00000000000E+00 0.  1.
</event>
<event>
 7    1  0.2328615E-009  0.4778727E+02  0.7816164E-02  0.1312668E+00
        -11   -1    0    0    0    0  0.00000000000E+00  0.00000000000E+00  0.45593999997E+02  0.45594000000E+02  0.51100000000E-03 0.  1.
         11   -1    0    0    0    0 -0.00000000000E+00 -0.00000000000E+00 -0.45593999997E+02  0.45594000000E+02  0.51100000000E-03 0. -1.
    9900012    2    1    2    0    0  0.41593822100E+02  0.22986902995E+01 -0.12177570047E+02  0.47787271594E+02  0.20000002505E+02 0.  0.
         12    1    1    2    0    0 -0.41593822100E+02 -0.22986902995E+01  0.12177570047E+02  0.43400728406E+02  0.00000000000E+00 0. -1.
         11    1    3    3    0    0  0.11120352934E+02  0.31619688105E+00  0.18555371106E+01  0.11278530404E+02  0.51100000000E-03 0. -1.
        -11    1    3    3    0    0  0.17484522920E+02  0.15332818441E+01 -0.23461668201E+00  0.17553191738E+02  0.51100000000E-03 0.  1.
         12    1    3    3    0    0  0.12988946245E+02  0.44921157432E+00 -0.13798490475E+02  0.18955549451E+02  0.00000000000E+00 0. -1.
</event>
<event>
 7    1  0.2328615E-009  0.4778727E+02  0.7816164E-02  0.1312668E+00
        -11   -1    0    0    0    0  0.00000000000E+00  0.00000000000E+00  0.45593999997E+02  0.45594000000E+02  0.51100000000E-03 0.  1.
         11   -1    0    0    0    0 -0.00000000000E+00 -0.00000000000E+00 -0.45593999997E+02  0.45594000000E+02  0.51100000000E-03 0. -1.
    9900012    2    1    2    0    0  0.24983881914E+02 -0.46897287202E+00  0.35485339730E+02  0.47787266978E+02  0.19999981462E+02 0.  0.
         12    1    1    2    0    0 -0.24983881914E+02  0.46897287202E+00 -0.35485339730E+02  0.43400733022E+02  0.00000000000E+00 0. -1.
         11    1    3    3    0    0  0.15020307099E+02 -0.11905044098E+01  0.77214960763E+01  0.16930694847E+02  0.51100000000E-03 0. -1.
        -11    1    3    3    0    0  0.52485097494E+00 -0.20854644813E+01  0.10652460538E+01  0.23998708434E+01  0.51100000000E-03 0.  1.
        -12    1    3    3    0    0  0.94387238402E+01  0.28069960191E+01  0.26698597600E+02  0.28456701288E+02  0.00000000000E+00 0.  1.
</event>
<event>
 7    1  0.2328615E-009  0.4778730E+02  0.7816164E-02  0.1312668E+00
        -11   -1    0    0    0    0  0.00000000000E+00  0.00000000000E+00  0.45593999997E+02  0.45594000000E+02  0.51100000000E-03 0.  1.
         11   -1    0    0    0    0 -0.00000000000E+00 -0.00000000000E+00 -0.45593999997E+02  0.45594000000E+02  0.51100000000E-03 0. -1.
    9900012    2    1    2    0    0  0.27830165442E+02 -0.94319311302E+01  0.31939646859E+02  0.47787303291E+02  0.20000147023E+02 0.  0.
         12    1    1    2    0    0 -0.27830165442E+02  0.94319311302E+01 -0.31939646859E+02  0.43400696709E+02  0.00000000000E+00 0. -1.
         11    1    3    3    0    0  0.43462254761E+01 -0.25319943771E+01  0.11564709913E+02  0.12611232575E+02  0.51100000000E-03 0. -1.
        -11    1    3    3    0    0  0.21048554655E+02 -0.86697220163E+00  0.19321806490E+02  0.28585407119E+02  0.51100000000E-03 0.  1.
         12    1    3    3    0    0  0.24353853110E+01 -0.60329645514E+01  0.10531304556E+01  0.65906635970E+01  0.00000000000E+00 0. -1.
</event>
<event>
 7    1  0.2328615E-009  0.4778727E+02  0.7816164E-02  0.1312668E+00
        -11   -1    0    0    0    0  0.00000000000E+00  0.00000000000E+00  0.45593999997E+02  0.45594000000E+02  0.51100000000E-03 0. -1.
         11   -1    0    0    0    0 -0.00000000000E+00 -0.00000000000E+00 -0.45593999997E+02  0.45594000000E+02  0.51100000000E-03 0.  1.
    9900012    2    1    2    0    0  0.14746645684E+02  0.40777954213E+02  0.18215973596E+01  0.47787270447E+02  0.19999997278E+02 0.  0.
         12    1    1    2    0    0 -0.14746645684E+02 -0.40777954213E+02 -0.18215973596E+01  0.43400729553E+02  0.00000000000E+00 0. -1.
         11    1    3    3    0    0 -0.42233231651E-01  0.14072658190E+02  0.75789948487E+01  0.15983824804E+02  0.51100000000E-03 0. -1.
        -11    1    3    3    0    0  0.43705098774E+01  0.14710781592E+02 -0.19835706049E+01  0.15473945981E+02  0.51100000000E-03 0.  1.
         12    1    3    3    0    0  0.10418369038E+02  0.11994514431E+02 -0.37738268841E+01  0.16329499662E+02  0.00000000000E+00 0. -1.
</event>
<event>
 7    1  0.2328615E-009  0.4778727E+02  0.7816164E-02  0.1312668E+00
        -11   -1    0    0    0    0  0.00000000000E+00  0.00000000000E+00  0.45593999997E+02  0.45594000000E+02  0.51100000000E-03 0.  1.
         11   -1    0    0    0    0 -0.00000000000E+00 -0.00000000000E+00 -0.45593999997E+02  0.45594000000E+02  0.51100000000E-03 0. -1.
    9900012    2    1    2    0    0  0.35742960513E+02  0.70366843448E+01  0.23591293819E+02  0.47787270780E+02  0.19999998794E+02 0.  0.
         12    1    1    2    0    0 -0.35742960513E+02 -0.70366843448E+01 -0.23591293819E+02  0.43400729220E+02  0.00000000000E+00 0. -1.
         11    1    3    3    0    0  0.19908383870E+02 -0.26723144091E+01  0.70176474022E+01  0.21277508969E+02  0.51100000000E-03 0. -1.
        -11    1    3    3    0    0  0.14318995959E+02  0.41327878579E+01  0.11606131287E+02  0.18889570256E+02  0.51100000000E-03 0.  1.
        -12    1    3    3    0    0  0.15155806839E+01  0.55762108961E+01  0.49675151299E+01  0.76201915549E+01  0.00000000000E+00 0.  1.
</event>
<event>
 7    1  0.2328615E-009  0.4778727E+02  0.7816164E-02  0.1312668E+00
        -11   -1    0    0    0    0  0.00000000000E+00  0.00000000000E+00  0.45593999997E+02  0.45594000000E+02  0.51100000000E-03 0.  1.
         11   -1    0    0    0    0 -0.00000000000E+00 -0.00000000000E+00 -0.45593999997E+02  0.45594000000E+02  0.51100000000E-03 0. -1.
    9900012    2    1    2    0    0  0.35999774567E+02  0.36249141050E+00  0.24238563370E+02  0.47787272781E+02  0.20000007918E+02 0.  0.
         12    1    1    2    0    0 -0.35999774567E+02 -0.36249141050E+00 -0.24238563370E+02  0.43400727219E+02  0.00000000000E+00 0. -1.
         11    1    3    3    0    0  0.58695375817E+00  0.18847548803E+01  0.13008259927E+01  0.23640990245E+01  0.51100000000E-03 0.  1.
        -11    1    3    3    0    0  0.44201208486E+01  0.52979172874E+01  0.73018548956E+01  0.10046018170E+02  0.51100000000E-03 0. -1.
         12    1    3    3    0    0  0.30992699961E+02 -0.68201807572E+01  0.15635882481E+02  0.35377155586E+02  0.00000000000E+00 0. -1.
</event>
<event>
 7    1  0.2328615E-009  0.4778727E+02  0.7816164E-02  0.1312668E+00
        -11   -1    0    0    0    0  0.00000000000E+00  0.00000000000E+00  0.45593999997E+02  0.45594000000E+02  0.51100000000E-03 0.  1.
         11   -1    0    0    0    0 -0.00000000000E+00 -0.00000000000E+00 -0.45593999997E+02  0.45594000000E+02  0.51100000000E-03 0. -1.
    9900012    2    1    2    0    0  0.97990905992E+00 -0.15396005568E+02  0.40566313370E+02  0.47787274319E+02  0.20000014930E+02 0.  0.
         12    1    1    2    0    0 -0.97990905992E+00  0.15396005568E+02 -0.40566313370E+02  0.43400725681E+02  0.00000000000E+00 0. -1.
         11    1    3    3    0    0 -0.47252574204E+01 -0.52575510482E+01  0.59175529119E+01  0.92188574910E+01  0.51100000000E-03 0. -1.
        -11    1    3    3    0    0 -0.98534182223E+00  0.20862240673E+01  0.99052336188E+01  0.10170392454E+02  0.51100000000E-03 0.  1.
         12    1    3    3    0    0  0.66905083026E+01 -0.12224678587E+02  0.24743526839E+02  0.28398024374E+02  0.00000000000E+00 0. -1.
</event>
<event>
 7    1  0.2328615E-009  0.4778727E+02  0.7816164E-02  0.1312668E+00
        -11   -1    0    0    0    0  0.00000000000E+00  0.00000000000E+00  0.45593999997E+02  0.45594000000E+02  0.51100000000E-03 0.  1.
         11   -1    0    0    0    0 -0.00000000000E+00 -0.00000000000E+00 -0.45593999997E+02  0.45594000000E+02  0.51100000000E-03 0. -1.
    9900012    2    1    2    0    0  0.21971376803E+02  0.28737106230E+02  0.23980418443E+02  0.47787272566E+02  0.20000006937E+02 0.  0.
         12    1    1    2    0    0 -0.21971376803E+02 -0.28737106230E+02 -0.23980418443E+02  0.43400727434E+02  0.00000000000E+00 0. -1.
         11    1    3    3    0    0  0.17432791114E+02  0.10542691888E+02  0.17568581466E+02  0.26901777139E+02  0.51100000000E-03 0. -1.
        -11    1    3    3    0    0  0.48121978485E-01  0.50343255196E+00  0.20609493816E+01  0.21220915799E+01  0.51100000000E-03 0.  1.
        -12    1    3    3    0    0  0.44904637103E+01  0.17690981791E+02  0.43508875959E+01  0.18763403847E+02  0.00000000000E+00 0.  1.
</event>
<event>
 7    1  0.2328615E-009  0.4778727E+02  0.7816164E-02  0.1312668E+00
        -11   -1    0    0    0    0  0.00000000000E+00  0.00000000000E+00  0.45593999997E+02  0.45594000000E+02  0.51100000000E-03 0.  1.
         11   -1    0    0    0    0 -0.00000000000E+00 -0.00000000000E+00 -0.45593999997E+02  0.45594000000E+02  0.51100000000E-03 0. -1.
    9900012    2    1    2    0    0 -0.87629372384E+00 -0.29391064665E+02  0.31922101827E+02  0.47787272381E+02  0.20000006093E+02 0.  0.
         12    1    1    2    0    0  0.87629372384E+00  0.29391064665E+02 -0.31922101827E+02  0.43400727619E+02  0.00000000000E+00 0. -1.
         11    1    3    3    0    0 -0.18056950827E+01 -0.18875766561E+02  0.12035182997E+02  0.22458867470E+02  0.51100000000E-03 0. -1.
        -11    1    3    3    0    0  0.76533715776E+00 -0.10247029093E+02  0.69900817167E+01  0.12427734663E+02  0.51100000000E-03 0.  1.
         12    1    3    3    0    0  0.16406420111E+00 -0.26826901164E+00  0.12896837113E+02  0.12900670247E+02  0.00000000000E+00 0. -1.
</event>
<event>
 7    1  0.2328615E-009  0.4778727E+02  0.7816164E-02  0.1312668E+00
        -11   -1    0    0    0    0  0.00000000000E+00  0.00000000000E+00  0.45593999997E+02  0.45594000000E+02  0.51100000000E-03 0.  1.
         11   -1    0    0    0    0 -0.00000000000E+00 -0.00000000000E+00 -0.45593999997E+02  0.45594000000E+02  0.51100000000E-03 0. -1.
    9900012    2    1    2    0    0 -0.42540951114E+02  0.51965699492E+01  0.68473684087E+01  0.47787270570E+02  0.19999997838E+02 0.  0.
         12    1    1    2    0    0  0.42540951114E+02 -0.51965699492E+01 -0.68473684087E+01  0.43400729430E+02  0.00000000000E+00 0. -1.
         11    1    3    3    0    0 -0.12821064216E+01  0.15024943746E+01 -0.20077124342E+01  0.28164153993E+01  0.51100000000E-03 0. -1.
        -11    1    3    3    0    0  0.12439700255E+01  0.59365657105E+00  0.82120049711E+00  0.16044500822E+01  0.51100000000E-03 0.  1.
        -12    1    3    3    0    0 -0.42502814718E+02  0.31004190035E+01  0.80338803458E+01  0.43366405089E+02  0.00000000000E+00 0.  1.
</event>
<event>
 7    1  0.2328615E-009  0.4778726E+02  0.7816164E-02  0.1312668E+00
        -11   -1    0    0    0    0  0.00000000000E+00  0.00000000000E+00  0.45593999997E+02  0.45594000000E+02  0.51100000000E-03 0.  1.
         11   -1    0    0    0    0 -0.00000000000E+00 -0.00000000000E+00 -0.45593999997E+02  0.45594000000E+02  0.51100000000E-03 0. -1.
    9900012    2    1    2    0    0  0.20593742209E+01  0.41535413577E+02  0.12417438573E+02  0.47787258256E+02  0.19999941694E+02 0.  0.
         12    1    1    2    0    0 -0.20593742209E+01 -0.41535413577E+02 -0.12417438573E+02  0.43400741744E+02  0.00000000000E+00 0. -1.
         11    1    3    3    0    0 -0.47233400661E-01  0.67504908902E+01  0.52723080758E+01  0.85655467403E+01  0.51100000000E-03 0. -1.
        -11    1    3    3    0    0  0.43243052850E+01  0.92756267795E+01  0.88909302194E+01  0.13556751409E+02  0.51100000000E-03 0.  1.
         12    1    3    3    0    0 -0.22176976634E+01  0.25509295907E+02 -0.17457997223E+01  0.25664960107E+02  0.00000000000E+00 0. -1.
</event>
<event>
 7    1  0.2328615E-009  0.4778727E+02  0.7816164E-02  0.1312668E+00
        -11   -1    0    0    0    0  0.00000000000E+00  0.00000000000E+00  0.45593999997E+02  0.45594000000E+02  0.51100000000E-03 0. -1.
         11   -1    0    0    0    0 -0.00000000000E+00 -0.00000000000E+00 -0.45593999997E+02  0.45594000000E+02  0.51100000000E-03 0.  1.
    9900012    2    1    2    0    0 -0.64421854069E+01  0.42666716885E+02  0.46554292907E+01  0.47787268388E+02  0.19999987887E+02 0.  0.
         12    1    1    2    0    0  0.64421854069E+01 -0.42666716885E+02 -0.46554292907E+01  0.43400731612E+02  0.00000000000E+00 0. -1.
         11    1    3    3    0    0 -0.24668389947E+01  0.97359000951E+01  0.44946970932E+01  0.11003424354E+02  0.51100000000E-03 0. -1.
        -11    1    3    3    0    0 -0.48058988144E+01  0.23817417466E+02  0.70837486761E+01  0.25309001042E+02  0.51100000000E-03 0.  1.
        -12    1    3    3    0    0  0.83055240213E+00  0.91133993241E+01 -0.69230164786E+01  0.11474842992E+02  0.00000000000E+00 0.  1.
</event>
<event>
 7    1  0.2328615E-009  0.4778728E+02  0.7816164E-02  0.1312668E+00
        -11   -1    0    0    0    0  0.00000000000E+00  0.00000000000E+00  0.45593999997E+02  0.45594000000E+02  0.51100000000E-03 0.  1.
         11   -1    0    0    0    0 -0.00000000000E+00 -0.00000000000E+00 -0.45593999997E+02  0.45594000000E+02  0.51100000000E-03 0. -1.
    9900012    2    1    2    0    0  0.22941520124E+02 -0.19007950618E+02  0.31559581829E+02  0.47787277224E+02  0.20000028173E+02 0.  0.
         12    1    1    2    0    0 -0.22941520124E+02  0.19007950618E+02 -0.31559581829E+02  0.43400722776E+02  0.00000000000E+00 0. -1.
         11    1    3    3    0    0  0.25998117852E+01 -0.27496291353E+00  0.43211645292E+01  0.50504543431E+01  0.51100000000E-03 0. -1.
        -11    1    3    3    0    0  0.19902713131E+02 -0.10498280501E+02  0.26021177219E+02  0.34401068989E+02  0.51100000000E-03 0.  1.
         12    1    3    3    0    0  0.43899520790E+00 -0.82347072041E+01  0.12172400805E+01  0.83357538917E+01  0.00000000000E+00 0. -1.
</event>
<event>
 7    1  0.2328615E-009  0.4778726E+02  0.7816164E-02  0.1312668E+00
        -11   -1    0    0    0    0  0.00000000000E+00  0.00000000000E+00  0.45593999997E+02  0.45594000000E+02  0.51100000000E-03 0.  1.
         11   -1    0    0    0    0 -0.00000000000E+00 -0.00000000000E+00 -0.45593999997E+02  0.45594000000E+02  0.51100000000E-03 0. -1.
    9900012    2    1    2    0    0  0.16444164412E+01 -0.18403860672E+02  0.39271083234E+02  0.47787260704E+02  0.19999952853E+02 0.  0.
         12    1    1    2    0    0 -0.16444164412E+01  0.18403860672E+02 -0.39271083234E+02  0.43400739296E+02  0.00000000000E+00 0. -1.
         11    1    3    3    0    0 -0.25101755977E+01  0.15505996360E+00  0.32769313466E+00  0.25362192680E+01  0.51100000000E-03 0. -1.
        -11    1    3    3    0    0 -0.75622382075E+00 -0.13712498786E+02  0.15017428553E+02  0.20350126733E+02  0.51100000000E-03 0.  1.
         12    1    3    3    0    0  0.49108158597E+01 -0.48464218498E+01  0.23925961546E+02  0.24900914703E+02  0.00000000000E+00 0. -1.
</event>
<event>
 7    1  0.2328615E-009  0.4778727E+02  0.7816164E-02  0.1312668E+00
        -11   -1    0    0    0    0  0.00000000000E+00  0.00000000000E+00  0.45593999997E+02  0.45594000000E+02  0.51100000000E-03 0. -1.
         11   -1    0    0    0    0 -0.00000000000E+00 -0.00000000000E+00 -0.45593999997E+02  0.45594000000E+02  0.51100000000E-03 0.  1.
    9900012    2    1    2    0    0 -0.21390312978E+02  0.37602414121E+02  0.34837180390E+01  0.47787270416E+02  0.19999997134E+02 0.  0.
         12    1    1    2    0    0  0.21390312978E+02 -0.37602414121E+02 -0.34837180390E+01  0.43400729584E+02  0.00000000000E+00 0. -1.
         11    1    3    3    0    0 -0.52064620261E+01  0.18377811696E+02  0.34612375720E+01  0.19412145047E+02  0.51100000000E-03 0. -1.
        -11    1    3    3    0    0 -0.15116225328E+02  0.18018680969E+02  0.42055746365E+01  0.23892676500E+02  0.51100000000E-03 0.  1.
         12    1    3    3    0    0 -0.10676256235E+01  0.12059214570E+01 -0.41830941694E+01  0.44824488689E+01  0.00000000000E+00 0. -1.
</event>
<event>
 7    1  0.2328615E-009  0.4778727E+02  0.7816164E-02  0.1312668E+00
        -11   -1    0    0    0    0  0.00000000000E+00  0.00000000000E+00  0.45593999997E+02  0.45594000000E+02  0.51100000000E-03 0.  1.
         11   -1    0    0    0    0 -0.00000000000E+00 -0.00000000000E+00 -0.45593999997E+02  0.45594000000E+02  0.51100000000E-03 0. -1.
    9900012    2    1    2    0    0  0.34637235430E+02 -0.62672044980E+01  0.25389114102E+02  0.47787273677E+02  0.20000012004E+02 0.  0.
         12    1    1    2    0    0 -0.34637235430E+02  0.62672044980E+01 -0.25389114102E+02  0.43400726323E+02  0.00000000000E+00 0. -1.
         11    1    3    3    0    0  0.19236460698E+01 -0.16414726528E+01  0.83950599188E+01  0.87676609180E+01  0.51100000000E-03 0. -1.
        -11    1    3    3    0    0  0.34057384513E+01 -0.49076955984E+00 -0.18748721593E+01  0.39185526708E+01  0.51100000000E-03 0.  1.
        -12    1    3    3    0    0  0.29307850909E+02 -0.41349622854E+01  0.18868926343E+02  0.35101060088E+02  0.00000000000E+00 0.  1.
</event>
<event>
 7    1  0.2328615E-009  0.4778727E+02  0.7816164E-02  0.1312668E+00
        -11   -1    0    0    0    0  0.00000000000E+00  0.00000000000E+00  0.45593999997E+02  0.45594000000E+02  0.51100000000E-03 0.  1.
         11   -1    0    0    0    0 -0.00000000000E+00 -0.00000000000E+00 -0.45593999997E+02  0.45594000000E+02  0.51100000000E-03 0. -1.
    9900012    2    1    2    0    0 -0.13643370392E+02  0.25646854575E+02  0.32244694655E+02  0.47787273754E+02  0.20000012356E+02 0.  0.
         12    1    1    2    0    0  0.13643370392E+02 -0.25646854575E+02 -0.32244694655E+02  0.43400726246E+02  0.00000000000E+00 0. -1.
         11    1    3    3    0    0 -0.10795718337E+02  0.12397786818E+02  0.10059228983E+02  0.19272797939E+02  0.51100000000E-03 0. -1.
        -11    1    3    3    0    0 -0.74228703138E+01  0.73311885970E+01  0.12911182854E+02  0.16599517248E+02  0.51100000000E-03 0.  1.
        -12    1    3    3    0    0  0.45752182583E+01  0.59178791596E+01  0.92742828190E+01  0.11914958567E+02  0.00000000000E+00 0.  1.
</event>
<event>
 7    1  0.2328615E-009  0.4778727E+02  0.7816164E-02  0.1312668E+00
        -11   -1    0    0    0    0  0.00000000000E+00  0.00000000000E+00  0.45593999997E+02  0.45594000000E+02  0.51100000000E-03 0.  1.
         11   -1    0    0    0    0 -0.00000000000E+00 -0.00000000000E+00 -0.45593999997E+02  0.45594000000E+02  0.51100000000E-03 0. -1.
    9900012    2    1    2    0    0  0.19334390872E+02  0.21591779803E+02  0.32304788105E+02  0.47787274661E+02  0.20000016487E+02 0.  0.
         12    1    1    2    0    0 -0.19334390872E+02 -0.21591779803E+02 -0.32304788105E+02  0.43400725339E+02  0.00000000000E+00 0. -1.
         11    1    3    3    0    0  0.11175554399E+02  0.89194919334E+01  0.14741575929E+02  0.20536903700E+02  0.51100000000E-03 0. -1.
        -11    1    3    3    0    0  0.49244842999E+01 -0.23098075349E+01  0.56026956801E+01  0.78087102400E+01  0.51100000000E-03 0.  1.
         12    1    3    3    0    0  0.32343521736E+01  0.14982095405E+02  0.11960516496E+02  0.19441660720E+02  0.00000000000E+00 0. -1.
</event>
<event>
 7    1  0.2328615E-009  0.4778727E+02  0.7816164E-02  0.1312668E+00
        -11   -1    0    0    0    0  0.00000000000E+00  0.00000000000E+00  0.45593999997E+02  0.45594000000E+02  0.51100000000E-03 0.  1.
         11   -1    0    0    0    0 -0.00000000000E+00 -0.00000000000E+00 -0.45593999997E+02  0.45594000000E+02  0.51100000000E-03 0. -1.
    9900012    2    1    2    0    0  0.40218295957E+02 -0.18843936707E+01  0.16203734827E+02  0.47787270841E+02  0.19999999073E+02 0.  0.
         12    1    1    2    0    0 -0.40218295957E+02  0.18843936707E+01 -0.16203734827E+02  0.43400729159E+02  0.00000000000E+00 0. -1.
         11    1    3    3    0    0  0.17380030983E+02 -0.30431186146E+01  0.26214788189E+01  0.17838110868E+02  0.51100000000E-03 0. -1.
        -11    1    3    3    0    0  0.96028708116E+01 -0.16929469131E+01 -0.12914499334E+01  0.98361090003E+01  0.51100000000E-03 0.  1.
         12    1    3    3    0    0  0.13235394163E+02  0.28516718570E+01  0.14873705941E+02  0.20113050973E+02  0.00000000000E+00 0. -1.
</event>
<event>
 7    1  0.3161681E-009  0.4778727E+02  0.7816164E-02  0.1312668E+00
        -11   -1    0    0    0    0  0.00000000000E+00  0.00000000000E+00  0.45593999997E+02  0.45594000000E+02  0.51100000000E-03 0. -1.
         11   -1    0    0    0    0 -0.00000000000E+00 -0.00000000000E+00 -0.45593999997E+02  0.45594000000E+02  0.51100000000E-03 0.  1.
    9900012    2    1    2    0    0 -0.40903009150E+02 -0.14021748068E+02  0.37360157533E+01  0.47787269706E+02  0.19999993896E+02 0.  0.
         12    1    1    2    0    0  0.40903009150E+02  0.14021748068E+02 -0.37360157533E+01  0.43400730294E+02  0.00000000000E+00 0. -1.
         11    1    3    3    0    0 -0.53564635311E+00  0.10392187570E+01  0.54976813715E+00  0.12919512012E+01  0.51100000000E-03 0. -1.
        -11    1    3    3    0    0 -0.40220469840E+02 -0.11277688291E+02  0.36435678067E+00  0.41773259431E+02  0.51100000000E-03 0.  1.
        -12    1    3    3    0    0 -0.14689295606E+00 -0.37832785338E+01  0.28218908355E+01  0.47220590734E+01  0.00000000000E+00 0.  1.
</event>
<event>
 7    1  0.2328615E-009  0.4778727E+02  0.7816164E-02  0.1312668E+00
        -11   -1    0    0    0    0  0.00000000000E+00  0.00000000000E+00  0.45593999997E+02  0.45594000000E+02  0.51100000000E-03 0.  1.
         11   -1    0    0    0    0 -0.00000000000E+00 -0.00000000000E+00 -0.45593999997E+02  0.45594000000E+02  0.51100000000E-03 0. -1.
    9900012    2    1    2    0    0  0.25114610510E+02  0.23228165863E+02 -0.26708270660E+02  0.47787273369E+02  0.20000010598E+02 0.  0.
         12    1    1    2    0    0 -0.25114610510E+02 -0.23228165863E+02  0.26708270660E+02  0.43400726631E+02  0.00000000000E+00 0. -1.
         11    1    3    3    0    0 -0.16881973004E+01  0.82387301528E+01 -0.67230643052E+01  0.10766906639E+02  0.51100000000E-03 0. -1.
        -11    1    3    3    0    0  0.51059136391E+01  0.90038568485E+00 -0.22321612931E+01  0.56447845638E+01  0.51100000000E-03 0.  1.
         12    1    3    3    0    0  0.21696894172E+02  0.14089050026E+02 -0.17753045062E+02  0.31375582166E+02  0.00000000000E+00 0. -1.
</event>
<event>
 7    1  0.2328615E-009  0.4778727E+02  0.7816164E-02  0.1312668E+00
        -11   -1    0    0    0    0  0.00000000000E+00  0.00000000000E+00  0.45593999997E+02  0.45594000000E+02  0.51100000000E-03 0.  1.
         11   -1    0    0    0    0 -0.00000000000E+00 -0.00000000000E+00 -0.45593999997E+02  0.45594000000E+02  0.51100000000E-03 0. -1.
    9900012    2    1    2    0    0 -0.29316505627E+02 -0.14473615574E+02  0.28542602774E+02  0.47787271629E+02  0.20000002667E+02 0.  0.
         12    1    1    2    0    0  0.29316505627E+02  0.14473615574E+02 -0.28542602774E+02  0.43400728371E+02  0.00000000000E+00 0. -1.
         11    1    3    3    0    0 -0.16444608355E+02 -0.35590103716E+00  0.16772421449E+02  0.23491826898E+02  0.51100000000E-03 0. -1.
        -11    1    3    3    0    0 -0.30080359214E+01  0.10273344083E+01  0.16622787173E+01  0.35870415227E+01  0.51100000000E-03 0.  1.
        -12    1    3    3    0    0 -0.98638613509E+01 -0.15145048945E+02  0.10107902608E+02  0.20708403208E+02  0.00000000000E+00 0.  1.
</event>
<event>
 7    1  0.2328615E-009  0.4778727E+02  0.7816164E-02  0.1312668E+00
        -11   -1    0    0    0    0  0.00000000000E+00  0.00000000000E+00  0.45593999997E+02  0.45594000000E+02  0.51100000000E-03 0.  1.
         11   -1    0    0    0    0 -0.00000000000E+00 -0.00000000000E+00 -0.45593999997E+02  0.45594000000E+02  0.51100000000E-03 0. -1.
    9900012    2    1    2    0    0  0.25686840724E+02 -0.23357460109E+01  0.34904923181E+02  0.47787272378E+02  0.20000006080E+02 0.  0.
         12    1    1    2    0    0 -0.25686840724E+02  0.23357460109E+01 -0.34904923181E+02  0.43400727622E+02  0.00000000000E+00 0. -1.
         11    1    3    3    0    0 -0.14674278367E-01  0.13320801742E+01  0.33045375097E+01  0.35629512120E+01  0.51100000000E-03 0. -1.
        -11    1    3    3    0    0  0.15312998532E+02 -0.99017662300E+01  0.23071490118E+02  0.29407933539E+02  0.51100000000E-03 0.  1.
        -12    1    3    3    0    0  0.10388516470E+02  0.62339400449E+01  0.85288955536E+01  0.14816387627E+02  0.00000000000E+00 0.  1.
</event>
<event>
 7    1  0.2328615E-009  0.4778727E+02  0.7816164E-02  0.1312668E+00
        -11   -1    0    0    0    0  0.00000000000E+00  0.00000000000E+00  0.45593999997E+02  0.45594000000E+02  0.51100000000E-03 0. -1.
         11   -1    0    0    0    0 -0.00000000000E+00 -0.00000000000E+00 -0.45593999997E+02  0.45594000000E+02  0.51100000000E-03 0.  1.
    9900012    2    1    2    0    0 -0.16784627393E+02 -0.38813384544E+02 -0.97683592821E+01  0.47787269827E+02  0.19999994448E+02 0.  0.
         12    1    1    2    0    0  0.16784627393E+02  0.38813384544E+02  0.97683592821E+01  0.43400730173E+02  0.00000000000E+00 0. -1.
         11    1    3    3    0    0 -0.49647571932E+01 -0.29904253340E+02 -0.44060081008E+01  0.30632108799E+02  0.51100000000E-03 0. -1.
        -11    1    3    3    0    0 -0.94193951319E+01 -0.93300758600E+01 -0.61208605340E+01  0.14602748171E+02  0.51100000000E-03 0.  1.
         12    1    3    3    0    0 -0.24004750679E+01  0.42094465577E+00  0.75850935271E+00  0.25524128570E+01  0.00000000000E+00 0. -1.
</event>
<event>
 7    1  0.2328615E-009  0.4778728E+02  0.7816164E-02  0.1312668E+00
        -11   -1    0    0    0    0  0.00000000000E+00  0.00000000000E+00  0.45593999997E+02  0.45594000000E+02  0.51100000000E-03 0.  1.
         11   -1    0    0    0    0 -0.00000000000E+00 -0.00000000000E+00 -0.45593999997E+02  0.45594000000E+02  0.51100000000E-03 0. -1.
    9900012    2    1    2    0    0 -0.22248189273E+02 -0.18819738438E+02  0.32162997207E+02  0.47787275695E+02  0.20000021205E+02 0.  0.
         12    1    1    2    0    0  0.22248189273E+02  0.18819738438E+02 -0.32162997207E+02  0.43400724305E+02  0.00000000000E+00 0. -1.
         11    1    3    3    0    0 -0.64027074112E+01 -0.44476486975E+01  0.18448961538E+02  0.20028490288E+02  0.51100000000E-03 0. -1.
        -11    1    3    3    0    0 -0.29015518044E+00 -0.68328185057E+01  0.42403317258E+01  0.80468634987E+01  0.51100000000E-03 0.  1.
         12    1    3    3    0    0 -0.15555326682E+02 -0.75392712347E+01  0.94737039439E+01  0.19711921909E+02  0.00000000000E+00 0. -1.
</event>
<event>
 7    1  0.2328615E-009  0.4778727E+02  0.7816164E-02  0.1312668E+00
        -11   -1    0    0    0    0  0.00000000000E+00  0.00000000000E+00  0.45593999997E+02  0.45594000000E+02  0.51100000000E-03 0.  1.
         11   -1    0    0    0    0 -0.00000000000E+00 -0.00000000000E+00 -0.45593999997E+02  0.45594000000E+02  0.51100000000E-03 0. -1.
    9900012    2    1    2    0    0 -0.28832567454E+02  0.16630338485E+02  0.27852078500E+02  0.47787269811E+02  0.19999994378E+02 0.  0.
         12    1    1    2    0    0  0.28832567454E+02 -0.16630338485E+02 -0.27852078500E+02  0.43400730189E+02  0.00000000000E+00 0. -1.
         11    1    3    3    0    0  0.15959542682E+00  0.34577286693E+01  0.33625981992E+01  0.48258082391E+01  0.51100000000E-03 0. -1.
        -11    1    3    3    0    0  0.33307261311E+00  0.15467170766E+01  0.64095546825E+01  0.66019438478E+01  0.51100000000E-03 0.  1.
        -12    1    3    3    0    0 -0.29325235494E+02  0.11625892740E+02  0.18079925618E+02  0.36359517724E+02  0.00000000000E+00 0.  1.
</event>
<event>
 7    1  0.2328615E-009  0.4778727E+02  0.7816164E-02  0.1312668E+00
        -11   -1    0    0    0    0  0.00000000000E+00  0.00000000000E+00  0.45593999997E+02  0.45594000000E+02  0.51100000000E-03 0. -1.
         11   -1    0    0    0    0 -0.00000000000E+00 -0.00000000000E+00 -0.45593999997E+02  0.45594000000E+02  0.51100000000E-03 0.  1.
    9900012    2    1    2    0    0 -0.27419857965E+02  0.41256214961E+01 -0.33387931815E+02  0.47787270116E+02  0.19999995769E+02 0.  0.
         12    1    1    2    0    0  0.27419857965E+02 -0.41256214961E+01  0.33387931815E+02  0.43400729884E+02  0.00000000000E+00 0. -1.
         11    1    3    3    0    0 -0.36631395448E+00  0.77240304512E+00 -0.38834912031E+01  0.39764678501E+01  0.51100000000E-03 0. -1.
        -11    1    3    3    0    0 -0.14376297465E+02  0.54790738798E+01 -0.26449370008E+02  0.30598486131E+02  0.51100000000E-03 0.  1.
         12    1    3    3    0    0 -0.12677246545E+02 -0.21258554288E+01 -0.30550706034E+01  0.13212316136E+02  0.00000000000E+00 0. -1.
</event>
<event>
 7    1  0.2328615E-009  0.4778727E+02  0.7816164E-02  0.1312668E+00
        -11   -1    0    0    0    0  0.00000000000E+00  0.00000000000E+00  0.45593999997E+02  0.45594000000E+02  0.51100000000E-03 0.  1.
         11   -1    0    0    0    0 -0.00000000000E+00 -0.00000000000E+00 -0.45593999997E+02  0.45594000000E+02  0.51100000000E-03 0. -1.
    9900012    2    1    2    0    0 -0.16743037149E+02  0.23934503084E+02  0.32100366288E+02  0.47787271358E+02  0.20000001428E+02 0.  0.
         12    1    1    2    0    0  0.16743037149E+02 -0.23934503084E+02 -0.32100366288E+02  0.43400728642E+02  0.00000000000E+00 0. -1.
         11    1    3    3    0    0  0.16209600425E+01 -0.53509933493E+00  0.55774939730E+01  0.58328622509E+01  0.51100000000E-03 0. -1.
        -11    1    3    3    0    0  0.12323467266E+01  0.15161130301E+01  0.34486108697E+01  0.39636087554E+01  0.51100000000E-03 0.  1.
        -12    1    3    3    0    0 -0.19596343918E+02  0.22953489389E+02  0.23074261445E+02  0.37990800351E+02  0.00000000000E+00 0.  1.
</event>
<event>
 7    1  0.2328615E-009  0.4778727E+02  0.7816164E-02  0.1312668E+00
        -11   -1    0    0    0    0  0.00000000000E+00  0.00000000000E+00  0.45593999997E+02  0.45594000000E+02  0.51100000000E-03 0. -1.
         11   -1    0    0    0    0 -0.00000000000E+00 -0.00000000000E+00 -0.45593999997E+02  0.45594000000E+02  0.51100000000E-03 0.  1.
    9900012    2    1    2    0    0 -0.31169874777E+01 -0.43267806588E+02  0.13433869050E+01  0.47787269750E+02  0.19999994099E+02 0.  0.
         12    1    1    2    0    0  0.31169874777E+01  0.43267806588E+02 -0.13433869050E+01  0.43400730250E+02  0.00000000000E+00 0. -1.
         11    1    3    3    0    0 -0.77746883152E+00  0.10202428101E+01  0.58378602734E+00  0.14093117336E+01  0.51100000000E-03 0. -1.
        -11    1    3    3    0    0 -0.10551014855E+01  0.61169173198E+00  0.80230595299E+00  0.14598291075E+01  0.51100000000E-03 0.  1.
        -12    1    3    3    0    0 -0.12844171607E+01 -0.44899741130E+02 -0.42705075287E-01  0.44918128909E+02  0.00000000000E+00 0.  1.
</event>
<event>
 7    1  0.2328615E-009  0.4778727E+02  0.7816164E-02  0.1312668E+00
        -11   -1    0    0    0    0  0.00000000000E+00  0.00000000000E+00  0.45593999997E+02  0.45594000000E+02  0.51100000000E-03 0. -1.
         11   -1    0    0    0    0 -0.00000000000E+00 -0.00000000000E+00 -0.45593999997E+02  0.45594000000E+02  0.51100000000E-03 0.  1.
    9900012    2    1    2    0    0 -0.43068801346E+02  0.91605724007E+00 -0.52784837840E+01  0.47787271881E+02  0.20000003813E+02 0.  0.
         12    1    1    2    0    0  0.43068801346E+02 -0.91605724007E+00  0.52784837840E+01  0.43400728119E+02  0.00000000000E+00 0. -1.
         11    1    3    3    0    0 -0.14567694110E+02 -0.31221266401E+01  0.26186647063E+01  0.15126889686E+02  0.51100000000E-03 0. -1.
        -11    1    3    3    0    0 -0.15977301311E+02  0.73736277474E+00  0.23230006625E+01  0.16162122181E+02  0.51100000000E-03 0.  1.
        -12    1    3    3    0    0 -0.12523805924E+02  0.33008211054E+01 -0.10220149153E+02  0.16498260014E+02  0.00000000000E+00 0.  1.
</event>
<event>
 7    1  0.2328615E-009  0.4778727E+02  0.7816164E-02  0.1312668E+00
        -11   -1    0    0    0    0  0.00000000000E+00  0.00000000000E+00  0.45593999997E+02  0.45594000000E+02  0.51100000000E-03 0. -1.
         11   -1    0    0    0    0 -0.00000000000E+00 -0.00000000000E+00 -0.45593999997E+02  0.45594000000E+02  0.51100000000E-03 0.  1.
    9900012    2    1    2    0    0  0.26168804979E+02 -0.69557765011E+01 -0.33918046148E+02  0.47787273794E+02  0.20000012535E+02 0.  0.
         12    1    1    2    0    0 -0.26168804979E+02  0.69557765011E+01  0.33918046148E+02  0.43400726206E+02  0.00000000000E+00 0. -1.
         11    1    3    3    0    0 -0.13154051409E+01 -0.32217979530E+01 -0.30753138475E+01  0.46441175972E+01  0.51100000000E-03 0. -1.
        -11    1    3    3    0    0  0.11389191175E+01  0.58169699554E+00 -0.77198794947E+01  0.78250909148E+01  0.51100000000E-03 0.  1.
        -12    1    3    3    0    0  0.26345291002E+02 -0.43156755437E+01 -0.23122852806E+02  0.35318065282E+02  0.00000000000E+00 0.  1.
</event>
<event>
 7    1  0.2328615E-009  0.4778727E+02  0.7816164E-02  0.1312668E+00
        -11   -1    0    0    0    0  0.00000000000E+00  0.00000000000E+00  0.45593999997E+02  0.45594000000E+02  0.51100000000E-03 0.  1.
         11   -1    0    0    0    0 -0.00000000000E+00 -0.00000000000E+00 -0.45593999997E+02  0.45594000000E+02  0.51100000000E-03 0. -1.
    9900012    2    1    2    0    0 -0.97532333522E-01 -0.25776372496E+02  0.34916942780E+02  0.47787265159E+02  0.19999973168E+02 0.  0.
         12    1    1    2    0    0  0.97532333522E-01  0.25776372496E+02 -0.34916942780E+02  0.43400734841E+02  0.00000000000E+00 0. -1.
         11    1    3    3    0    0 -0.26288273413E+01 -0.10507787072E+02  0.69726778872E+01  0.12881869411E+02  0.51100000000E-03 0. -1.
        -11    1    3    3    0    0  0.35902818573E+01 -0.11951469551E+02  0.83753808013E+01  0.15029130117E+02  0.51100000000E-03 0.  1.
        -12    1    3    3    0    0 -0.10589868495E+01 -0.33171158727E+01  0.19568884092E+02  0.19876265631E+02  0.00000000000E+00 0.  1.
</event>
<event>
 7    1  0.2328615E-009  0.4778727E+02  0.7816164E-02  0.1312668E+00
        -11   -1    0    0    0    0  0.00000000000E+00  0.00000000000E+00  0.45593999997E+02  0.45594000000E+02  0.51100000000E-03 0.  1.
         11   -1    0    0    0    0 -0.00000000000E+00 -0.00000000000E+00 -0.45593999997E+02  0.45594000000E+02  0.51100000000E-03 0. -1.
    9900012    2    1    2    0    0  0.32441214101E+02  0.21939204283E+01  0.28746784057E+02  0.47787271287E+02  0.20000001107E+02 0.  0.
         12    1    1    2    0    0 -0.32441214101E+02 -0.21939204283E+01 -0.28746784057E+02  0.43400728713E+02  0.00000000000E+00 0. -1.
         11    1    3    3    0    0  0.21735914257E+01 -0.41772416562E+01  0.49792154109E+01  0.68532061044E+01  0.51100000000E-03 0. -1.
        -11    1    3    3    0    0  0.57948921094E+01  0.42851425594E+01  0.11265889154E+02  0.13373985195E+02  0.51100000000E-03 0.  1.
         12    1    3    3    0    0  0.24472730565E+02  0.20860195251E+01  0.12501679492E+02  0.27560079988E+02  0.00000000000E+00 0. -1.
</event>
<event>
 7    1  0.2328615E-009  0.4778726E+02  0.7816164E-02  0.1312668E+00
        -11   -1    0    0    0    0  0.00000000000E+00  0.00000000000E+00  0.45593999997E+02  0.45594000000E+02  0.51100000000E-03 0.  1.
         11   -1    0    0    0    0 -0.00000000000E+00 -0.00000000000E+00 -0.45593999997E+02  0.45594000000E+02  0.51100000000E-03 0. -1.
    9900012    2    1    2    0    0  0.17294942362E+00  0.42449146713E+01  0.43192302393E+02  0.47787260397E+02  0.19999951453E+02 0.  0.
         12    1    1    2    0    0 -0.17294942362E+00 -0.42449146713E+01 -0.43192302393E+02  0.43400739603E+02  0.00000000000E+00 0. -1.
         11    1    3    3    0    0  0.10114243206E+01  0.59564030750E+01  0.71846536256E+01  0.93872767473E+01  0.51100000000E-03 0. -1.
        -11    1    3    3    0    0  0.81966431692E+00  0.47943707701E+01  0.25287157163E+02  0.25750692386E+02  0.51100000000E-03 0.  1.
         12    1    3    3    0    0 -0.16581392139E+01 -0.65058591738E+01  0.10720491604E+02  0.12649291264E+02  0.00000000000E+00 0. -1.
</event>
<event>
 7    1  0.2328615E-009  0.4778727E+02  0.7816164E-02  0.1312668E+00
        -11   -1    0    0    0    0  0.00000000000E+00  0.00000000000E+00  0.45593999997E+02  0.45594000000E+02  0.51100000000E-03 0. -1.
         11   -1    0    0    0    0 -0.00000000000E+00 -0.00000000000E+00 -0.45593999997E+02  0.45594000000E+02  0.51100000000E-03 0.  1.
    9900012    2    1    2    0    0  0.69305559242E+01  0.30847037918E+02 -0.29732990960E+02  0.47787272988E+02  0.20000008862E+02 0.  0.
         12    1    1    2    0    0 -0.69305559242E+01 -0.30847037918E+02  0.29732990960E+02  0.43400727012E+02  0.00000000000E+00 0. -1.
         11    1    3    3    0    0 -0.13711747216E+00  0.12813433346E+02 -0.16234974155E+02  0.20682776927E+02  0.51100000000E-03 0.  1.
        -11    1    3    3    0    0 -0.33560211210E+01  0.12157409519E+01 -0.10200700546E+01  0.37123371350E+01  0.51100000000E-03 0. -1.
        -12    1    3    3    0    0  0.10423694517E+02  0.16817863620E+02 -0.12477946750E+02  0.23392158926E+02  0.00000000000E+00 0.  1.
</event>
<event>
 7    1  0.2328615E-009  0.4778728E+02  0.7816164E-02  0.1312668E+00
        -11   -1    0    0    0    0  0.00000000000E+00  0.00000000000E+00  0.45593999997E+02  0.45594000000E+02  0.51100000000E-03 0.  1.
         11   -1    0    0    0    0 -0.00000000000E+00 -0.00000000000E+00 -0.45593999997E+02  0.45594000000E+02  0.51100000000E-03 0. -1.
    9900012    2    1    2    0    0 -0.24619803546E+02 -0.35280496870E+02  0.57249211942E+01  0.47787275251E+02  0.20000019182E+02 0.  0.
         12    1    1    2    0    0  0.24619803546E+02  0.35280496870E+02 -0.57249211942E+01  0.43400724749E+02  0.00000000000E+00 0. -1.
         11    1    3    3    0    0 -0.83470029823E+01 -0.11377945663E+02 -0.37799943027E+01  0.14608848808E+02  0.51100000000E-03 0. -1.
        -11    1    3    3    0    0 -0.64317134448E+01 -0.14899632504E+02 -0.91284061840E+00  0.16254207604E+02  0.51100000000E-03 0.  1.
         12    1    3    3    0    0 -0.98410871186E+01 -0.90029187031E+01  0.10417756115E+02  0.16924218840E+02  0.00000000000E+00 0. -1.
</event>
<event>
 7    1  0.2328615E-009  0.4778727E+02  0.7816164E-02  0.1312668E+00
        -11   -1    0    0    0    0  0.00000000000E+00  0.00000000000E+00  0.45593999997E+02  0.45594000000E+02  0.51100000000E-03 0.  1.
         11   -1    0    0    0    0 -0.00000000000E+00 -0.00000000000E+00 -0.45593999997E+02  0.45594000000E+02  0.51100000000E-03 0. -1.
    9900012    2    1    2    0    0 -0.48540468262E+01  0.25823728196E+02  0.34542683354E+02  0.47787266344E+02  0.19999978571E+02 0.  0.
         12    1    1    2    0    0  0.48540468262E+01 -0.25823728196E+02 -0.34542683354E+02  0.43400733656E+02  0.00000000000E+00 0. -1.
         11    1    3    3    0    0 -0.28179279736E+01 -0.15928629077E+01  0.51966247614E+01  0.61223230460E+01  0.51100000000E-03 0. -1.
        -11    1    3    3    0    0 -0.42769802382E+00  0.30012250250E+01 -0.49850595735E+00  0.30722606825E+01  0.51100000000E-03 0.  1.
        -12    1    3    3    0    0 -0.16084208288E+01  0.24415366079E+02  0.29844564550E+02  0.38592682616E+02  0.00000000000E+00 0.  1.
</event>
<event>
 7    1  0.2328615E-009  0.4778727E+02  0.7816164E-02  0.1312668E+00
        -11   -1    0    0    0    0  0.00000000000E+00  0.00000000000E+00  0.45593999997E+02  0.45594000000E+02  0.51100000000E-03 0. -1.
         11   -1    0    0    0    0 -0.00000000000E+00 -0.00000000000E+00 -0.45593999997E+02  0.45594000000E+02  0.51100000000E-03 0.  1.
    9900012    2    1    2    0    0  0.10643960035E+02 -0.37534075468E+02  0.19013753390E+02  0.47787268157E+02  0.19999986837E+02 0.  0.
         12    1    1    2    0    0 -0.10643960035E+02  0.37534075468E+02 -0.19013753390E+02  0.43400731843E+02  0.00000000000E+00 0. -1.
         11    1    3    3    0    0 -0.39862598227E+00 -0.20062080848E+02  0.13990843846E+02  0.24462005281E+02  0.51100000000E-03 0. -1.
        -11    1    3    3    0    0  0.16067153318E+01 -0.11400511753E+02  0.32713905204E+01  0.11968926376E+02  0.51100000000E-03 0.  1.
         12    1    3    3    0    0  0.94358706858E+01 -0.60714828674E+01  0.17515190235E+01  0.11356336500E+02  0.00000000000E+00 0. -1.
</event>
<event>
 7    1  0.2328615E-009  0.4778727E+02  0.7816164E-02  0.1312668E+00
        -11   -1    0    0    0    0  0.00000000000E+00  0.00000000000E+00  0.45593999997E+02  0.45594000000E+02  0.51100000000E-03 0. -1.
         11   -1    0    0    0    0 -0.00000000000E+00 -0.00000000000E+00 -0.45593999997E+02  0.45594000000E+02  0.51100000000E-03 0.  1.
    9900012    2    1    2    0    0 -0.96430962446E+01  0.26318043994E+02 -0.33136000747E+02  0.47787270854E+02  0.19999999134E+02 0.  0.
         12    1    1    2    0    0  0.96430962446E+01 -0.26318043994E+02  0.33136000747E+02  0.43400729146E+02  0.00000000000E+00 0. -1.
         11    1    3    3    0    0 -0.11986508801E+02  0.13498281526E+02 -0.10773275110E+02  0.21022451195E+02  0.51100000000E-03 0. -1.
        -11    1    3    3    0    0  0.37965601734E+00  0.47588019029E+01 -0.28462190554E+01  0.55579940100E+01  0.51100000000E-03 0.  1.
         12    1    3    3    0    0  0.19637565396E+01  0.80609605658E+01 -0.19516506581E+02  0.21206825649E+02  0.00000000000E+00 0. -1.
</event>
<event>
 7    1  0.2328615E-009  0.4778729E+02  0.7816164E-02  0.1312668E+00
        -11   -1    0    0    0    0  0.00000000000E+00  0.00000000000E+00  0.45593999997E+02  0.45594000000E+02  0.51100000000E-03 0.  1.
         11   -1    0    0    0    0 -0.00000000000E+00 -0.00000000000E+00 -0.45593999997E+02  0.45594000000E+02  0.51100000000E-03 0. -1.
    9900012    2    1    2    0    0 -0.16285577756E+02 -0.26775782143E+02  0.30024314457E+02  0.47787285595E+02  0.20000066343E+02 0.  0.
         12    1    1    2    0    0  0.16285577756E+02  0.26775782143E+02 -0.30024314457E+02  0.43400714405E+02  0.00000000000E+00 0. -1.
         11    1    3    3    0    0 -0.22917418861E+01 -0.15275827686E+02  0.21421575740E+02  0.26409977278E+02  0.51100000000E-03 0. -1.
        -11    1    3    3    0    0 -0.77437669646E+01 -0.58060865672E+01  0.85622648119E+01  0.12922420323E+02  0.51100000000E-03 0.  1.
         12    1    3    3    0    0 -0.62500689055E+01 -0.56938678897E+01  0.40473905239E-01  0.84548879949E+01  0.00000000000E+00 0. -1.
</event>
<event>
 7    1  0.2328615E-009  0.4778726E+02  0.7816164E-02  0.1312668E+00
        -11   -1    0    0    0    0  0.00000000000E+00  0.00000000000E+00  0.45593999997E+02  0.45594000000E+02  0.51100000000E-03 0.  1.
         11   -1    0    0    0    0 -0.00000000000E+00 -0.00000000000E+00 -0.45593999997E+02  0.45594000000E+02  0.51100000000E-03 0. -1.
    9900012    2    1    2    0    0 -0.22340223995E+02 -0.17741408518E+02  0.32707501767E+02  0.47787264336E+02  0.19999969414E+02 0.  0.
         12    1    1    2    0    0  0.22340223995E+02  0.17741408518E+02 -0.32707501767E+02  0.43400735664E+02  0.00000000000E+00 0. -1.
         11    1    3    3    0    0 -0.52687180655E+01 -0.21313180754E+01  0.86437008394E+00  0.57488296805E+01  0.51100000000E-03 0. -1.
        -11    1    3    3    0    0 -0.15522952402E+02 -0.11520213293E+02  0.14532954734E+02  0.24184377999E+02  0.51100000000E-03 0.  1.
        -12    1    3    3    0    0 -0.15485535271E+01 -0.40898771496E+01  0.17310176948E+02  0.17854056657E+02  0.00000000000E+00 0.  1.
</event>
<event>
 7    1  0.3219217E-009  0.4778726E+02  0.7816164E-02  0.1312668E+00
        -11   -1    0    0    0    0  0.00000000000E+00  0.00000000000E+00  0.45593999997E+02  0.45594000000E+02  0.51100000000E-03 0.  1.
         11   -1    0    0    0    0 -0.00000000000E+00 -0.00000000000E+00 -0.45593999997E+02  0.45594000000E+02  0.51100000000E-03 0. -1.
    9900012    2    1    2    0    0  0.22997415084E+02  0.28029269779E+02  0.23855878235E+02  0.47787262780E+02  0.19999962318E+02 0.  0.
         12    1    1    2    0    0 -0.22997415084E+02 -0.28029269779E+02 -0.23855878235E+02  0.43400737220E+02  0.00000000000E+00 0. -1.
         11    1    3    3    0    0  0.30437117996E+01  0.32266749884E+00 -0.15502291263E+01  0.34309629026E+01  0.51100000000E-03 0. -1.
        -11    1    3    3    0    0  0.16563804242E+02  0.17265759642E+02  0.11240340002E+02  0.26435039448E+02  0.51100000000E-03 0.  1.
        -12    1    3    3    0    0  0.33898990432E+01  0.10440842638E+02  0.14165767359E+02  0.17921260429E+02  0.00000000000E+00 0.  1.
</event>
<event>
 7    1  0.2328615E-009  0.4778726E+02  0.7816164E-02  0.1312668E+00
        -11   -1    0    0    0    0  0.00000000000E+00  0.00000000000E+00  0.45593999997E+02  0.45594000000E+02  0.51100000000E-03 0.  1.
         11   -1    0    0    0    0 -0.00000000000E+00 -0.00000000000E+00 -0.45593999997E+02  0.45594000000E+02  0.51100000000E-03 0. -1.
    9900012    2    1    2    0    0  0.40173230812E+02 -0.73959490136E+01  0.14664084862E+02  0.47787263595E+02  0.19999966034E+02 0.  0.
         12    1    1    2    0    0 -0.40173230812E+02  0.73959490136E+01 -0.14664084862E+02  0.43400736405E+02  0.00000000000E+00 0. -1.
         11    1    3    3    0    0  0.99439570269E+01 -0.71609697825E+01  0.42888166241E+01  0.12982900981E+02  0.51100000000E-03 0. -1.
        -11    1    3    3    0    0  0.47312633855E+01 -0.14382637818E+01 -0.32025499511E+01  0.58915008596E+01  0.51100000000E-03 0.  1.
        -12    1    3    3    0    0  0.25498010399E+02  0.12032845507E+01  0.13577818189E+02  0.28912861754E+02  0.00000000000E+00 0.  1.
</event>
<event>
 7    1  0.2328615E-009  0.4778729E+02  0.7816164E-02  0.1312668E+00
        -11   -1    0    0    0    0  0.00000000000E+00  0.00000000000E+00  0.45593999997E+02  0.45594000000E+02  0.51100000000E-03 0. -1.
         11   -1    0    0    0    0 -0.00000000000E+00 -0.00000000000E+00 -0.45593999997E+02  0.45594000000E+02  0.51100000000E-03 0.  1.
    9900012    2    1    2    0    0  0.21114210173E+02  0.35142926998E+02  0.14240296647E+02  0.47787294501E+02  0.20000106946E+02 0.  0.
         12    1    1    2    0    0 -0.21114210173E+02 -0.35142926998E+02 -0.14240296647E+02  0.43400705499E+02  0.00000000000E+00 0. -1.
         11    1    3    3    0    0  0.94854648006E+00  0.30903903380E+01  0.58967847910E+01  0.67247545679E+01  0.51100000000E-03 0. -1.
        -11    1    3    3    0    0  0.20655152276E+01  0.17711329129E+01  0.49148364145E+01  0.56177292737E+01  0.51100000000E-03 0.  1.
        -12    1    3    3    0    0  0.18100148465E+02  0.30281403747E+02  0.34286754420E+01  0.35444810659E+02  0.00000000000E+00 0.  1.
</event>
<event>
 7    1  0.2328615E-009  0.4778727E+02  0.7816164E-02  0.1312668E+00
        -11   -1    0    0    0    0  0.00000000000E+00  0.00000000000E+00  0.45593999997E+02  0.45594000000E+02  0.51100000000E-03 0. -1.
         11   -1    0    0    0    0 -0.00000000000E+00 -0.00000000000E+00 -0.45593999997E+02  0.45594000000E+02  0.51100000000E-03 0.  1.
    9900012    2    1    2    0    0  0.28917422313E+02  0.26383895335E+02 -0.18742894944E+02  0.47787270085E+02  0.19999995625E+02 0.  0.
         12    1    1    2    0    0 -0.28917422313E+02 -0.26383895335E+02  0.18742894944E+02  0.43400729915E+02  0.00000000000E+00 0. -1.
         11    1    3    3    0    0 -0.92693200881E+00  0.40718789134E+01 -0.32719836889E+01  0.53052123762E+01  0.51100000000E-03 0. -1.
        -11    1    3    3    0    0  0.80190086854E+01  0.12927630074E+02 -0.96724111389E+01  0.18027303102E+02  0.51100000000E-03 0.  1.
        -12    1    3    3    0    0  0.21825345637E+02  0.93843863471E+01 -0.57985001156E+01  0.24454754606E+02  0.00000000000E+00 0.  1.
</event>
<event>
 7    1  0.2328615E-009  0.4778728E+02  0.7816164E-02  0.1312668E+00
        -11   -1    0    0    0    0  0.00000000000E+00  0.00000000000E+00  0.45593999997E+02  0.45594000000E+02  0.51100000000E-03 0. -1.
         11   -1    0    0    0    0 -0.00000000000E+00 -0.00000000000E+00 -0.45593999997E+02  0.45594000000E+02  0.51100000000E-03 0.  1.
    9900012    2    1    2    0    0  0.40100224180E+02 -0.39495106058E+01 -0.16124377113E+02  0.47787283985E+02  0.20000059000E+02 0.  0.
         12    1    1    2    0    0 -0.40100224180E+02  0.39495106058E+01  0.16124377113E+02  0.43400716015E+02  0.00000000000E+00 0. -1.
         11    1    3    3    0    0  0.25631939087E+02 -0.41278420482E+01 -0.77506151668E+01  0.27094416714E+02  0.51100000000E-03 0. -1.
        -11    1    3    3    0    0  0.16175139346E+02  0.19127726855E+01 -0.82455809616E+01  0.18256052089E+02  0.51100000000E-03 0.  1.
         12    1    3    3    0    0 -0.17068542529E+01 -0.17344412432E+01 -0.12818098493E+00  0.24368151821E+01  0.00000000000E+00 0. -1.
</event>
<event>
 7    1  0.2328615E-009  0.4778727E+02  0.7816164E-02  0.1312668E+00
        -11   -1    0    0    0    0  0.00000000000E+00  0.00000000000E+00  0.45593999997E+02  0.45594000000E+02  0.51100000000E-03 0. -1.
         11   -1    0    0    0    0 -0.00000000000E+00 -0.00000000000E+00 -0.45593999997E+02  0.45594000000E+02  0.51100000000E-03 0.  1.
    9900012    2    1    2    0    0 -0.34808089992E+02 -0.15357461045E+02 -0.20884640313E+02  0.47787274895E+02  0.20000017557E+02 0.  0.
         12    1    1    2    0    0  0.34808089992E+02  0.15357461045E+02  0.20884640313E+02  0.43400725105E+02  0.00000000000E+00 0. -1.
         11    1    3    3    0    0 -0.18536872176E+02 -0.10061244603E+02 -0.50126238522E+01  0.21678806959E+02  0.51100000000E-03 0. -1.
        -11    1    3    3    0    0 -0.17027451138E+02 -0.26310005423E+01 -0.10815801968E+02  0.20343004414E+02  0.51100000000E-03 0.  1.
         12    1    3    3    0    0  0.75623332231E+00 -0.26652158996E+01 -0.50562144924E+01  0.57654635219E+01  0.00000000000E+00 0. -1.
</event>
<event>
 7    1  0.2328615E-009  0.4778726E+02  0.7816164E-02  0.1312668E+00
        -11   -1    0    0    0    0  0.00000000000E+00  0.00000000000E+00  0.45593999997E+02  0.45594000000E+02  0.51100000000E-03 0.  1.
         11   -1    0    0    0    0 -0.00000000000E+00 -0.00000000000E+00 -0.45593999997E+02  0.45594000000E+02  0.51100000000E-03 0. -1.
    9900012    2    1    2    0    0 -0.89382907001E+01  0.29687357502E+02  0.30370902376E+02  0.47787263287E+02  0.19999964631E+02 0.  0.
         12    1    1    2    0    0  0.89382907001E+01 -0.29687357502E+02 -0.30370902376E+02  0.43400736713E+02  0.00000000000E+00 0. -1.
         11    1    3    3    0    0 -0.15596638271E+00  0.25093431553E+01  0.66746595511E+01  0.71324756549E+01  0.51100000000E-03 0. -1.
        -11    1    3    3    0    0  0.42745736844E+01  0.21201677675E+01  0.31176996889E+01  0.56997493942E+01  0.51100000000E-03 0.  1.
         12    1    3    3    0    0 -0.13056898002E+02  0.25057846579E+02  0.20578543136E+02  0.34955038238E+02  0.00000000000E+00 0. -1.
</event>
<event>
 7    1  0.2328615E-009  0.4778727E+02  0.7816164E-02  0.1312668E+00
        -11   -1    0    0    0    0  0.00000000000E+00  0.00000000000E+00  0.45593999997E+02  0.45594000000E+02  0.51100000000E-03 0. -1.
         11   -1    0    0    0    0 -0.00000000000E+00 -0.00000000000E+00 -0.45593999997E+02  0.45594000000E+02  0.51100000000E-03 0.  1.
    9900012    2    1    2    0    0 -0.38719736983E+00  0.39851583155E+02 -0.17185011716E+02  0.47787271557E+02  0.20000002335E+02 0.  0.
         12    1    1    2    0    0  0.38719736983E+00 -0.39851583155E+02  0.17185011716E+02  0.43400728443E+02  0.00000000000E+00 0. -1.
         11    1    3    3    0    0 -0.21672658286E+01  0.11063212560E+02 -0.72682658721E+01  0.13413403832E+02  0.51100000000E-03 0. -1.
        -11    1    3    3    0    0 -0.61375713534E+01  0.14866352144E+02 -0.11721316371E+01  0.16126131000E+02  0.51100000000E-03 0.  1.
         12    1    3    3    0    0  0.79176398122E+01  0.13922018451E+02 -0.87446142067E+01  0.18247736725E+02  0.00000000000E+00 0. -1.
</event>
<event>
 7    1  0.2328615E-009  0.4778727E+02  0.7816164E-02  0.1312668E+00
        -11   -1    0    0    0    0  0.00000000000E+00  0.00000000000E+00  0.45593999997E+02  0.45594000000E+02  0.51100000000E-03 0. -1.
         11   -1    0    0    0    0 -0.00000000000E+00 -0.00000000000E+00 -0.45593999997E+02  0.45594000000E+02  0.51100000000E-03 0.  1.
    9900012    2    1    2    0    0 -0.90794027780E+01  0.40817486766E+02 -0.11624150026E+02  0.47787266774E+02  0.19999980530E+02 0.  0.
         12    1    1    2    0    0  0.90794027780E+01 -0.40817486766E+02  0.11624150026E+02  0.43400733226E+02  0.00000000000E+00 0. -1.
         11    1    3    3    0    0 -0.95992730218E+01  0.85923764854E+01 -0.24576173337E-02  0.12883127823E+02  0.51100000000E-03 0. -1.
        -11    1    3    3    0    0 -0.29210010851E+01  0.10370919151E+02 -0.42976626680E+01  0.11599918795E+02  0.51100000000E-03 0.  1.
        -12    1    3    3    0    0  0.34408713289E+01  0.21854191130E+02 -0.73240297403E+01  0.23304220156E+02  0.00000000000E+00 0.  1.
</event>
<event>
 7    1  0.2328615E-009  0.4778727E+02  0.7816164E-02  0.1312668E+00
        -11   -1    0    0    0    0  0.00000000000E+00  0.00000000000E+00  0.45593999997E+02  0.45594000000E+02  0.51100000000E-03 0.  1.
         11   -1    0    0    0    0 -0.00000000000E+00 -0.00000000000E+00 -0.45593999997E+02  0.45594000000E+02  0.51100000000E-03 0. -1.
    9900012    2    1    2    0    0 -0.26845090711E+02 -0.44527804549E+01  0.33810309630E+02  0.47787272053E+02  0.20000004598E+02 0.  0.
         12    1    1    2    0    0  0.26845090711E+02  0.44527804549E+01 -0.33810309630E+02  0.43400727947E+02  0.00000000000E+00 0. -1.
         11    1    3    3    0    0 -0.56440547036E+01 -0.59668759156E+01  0.13513988009E+02  0.15814133990E+02  0.51100000000E-03 0. -1.
        -11    1    3    3    0    0  0.33114649931E+00 -0.15045674129E+01 -0.74933472946E+00  0.17131502858E+01  0.51100000000E-03 0.  1.
        -12    1    3    3    0    0 -0.21532182507E+02  0.30186628736E+01  0.21045656351E+02  0.30259987777E+02  0.00000000000E+00 0.  1.
</event>
<event>
 7    1  0.2328615E-009  0.4778727E+02  0.7816164E-02  0.1312668E+00
        -11   -1    0    0    0    0  0.00000000000E+00  0.00000000000E+00  0.45593999997E+02  0.45594000000E+02  0.51100000000E-03 0.  1.
         11   -1    0    0    0    0 -0.00000000000E+00 -0.00000000000E+00 -0.45593999997E+02  0.45594000000E+02  0.51100000000E-03 0. -1.
    9900012    2    1    2    0    0 -0.36369308259E+02  0.17302803447E+02  0.16171258590E+02  0.47787271956E+02  0.20000004156E+02 0.  0.
         12    1    1    2    0    0  0.36369308259E+02 -0.17302803447E+02 -0.16171258590E+02  0.43400728044E+02  0.00000000000E+00 0. -1.
         11    1    3    3    0    0 -0.52486271023E+01 -0.18221250625E+01 -0.10016686969E+01  0.56454908238E+01  0.51100000000E-03 0. -1.
        -11    1    3    3    0    0 -0.15114732598E+01 -0.15997847821E+01  0.18924247507E+01  0.29026082172E+01  0.51100000000E-03 0.  1.
        -12    1    3    3    0    0 -0.29609207897E+02  0.20724713292E+02  0.15280502536E+02  0.39239172915E+02  0.00000000000E+00 0.  1.
</event>
<event>
 7    1  0.2328615E-009  0.4778727E+02  0.7816164E-02  0.1312668E+00
        -11   -1    0    0    0    0  0.00000000000E+00  0.00000000000E+00  0.45593999997E+02  0.45594000000E+02  0.51100000000E-03 0. -1.
         11   -1    0    0    0    0 -0.00000000000E+00 -0.00000000000E+00 -0.45593999997E+02  0.45594000000E+02  0.51100000000E-03 0.  1.
    9900012    2    1    2    0    0  0.78983669094E+00  0.11533646608E+02 -0.41832692848E+02  0.47787273774E+02  0.20000012443E+02 0.  0.
         12    1    1    2    0    0 -0.78983669094E+00 -0.11533646608E+02  0.41832692848E+02  0.43400726226E+02  0.00000000000E+00 0. -1.
         11    1    3    3    0    0  0.23579091694E+01  0.85743272470E-01 -0.23986314208E+01  0.33645981207E+01  0.51100000000E-03 0. -1.
        -11    1    3    3    0    0 -0.45021385703E+01 -0.31131424125E+01 -0.12915218386E+02  0.14027251107E+02  0.51100000000E-03 0.  1.
        -12    1    3    3    0    0  0.29340660919E+01  0.14561045748E+02 -0.26518843041E+02  0.30395424546E+02  0.00000000000E+00 0.  1.
</event>
<event>
 7    1  0.2328615E-009  0.4778727E+02  0.7816164E-02  0.1312668E+00
        -11   -1    0    0    0    0  0.00000000000E+00  0.00000000000E+00  0.45593999997E+02  0.45594000000E+02  0.51100000000E-03 0.  1.
         11   -1    0    0    0    0 -0.00000000000E+00 -0.00000000000E+00 -0.45593999997E+02  0.45594000000E+02  0.51100000000E-03 0. -1.
    9900012    2    1    2    0    0 -0.35493517583E+01  0.21728561144E+02  0.37401807855E+02  0.47787268461E+02  0.19999988222E+02 0.  0.
         12    1    1    2    0    0  0.35493517583E+01 -0.21728561144E+02 -0.37401807855E+02  0.43400731539E+02  0.00000000000E+00 0. -1.
         11    1    3    3    0    0  0.18128643653E+01  0.71780945628E+01  0.10694555118E+02  0.13007114522E+02  0.51100000000E-03 0. -1.
        -11    1    3    3    0    0 -0.86780516045E+01  0.13900984179E+02  0.13756732673E+02  0.21396112612E+02  0.51100000000E-03 0.  1.
        -12    1    3    3    0    0  0.33158354809E+01  0.64948240222E+00  0.12950520064E+02  0.13384041327E+02  0.00000000000E+00 0.  1.
</event>
<event>
 7    1  0.2328615E-009  0.4778727E+02  0.7816164E-02  0.1312668E+00
        -11   -1    0    0    0    0  0.00000000000E+00  0.00000000000E+00  0.45593999997E+02  0.45594000000E+02  0.51100000000E-03 0.  1.
         11   -1    0    0    0    0 -0.00000000000E+00 -0.00000000000E+00 -0.45593999997E+02  0.45594000000E+02  0.51100000000E-03 0. -1.
    9900012    2    1    2    0    0 -0.35041697067E+02  0.25471658348E+02 -0.26263039138E+01  0.47787269769E+02  0.19999994184E+02 0.  0.
         12    1    1    2    0    0  0.35041697067E+02 -0.25471658348E+02  0.26263039138E+01  0.43400730231E+02  0.00000000000E+00 0. -1.
         11    1    3    3    0    0 -0.88835896747E+01  0.43375888049E+01  0.54470683946E+01  0.11287311305E+02  0.51100000000E-03 0. -1.
        -11    1    3    3    0    0 -0.12141272254E+02  0.58508421231E+01  0.16825844519E+01  0.13582118252E+02  0.51100000000E-03 0.  1.
        -12    1    3    3    0    0 -0.14016835138E+02  0.15283227420E+02 -0.97559567603E+01  0.22917840212E+02  0.00000000000E+00 0.  1.
</event>
<event>
 7    1  0.2328615E-009  0.4778727E+02  0.7816164E-02  0.1312668E+00
        -11   -1    0    0    0    0  0.00000000000E+00  0.00000000000E+00  0.45593999997E+02  0.45594000000E+02  0.51100000000E-03 0. -1.
         11   -1    0    0    0    0 -0.00000000000E+00 -0.00000000000E+00 -0.45593999997E+02  0.45594000000E+02  0.51100000000E-03 0.  1.
    9900012    2    1    2    0    0  0.38246474106E+02 -0.19590468903E+01 -0.20420399170E+02  0.47787270184E+02  0.19999996078E+02 0.  0.
         12    1    1    2    0    0 -0.38246474106E+02  0.19590468903E+01  0.20420399170E+02  0.43400729816E+02  0.00000000000E+00 0. -1.
         11    1    3    3    0    0  0.17331759800E+02 -0.12599437182E+01 -0.14712341285E+02  0.22769065467E+02  0.51100000000E-03 0. -1.
        -11    1    3    3    0    0  0.94672746926E+00  0.74461579061E+00 -0.48310063861E+01  0.49788923005E+01  0.51100000000E-03 0.  1.
         12    1    3    3    0    0  0.19967986838E+02 -0.14437189628E+01 -0.87705149916E+00  0.20039312416E+02  0.00000000000E+00 0. -1.
</event>
<event>
 7    1  0.2328615E-009  0.4778731E+02  0.7816164E-02  0.1312668E+00
        -11   -1    0    0    0    0  0.00000000000E+00  0.00000000000E+00  0.45593999997E+02  0.45594000000E+02  0.51100000000E-03 0. -1.
         11   -1    0    0    0    0 -0.00000000000E+00 -0.00000000000E+00 -0.45593999997E+02  0.45594000000E+02  0.51100000000E-03 0.  1.
    9900012    2    1    2    0    0 -0.34341409715E+02  0.25379927508E+02 -0.77554376210E+01  0.47787309289E+02  0.20000174370E+02 0.  0.
         12    1    1    2    0    0  0.34341409715E+02 -0.25379927508E+02  0.77554376210E+01  0.43400690711E+02  0.00000000000E+00 0. -1.
         11    1    3    3    0    0 -0.10555385249E+01  0.57176164571E-01  0.83794519838E+00  0.13489192370E+01  0.51100000000E-03 0. -1.
        -11    1    3    3    0    0 -0.22703138536E+02  0.70009022891E+01 -0.43671559744E+00  0.23762067524E+02  0.51100000000E-03 0.  1.
         12    1    3    3    0    0 -0.10582732654E+02  0.18321849054E+02 -0.81566672220E+01  0.22676322527E+02  0.00000000000E+00 0. -1.
</event>
<event>
 7    1  0.2328615E-009  0.4778727E+02  0.7816164E-02  0.1312668E+00
        -11   -1    0    0    0    0  0.00000000000E+00  0.00000000000E+00  0.45593999997E+02  0.45594000000E+02  0.51100000000E-03 0.  1.
         11   -1    0    0    0    0 -0.00000000000E+00 -0.00000000000E+00 -0.45593999997E+02  0.45594000000E+02  0.51100000000E-03 0. -1.
    9900012    2    1    2    0    0 -0.93347592102E+01 -0.22288780940E+02  0.36051292348E+02  0.47787272296E+02  0.20000005706E+02 0.  0.
         12    1    1    2    0    0  0.93347592102E+01  0.22288780940E+02 -0.36051292348E+02  0.43400727704E+02  0.00000000000E+00 0. -1.
         11    1    3    3    0    0 -0.13875414639E+00 -0.46219420018E+00  0.17298197520E+01  0.17958710497E+01  0.51100000000E-03 0.  1.
        -11    1    3    3    0    0 -0.87317170293E+00 -0.21337603797E+02  0.29307242845E+02  0.36262518501E+02  0.51100000000E-03 0. -1.
        -12    1    3    3    0    0 -0.83228333609E+01 -0.48898294264E+00  0.50142297508E+01  0.97288827450E+01  0.00000000000E+00 0.  1.
</event>
<event>
 7    1  0.2490393E-009  0.4778727E+02  0.7816164E-02  0.1312668E+00
        -11   -1    0    0    0    0  0.00000000000E+00  0.00000000000E+00  0.45593999997E+02  0.45594000000E+02  0.51100000000E-03 0.  1.
         11   -1    0    0    0    0 -0.00000000000E+00 -0.00000000000E+00 -0.45593999997E+02  0.45594000000E+02  0.51100000000E-03 0. -1.
    9900012    2    1    2    0    0 -0.36115371909E+02  0.17463097764E+02 -0.16563319708E+02  0.47787269230E+02  0.19999991726E+02 0.  0.
         12    1    1    2    0    0  0.36115371909E+02 -0.17463097764E+02  0.16563319708E+02  0.43400730770E+02  0.00000000000E+00 0. -1.
         11    1    3    3    0    0 -0.26014472301E+01  0.26182371660E+01 -0.78076140405E+01  0.86360599126E+01  0.51100000000E-03 0. -1.
        -11    1    3    3    0    0 -0.11216568679E+02 -0.21359897555E+00 -0.33445583836E+01  0.11706541269E+02  0.51100000000E-03 0.  1.
        -12    1    3    3    0    0 -0.22297356000E+02  0.15058459574E+02 -0.54111472843E+01  0.27444668048E+02  0.00000000000E+00 0.  1.
</event>
<event>
 7    1  0.2328615E-009  0.4778725E+02  0.7816164E-02  0.1312668E+00
        -11   -1    0    0    0    0  0.00000000000E+00  0.00000000000E+00  0.45593999997E+02  0.45594000000E+02  0.51100000000E-03 0. -1.
         11   -1    0    0    0    0 -0.00000000000E+00 -0.00000000000E+00 -0.45593999997E+02  0.45594000000E+02  0.51100000000E-03 0.  1.
    9900012    2    1    2    0    0 -0.38045315132E+02  0.14962281606E+02  0.14570848002E+02  0.47787245562E+02  0.19999883813E+02 0.  0.
         12    1    1    2    0    0  0.38045315132E+02 -0.14962281606E+02 -0.14570848002E+02  0.43400754438E+02  0.00000000000E+00 0. -1.
         11    1    3    3    0    0 -0.27894438583E+02  0.27542821453E+01  0.13121016378E+02  0.30949100876E+02  0.51100000000E-03 0. -1.
        -11    1    3    3    0    0 -0.75048669457E+01  0.51510449712E+01  0.18586187337E+01  0.92903582291E+01  0.51100000000E-03 0.  1.
         12    1    3    3    0    0 -0.26460096027E+01  0.70569544895E+01 -0.40878710941E+00  0.75477864560E+01  0.00000000000E+00 0. -1.
</event>
<event>
 7    1  0.2328615E-009  0.4778728E+02  0.7816164E-02  0.1312668E+00
        -11   -1    0    0    0    0  0.00000000000E+00  0.00000000000E+00  0.45593999997E+02  0.45594000000E+02  0.51100000000E-03 0. -1.
         11   -1    0    0    0    0 -0.00000000000E+00 -0.00000000000E+00 -0.45593999997E+02  0.45594000000E+02  0.51100000000E-03 0.  1.
    9900012    2    1    2    0    0 -0.33649239404E+01 -0.40843245035E+02  0.14287373167E+02  0.47787280995E+02  0.20000045370E+02 0.  0.
         12    1    1    2    0    0  0.33649239404E+01  0.40843245035E+02 -0.14287373167E+02  0.43400719005E+02  0.00000000000E+00 0. -1.
         11    1    3    3    0    0  0.16406561302E+01 -0.93574804053E+01  0.44861270174E+01  0.10506166187E+02  0.51100000000E-03 0. -1.
        -11    1    3    3    0    0 -0.97484023282E+01 -0.25729460033E+02  0.39396200669E+01  0.27794910830E+02  0.51100000000E-03 0.  1.
        -12    1    3    3    0    0  0.47428222577E+01 -0.57563045966E+01  0.58616260827E+01  0.94862039779E+01  0.00000000000E+00 0.  1.
</event>
<event>
 7    1  0.2328615E-009  0.4778727E+02  0.7816164E-02  0.1312668E+00
        -11   -1    0    0    0    0  0.00000000000E+00  0.00000000000E+00  0.45593999997E+02  0.45594000000E+02  0.51100000000E-03 0.  1.
         11   -1    0    0    0    0 -0.00000000000E+00 -0.00000000000E+00 -0.45593999997E+02  0.45594000000E+02  0.51100000000E-03 0. -1.
    9900012    2    1    2    0    0  0.13023700735E+02 -0.21662710294E+02  0.35280781439E+02  0.47787270316E+02  0.19999996680E+02 0.  0.
         12    1    1    2    0    0 -0.13023700735E+02  0.21662710294E+02 -0.35280781439E+02  0.43400729684E+02  0.00000000000E+00 0. -1.
         11    1    3    3    0    0  0.28084546313E+01 -0.38426987961E+01  0.12674496680E+01  0.49254624530E+01  0.51100000000E-03 0. -1.
        -11    1    3    3    0    0 -0.24779782576E+01 -0.11711795279E+02  0.16538010568E+02  0.20415981944E+02  0.51100000000E-03 0.  1.
        -12    1    3    3    0    0  0.12693224361E+02 -0.61082162187E+01  0.17475321203E+02  0.22445825919E+02  0.00000000000E+00 0.  1.
</event>
<event>
 7    1  0.2328615E-009  0.4778727E+02  0.7816164E-02  0.1312668E+00
        -11   -1    0    0    0    0  0.00000000000E+00  0.00000000000E+00  0.45593999997E+02  0.45594000000E+02  0.51100000000E-03 0.  1.
         11   -1    0    0    0    0 -0.00000000000E+00 -0.00000000000E+00 -0.45593999997E+02  0.45594000000E+02  0.51100000000E-03 0. -1.
    9900012    2    1    2    0    0  0.51849332687E+01  0.19900594883E+02  0.38219183098E+02  0.47787272283E+02  0.20000005645E+02 0.  0.
         12    1    1    2    0    0 -0.51849332687E+01 -0.19900594883E+02 -0.38219183098E+02  0.43400727717E+02  0.00000000000E+00 0. -1.
         11    1    3    3    0    0 -0.28892094169E+01 -0.68244120750E+00  0.48333697156E+01  0.56722764500E+01  0.51100000000E-03 0. -1.
        -11    1    3    3    0    0 -0.21405609882E+01  0.17193102051E+00  0.71954874021E+00  0.22647985055E+01  0.51100000000E-03 0.  1.
        -12    1    3    3    0    0  0.10214703674E+02  0.20411105070E+02  0.32666264643E+02  0.39850197327E+02  0.00000000000E+00 0.  1.
</event>
<event>
 7    1  0.2328615E-009  0.4778727E+02  0.7816164E-02  0.1312668E+00
        -11   -1    0    0    0    0  0.00000000000E+00  0.00000000000E+00  0.45593999997E+02  0.45594000000E+02  0.51100000000E-03 0.  1.
         11   -1    0    0    0    0 -0.00000000000E+00 -0.00000000000E+00 -0.45593999997E+02  0.45594000000E+02  0.51100000000E-03 0. -1.
    9900012    2    1    2    0    0  0.89985044387E+01 -0.25287532864E+02  0.34105580360E+02  0.47787274059E+02  0.20000013747E+02 0.  0.
         12    1    1    2    0    0 -0.89985044387E+01  0.25287532864E+02 -0.34105580360E+02  0.43400725941E+02  0.00000000000E+00 0. -1.
         11    1    3    3    0    0  0.17263826091E+01 -0.60317269064E+01  0.17961587573E+00  0.62764949223E+01  0.51100000000E-03 0. -1.
        -11    1    3    3    0    0 -0.29120645204E+01 -0.56084592019E+01  0.55149261608E+01  0.83874516517E+01  0.51100000000E-03 0.  1.
         12    1    3    3    0    0  0.10184186350E+02 -0.13647346755E+02  0.28411038324E+02  0.33123327485E+02  0.00000000000E+00 0. -1.
</event>
<event>
 7    1  0.2328615E-009  0.4778727E+02  0.7816164E-02  0.1312668E+00
        -11   -1    0    0    0    0  0.00000000000E+00  0.00000000000E+00  0.45593999997E+02  0.45594000000E+02  0.51100000000E-03 0.  1.
         11   -1    0    0    0    0 -0.00000000000E+00 -0.00000000000E+00 -0.45593999997E+02  0.45594000000E+02  0.51100000000E-03 0. -1.
    9900012    2    1    2    0    0  0.37036119972E+02  0.36163147272E+01  0.22335435453E+02  0.47787267383E+02  0.19999983305E+02 0.  0.
         12    1    1    2    0    0 -0.37036119972E+02 -0.36163147272E+01 -0.22335435453E+02  0.43400732617E+02  0.00000000000E+00 0. -1.
         11    1    3    3    0    0  0.65457104488E+01 -0.40895344855E+01  0.86736524518E+01  0.11610463587E+02  0.51100000000E-03 0. -1.
        -11    1    3    3    0    0  0.10006967905E+02 -0.29167858367E+01  0.43492158107E+01  0.11294366946E+02  0.51100000000E-03 0.  1.
        -12    1    3    3    0    0  0.20483441618E+02  0.10622635049E+02  0.93125671908E+01  0.24882436850E+02  0.00000000000E+00 0.  1.
</event>
<event>
 7    1  0.2328615E-009  0.4778727E+02  0.7816164E-02  0.1312668E+00
        -11   -1    0    0    0    0  0.00000000000E+00  0.00000000000E+00  0.45593999997E+02  0.45594000000E+02  0.51100000000E-03 0. -1.
         11   -1    0    0    0    0 -0.00000000000E+00 -0.00000000000E+00 -0.45593999997E+02  0.45594000000E+02  0.51100000000E-03 0.  1.
    9900012    2    1    2    0    0  0.41538259475E+02 -0.74143530888E+01 -0.10159892011E+02  0.47787273766E+02  0.20000012411E+02 0.  0.
         12    1    1    2    0    0 -0.41538259475E+02  0.74143530888E+01  0.10159892011E+02  0.43400726234E+02  0.00000000000E+00 0. -1.
         11    1    3    3    0    0  0.21685123366E+02 -0.12736964920E+02 -0.33984168746E+01  0.25377629682E+02  0.51100000000E-03 0. -1.
        -11    1    3    3    0    0  0.63219043153E+01 -0.63320530284E+00 -0.35602551732E+01  0.72830515779E+01  0.51100000000E-03 0.  1.
         12    1    3    3    0    0  0.13531231794E+02  0.59558171345E+01 -0.32012199628E+01  0.15126592506E+02  0.00000000000E+00 0. -1.
</event>
<event>
 7    1  0.2328615E-009  0.4778727E+02  0.7816164E-02  0.1312668E+00
        -11   -1    0    0    0    0  0.00000000000E+00  0.00000000000E+00  0.45593999997E+02  0.45594000000E+02  0.51100000000E-03 0.  1.
         11   -1    0    0    0    0 -0.00000000000E+00 -0.00000000000E+00 -0.45593999997E+02  0.45594000000E+02  0.51100000000E-03 0. -1.
    9900012    2    1    2    0    0 -0.30347435895E+02  0.17084264679E+00  0.31026234423E+02  0.47787271030E+02  0.19999999936E+02 0.  0.
         12    1    1    2    0    0  0.30347435895E+02 -0.17084264679E+00 -0.31026234423E+02  0.43400728970E+02  0.00000000000E+00 0. -1.
         11    1    3    3    0    0 -0.10423010796E+02  0.37208258091E+01  0.15880410623E+02  0.19356423755E+02  0.51100000000E-03 0. -1.
        -11    1    3    3    0    0 -0.72385417667E+01 -0.78821675255E+00  0.13507256709E+02  0.15344828334E+02  0.51100000000E-03 0.  1.
         12    1    3    3    0    0 -0.12685883332E+02 -0.27617664098E+01  0.16385670915E+01  0.13086018941E+02  0.00000000000E+00 0. -1.
</event>
<event>
 7    1  0.2328615E-009  0.4778725E+02  0.7816164E-02  0.1312668E+00
        -11   -1    0    0    0    0  0.00000000000E+00  0.00000000000E+00  0.45593999997E+02  0.45594000000E+02  0.51100000000E-03 0.  1.
         11   -1    0    0    0    0 -0.00000000000E+00 -0.00000000000E+00 -0.45593999997E+02  0.45594000000E+02  0.51100000000E-03 0. -1.
    9900012    2    1    2    0    0  0.23107852923E+02  0.19517085705E+02  0.31124523181E+02  0.47787246039E+02  0.19999885990E+02 0.  0.
         12    1    1    2    0    0 -0.23107852923E+02 -0.19517085705E+02 -0.31124523181E+02  0.43400753961E+02  0.00000000000E+00 0. -1.
         11    1    3    3    0    0  0.12922248347E+01 -0.15100097648E+01  0.37743022587E+01  0.42655987052E+01  0.51100000000E-03 0. -1.
        -11    1    3    3    0    0  0.82614995834E+01  0.13613150523E+02  0.22028756578E+02  0.27181544459E+02  0.51100000000E-03 0.  1.
         12    1    3    3    0    0  0.13554128504E+02  0.74139449467E+01  0.53214643447E+01  0.16340102875E+02  0.00000000000E+00 0. -1.
</event>
<event>
 7    1  0.2328615E-009  0.4778727E+02  0.7816164E-02  0.1312668E+00
        -11   -1    0    0    0    0  0.00000000000E+00  0.00000000000E+00  0.45593999997E+02  0.45594000000E+02  0.51100000000E-03 0.  1.
         11   -1    0    0    0    0 -0.00000000000E+00 -0.00000000000E+00 -0.45593999997E+02  0.45594000000E+02  0.51100000000E-03 0. -1.
    9900012    2    1    2    0    0  0.94310873681E+01  0.41619976846E+02  0.79028888568E+01  0.47787268049E+02  0.19999986344E+02 0.  0.
         12    1    1    2    0    0 -0.94310873681E+01 -0.41619976846E+02 -0.79028888568E+01  0.43400731951E+02  0.00000000000E+00 0. -1.
         11    1    3    3    0    0  0.45577027965E+01  0.16572392976E+01  0.11960068337E+01  0.49949503980E+01  0.51100000000E-03 0. -1.
        -11    1    3    3    0    0 -0.17359394515E+00 -0.15761919733E+00 -0.15110591260E+01  0.15291430975E+01  0.51100000000E-03 0.  1.
        -12    1    3    3    0    0  0.50469785167E+01  0.40120356745E+02  0.82179411491E+01  0.41263174554E+02  0.00000000000E+00 0.  1.
</event>
<event>
 7    1  0.2328615E-009  0.4778727E+02  0.7816164E-02  0.1312668E+00
        -11   -1    0    0    0    0  0.00000000000E+00  0.00000000000E+00  0.45593999997E+02  0.45594000000E+02  0.51100000000E-03 0.  1.
         11   -1    0    0    0    0 -0.00000000000E+00 -0.00000000000E+00 -0.45593999997E+02  0.45594000000E+02  0.51100000000E-03 0. -1.
    9900012    2    1    2    0    0  0.41637480836E+02 -0.32684816953E+01  0.11800879126E+02  0.47787268081E+02  0.19999986486E+02 0.  0.
         12    1    1    2    0    0 -0.41637480836E+02  0.32684816953E+01 -0.11800879126E+02  0.43400731919E+02  0.00000000000E+00 0. -1.
         11    1    3    3    0    0  0.11730771508E+02 -0.27358360194E+01 -0.13640409839E-01  0.12045579489E+02  0.51100000000E-03 0. -1.
        -11    1    3    3    0    0  0.12617304095E+02 -0.46460099894E+01 -0.15090948980E+01  0.13529934926E+02  0.51100000000E-03 0.  1.
         12    1    3    3    0    0  0.17289405234E+02  0.41133643135E+01  0.13323614434E+02  0.22211753665E+02  0.00000000000E+00 0. -1.
</event>
<event>
 7    1  0.2328615E-009  0.4778727E+02  0.7816164E-02  0.1312668E+00
        -11   -1    0    0    0    0  0.00000000000E+00  0.00000000000E+00  0.45593999997E+02  0.45594000000E+02  0.51100000000E-03 0.  1.
         11   -1    0    0    0    0 -0.00000000000E+00 -0.00000000000E+00 -0.45593999997E+02  0.45594000000E+02  0.51100000000E-03 0. -1.
    9900012    2    1    2    0    0  0.23006050078E+02  0.36758065405E+02 -0.17859357497E+01  0.47787270986E+02  0.19999999732E+02 0.  0.
         12    1    1    2    0    0 -0.23006050078E+02 -0.36758065405E+02  0.17859357497E+01  0.43400729014E+02  0.00000000000E+00 0. -1.
         11    1    3    3    0    0  0.31222681196E+01  0.12153740638E+02  0.34437958381E+01  0.13012367184E+02  0.51100000000E-03 0. -1.
        -11    1    3    3    0    0  0.16766163317E+01  0.24439745812E+01  0.36958665875E+01  0.47374554532E+01  0.51100000000E-03 0.  1.
         12    1    3    3    0    0  0.18207165626E+02  0.22160350186E+02 -0.89255981752E+01  0.30037448349E+02  0.00000000000E+00 0. -1.
</event>
<event>
 7    1  0.2328615E-009  0.4778727E+02  0.7816164E-02  0.1312668E+00
        -11   -1    0    0    0    0  0.00000000000E+00  0.00000000000E+00  0.45593999997E+02  0.45594000000E+02  0.51100000000E-03 0.  1.
         11   -1    0    0    0    0 -0.00000000000E+00 -0.00000000000E+00 -0.45593999997E+02  0.45594000000E+02  0.51100000000E-03 0. -1.
    9900012    2    1    2    0    0  0.12769534504E+02  0.36651250335E+02  0.19422882365E+02  0.47787268186E+02  0.19999986968E+02 0.  0.
         12    1    1    2    0    0 -0.12769534504E+02 -0.36651250335E+02 -0.19422882365E+02  0.43400731814E+02  0.00000000000E+00 0. -1.
         11    1    3    3    0    0 -0.17449646227E+01  0.11780586027E+01  0.34882266959E+01  0.40743649013E+01  0.51100000000E-03 0. -1.
        -11    1    3    3    0    0  0.72787520551E+01  0.74576942842E+01  0.94337394740E+01  0.14056773323E+02  0.51100000000E-03 0.  1.
         12    1    3    3    0    0  0.72357470712E+01  0.28015497449E+02  0.65009161955E+01  0.29656129962E+02  0.00000000000E+00 0. -1.
</event>
<event>
 7    1  0.2328615E-009  0.4778727E+02  0.7816164E-02  0.1312668E+00
        -11   -1    0    0    0    0  0.00000000000E+00  0.00000000000E+00  0.45593999997E+02  0.45594000000E+02  0.51100000000E-03 0. -1.
         11   -1    0    0    0    0 -0.00000000000E+00 -0.00000000000E+00 -0.45593999997E+02  0.45594000000E+02  0.51100000000E-03 0.  1.
    9900012    2    1    2    0    0  0.67254647087E+01  0.33384801124E+02 -0.26904391758E+02  0.47787272846E+02  0.20000008215E+02 0.  0.
         12    1    1    2    0    0 -0.67254647087E+01 -0.33384801124E+02  0.26904391758E+02  0.43400727154E+02  0.00000000000E+00 0. -1.
         11    1    3    3    0    0  0.28358683756E+01  0.12644212098E+02 -0.10845029112E+02  0.16897718950E+02  0.51100000000E-03 0. -1.
        -11    1    3    3    0    0  0.52186843858E+01  0.21832612289E+02 -0.17643137620E+02  0.28551321010E+02  0.51100000000E-03 0.  1.
         12    1    3    3    0    0 -0.13290880527E+01 -0.10920232638E+01  0.15837749737E+01  0.23382328857E+01  0.00000000000E+00 0. -1.
</event>
<event>
 7    1  0.2328615E-009  0.4778727E+02  0.7816164E-02  0.1312668E+00
        -11   -1    0    0    0    0  0.00000000000E+00  0.00000000000E+00  0.45593999997E+02  0.45594000000E+02  0.51100000000E-03 0.  1.
         11   -1    0    0    0    0 -0.00000000000E+00 -0.00000000000E+00 -0.45593999997E+02  0.45594000000E+02  0.51100000000E-03 0. -1.
    9900012    2    1    2    0    0 -0.39962873550E+02 -0.45501861355E+01  0.16306066430E+02  0.47787271220E+02  0.20000000799E+02 0.  0.
         12    1    1    2    0    0  0.39962873550E+02  0.45501861355E+01 -0.16306066430E+02  0.43400728780E+02  0.00000000000E+00 0. -1.
         11    1    3    3    0    0 -0.22184265663E+02 -0.83298584767E+01  0.10026501523E+02  0.25730505597E+02  0.51100000000E-03 0.  1.
        -11    1    3    3    0    0 -0.41366151557E+01 -0.13237048606E+01  0.61026173294E+01  0.74903750263E+01  0.51100000000E-03 0. -1.
         12    1    3    3    0    0 -0.13641992732E+02  0.51033772017E+01  0.17694757754E+00  0.14566390596E+02  0.00000000000E+00 0. -1.
</event>
<event>
 7    1  0.2328615E-009  0.4778727E+02  0.7816164E-02  0.1312668E+00
        -11   -1    0    0    0    0  0.00000000000E+00  0.00000000000E+00  0.45593999997E+02  0.45594000000E+02  0.51100000000E-03 0. -1.
         11   -1    0    0    0    0 -0.00000000000E+00 -0.00000000000E+00 -0.45593999997E+02  0.45594000000E+02  0.51100000000E-03 0.  1.
    9900012    2    1    2    0    0 -0.10363830563E+02 -0.34706195751E+01 -0.42002011805E+02  0.47787272128E+02  0.20000004939E+02 0.  0.
         12    1    1    2    0    0  0.10363830563E+02  0.34706195751E+01  0.42002011805E+02  0.43400727872E+02  0.00000000000E+00 0. -1.
         11    1    3    3    0    0 -0.97451277486E+01  0.22492480504E+00 -0.10774048106E+02  0.14529219485E+02  0.51100000000E-03 0. -1.
        -11    1    3    3    0    0 -0.78236418842E+00  0.37984762824E+01 -0.89930853978E+01  0.97936765836E+01  0.51100000000E-03 0.  1.
         12    1    3    3    0    0  0.16366137446E+00 -0.74940206625E+01 -0.22234878301E+02  0.23464376059E+02  0.00000000000E+00 0. -1.
</event>
<event>
 7    1  0.2328615E-009  0.4778730E+02  0.7816164E-02  0.1312668E+00
        -11   -1    0    0    0    0  0.00000000000E+00  0.00000000000E+00  0.45593999997E+02  0.45594000000E+02  0.51100000000E-03 0.  1.
         11   -1    0    0    0    0 -0.00000000000E+00 -0.00000000000E+00 -0.45593999997E+02  0.45594000000E+02  0.51100000000E-03 0. -1.
    9900012    2    1    2    0    0 -0.34028372907E+02 -0.24773906218E+02 -0.10580346752E+02  0.47787304967E+02  0.20000154664E+02 0.  0.
         12    1    1    2    0    0  0.34028372907E+02  0.24773906218E+02  0.10580346752E+02  0.43400695033E+02  0.00000000000E+00 0. -1.
         11    1    3    3    0    0 -0.19708379004E+02 -0.84789248404E+01 -0.98507609859E+01  0.23608258337E+02  0.51100000000E-03 0. -1.
        -11    1    3    3    0    0 -0.24016335814E-01 -0.59136509873E+01 -0.25050218930E+01  0.64223811573E+01  0.51100000000E-03 0.  1.
        -12    1    3    3    0    0 -0.14295977567E+02 -0.10381330390E+02  0.17754361271E+01  0.17756665473E+02  0.00000000000E+00 0.  1.
</event>
<event>
 7    1  0.2328615E-009  0.4778727E+02  0.7816164E-02  0.1312668E+00
        -11   -1    0    0    0    0  0.00000000000E+00  0.00000000000E+00  0.45593999997E+02  0.45594000000E+02  0.51100000000E-03 0.  1.
         11   -1    0    0    0    0 -0.00000000000E+00 -0.00000000000E+00 -0.45593999997E+02  0.45594000000E+02  0.51100000000E-03 0. -1.
    9900012    2    1    2    0    0 -0.39517319205E+01 -0.42999775751E+02  0.43619239903E+01  0.47787270966E+02  0.19999999641E+02 0.  0.
         12    1    1    2    0    0  0.39517319205E+01  0.42999775751E+02 -0.43619239903E+01  0.43400729034E+02  0.00000000000E+00 0. -1.
         11    1    3    3    0    0  0.23854186457E+01 -0.11654454737E+02  0.58017629069E+01  0.13235444474E+02  0.51100000000E-03 0. -1.
        -11    1    3    3    0    0 -0.29036895213E+00 -0.21061141539E+02  0.40006971515E+01  0.21439719564E+02  0.51100000000E-03 0.  1.
         12    1    3    3    0    0 -0.60467816141E+01 -0.10284179475E+02 -0.54405360680E+01  0.13112106927E+02  0.00000000000E+00 0. -1.
</event>
<event>
 7    1  0.2328615E-009  0.4778727E+02  0.7816164E-02  0.1312668E+00
        -11   -1    0    0    0    0  0.00000000000E+00  0.00000000000E+00  0.45593999997E+02  0.45594000000E+02  0.51100000000E-03 0. -1.
         11   -1    0    0    0    0 -0.00000000000E+00 -0.00000000000E+00 -0.45593999997E+02  0.45594000000E+02  0.51100000000E-03 0.  1.
    9900012    2    1    2    0    0  0.12688420372E+02 -0.31739223266E+02 -0.26744139648E+02  0.47787270622E+02  0.19999998072E+02 0.  0.
         12    1    1    2    0    0 -0.12688420372E+02  0.31739223266E+02  0.26744139648E+02  0.43400729378E+02  0.00000000000E+00 0. -1.
         11    1    3    3    0    0  0.58493563993E+01 -0.16474804554E+02 -0.15388875951E+02  0.23290591634E+02  0.51100000000E-03 0. -1.
        -11    1    3    3    0    0  0.85375270739E+01 -0.11128530618E+02 -0.13562131286E+02  0.19510637292E+02  0.51100000000E-03 0.  1.
         12    1    3    3    0    0 -0.16984631016E+01 -0.41358880941E+01  0.22068675890E+01  0.49860416955E+01  0.00000000000E+00 0. -1.
</event>
<event>
 7    1  0.2328615E-009  0.4778727E+02  0.7816164E-02  0.1312668E+00
        -11   -1    0    0    0    0  0.00000000000E+00  0.00000000000E+00  0.45593999997E+02  0.45594000000E+02  0.51100000000E-03 0.  1.
         11   -1    0    0    0    0 -0.00000000000E+00 -0.00000000000E+00 -0.45593999997E+02  0.45594000000E+02  0.51100000000E-03 0. -1.
    9900012    2    1    2    0    0  0.31459991684E+02 -0.27307985146E+02 -0.12172348189E+02  0.47787272012E+02  0.20000004409E+02 0.  0.
         12    1    1    2    0    0 -0.31459991684E+02  0.27307985146E+02  0.12172348189E+02  0.43400727988E+02  0.00000000000E+00 0. -1.
         11    1    3    3    0    0  0.17006941545E+01 -0.66265700962E+01 -0.71811278343E+00  0.68789154725E+01  0.51100000000E-03 0. -1.
        -11    1    3    3    0    0 -0.16574558975E+01 -0.14931140466E+01 -0.17565283170E+01  0.28393558420E+01  0.51100000000E-03 0.  1.
         12    1    3    3    0    0  0.31416753427E+02 -0.19188301003E+02 -0.96977070884E+01  0.38069000697E+02  0.00000000000E+00 0. -1.
</event>
<event>
 7    1  0.2767677E-009  0.4778727E+02  0.7816164E-02  0.1312668E+00
        -11   -1    0    0    0    0  0.00000000000E+00  0.00000000000E+00  0.45593999997E+02  0.45594000000E+02  0.51100000000E-03 0.  1.
         11   -1    0    0    0    0 -0.00000000000E+00 -0.00000000000E+00 -0.45593999997E+02  0.45594000000E+02  0.51100000000E-03 0. -1.
    9900012    2    1    2    0    0  0.10618740694E+02 -0.32990201520E+02  0.26124944253E+02  0.47787265415E+02  0.19999974335E+02 0.  0.
         12    1    1    2    0    0 -0.10618740694E+02  0.32990201520E+02 -0.26124944253E+02  0.43400734585E+02  0.00000000000E+00 0. -1.
         11    1    3    3    0    0 -0.96794193773E+00 -0.31395857792E+01 -0.56420719556E+00  0.33335027344E+01  0.51100000000E-03 0. -1.
        -11    1    3    3    0    0  0.13114105966E+02 -0.19882648586E+02  0.12091247844E+02  0.26711378938E+02  0.51100000000E-03 0.  1.
        -12    1    3    3    0    0 -0.15274233345E+01 -0.99679671555E+01  0.14597903604E+02  0.17742383743E+02  0.00000000000E+00 0.  1.
</event>
<event>
 7    1  0.2328615E-009  0.4778727E+02  0.7816164E-02  0.1312668E+00
        -11   -1    0    0    0    0  0.00000000000E+00  0.00000000000E+00  0.45593999997E+02  0.45594000000E+02  0.51100000000E-03 0. -1.
         11   -1    0    0    0    0 -0.00000000000E+00 -0.00000000000E+00 -0.45593999997E+02  0.45594000000E+02  0.51100000000E-03 0.  1.
    9900012    2    1    2    0    0  0.33753864663E+02 -0.65503085520E+00 -0.27273999135E+02  0.47787268740E+02  0.19999989492E+02 0.  0.
         12    1    1    2    0    0 -0.33753864663E+02  0.65503085520E+00  0.27273999135E+02  0.43400731260E+02  0.00000000000E+00 0. -1.
         11    1    3    3    0    0  0.20211016377E+02  0.76317102111E+01 -0.20944087841E+02  0.30089582906E+02  0.51100000000E-03 0. -1.
        -11    1    3    3    0    0  0.10203454293E+02 -0.37592963952E+01 -0.36868240255E+01  0.11481962400E+02  0.51100000000E-03 0.  1.
         12    1    3    3    0    0  0.33393939939E+01 -0.45274446711E+01 -0.26430872684E+01  0.62157234338E+01  0.00000000000E+00 0. -1.
</event>
<event>
 7    1  0.2328615E-009  0.4778727E+02  0.7816164E-02  0.1312668E+00
        -11   -1    0    0    0    0  0.00000000000E+00  0.00000000000E+00  0.45593999997E+02  0.45594000000E+02  0.51100000000E-03 0.  1.
         11   -1    0    0    0    0 -0.00000000000E+00 -0.00000000000E+00 -0.45593999997E+02  0.45594000000E+02  0.51100000000E-03 0. -1.
    9900012    2    1    2    0    0  0.40666182320E+02 -0.10943146501E+02  0.10494396736E+02  0.47787271865E+02  0.20000003740E+02 0.  0.
         12    1    1    2    0    0 -0.40666182320E+02  0.10943146501E+02 -0.10494396736E+02  0.43400728135E+02  0.00000000000E+00 0. -1.
         11    1    3    3    0    0  0.19818815878E+01  0.10580265980E+01 -0.20206108366E+01  0.30216127025E+01  0.51100000000E-03 0. -1.
        -11    1    3    3    0    0  0.10607633345E+02 -0.66455782293E+00  0.96425859039E+01  0.14350713761E+02  0.51100000000E-03 0.  1.
        -12    1    3    3    0    0  0.28076667387E+02 -0.11336615276E+02  0.28724216684E+01  0.30414945401E+02  0.00000000000E+00 0.  1.
</event>
<event>
 7    1  0.2328615E-009  0.4778726E+02  0.7816164E-02  0.1312668E+00
        -11   -1    0    0    0    0  0.00000000000E+00  0.00000000000E+00  0.45593999997E+02  0.45594000000E+02  0.51100000000E-03 0.  1.
         11   -1    0    0    0    0 -0.00000000000E+00 -0.00000000000E+00 -0.45593999997E+02  0.45594000000E+02  0.51100000000E-03 0. -1.
    9900012    2    1    2    0    0 -0.42261757686E+01 -0.13494014224E+02  0.41032608735E+02  0.47787263128E+02  0.19999963904E+02 0.  0.
         12    1    1    2    0    0  0.42261757686E+01  0.13494014224E+02 -0.41032608735E+02  0.43400736872E+02  0.00000000000E+00 0. -1.
         11    1    3    3    0    0 -0.35216213114E+01 -0.89723635789E+00  0.11008098096E+02  0.11592457621E+02  0.51100000000E-03 0. -1.
        -11    1    3    3    0    0 -0.36145234180E+01 -0.13531272544E+02  0.30033266655E+02  0.33138455342E+02  0.51100000000E-03 0.  1.
         12    1    3    3    0    0  0.29099689608E+01  0.93449467819E+00 -0.87560173656E-02  0.30563501639E+01  0.00000000000E+00 0. -1.
</event>
<event>
 7    1  0.2328615E-009  0.4778727E+02  0.7816164E-02  0.1312668E+00
        -11   -1    0    0    0    0  0.00000000000E+00  0.00000000000E+00  0.45593999997E+02  0.45594000000E+02  0.51100000000E-03 0.  1.
         11   -1    0    0    0    0 -0.00000000000E+00 -0.00000000000E+00 -0.45593999997E+02  0.45594000000E+02  0.51100000000E-03 0. -1.
    9900012    2    1    2    0    0 -0.22854716293E+02  0.30722394040E+02  0.20430845427E+02  0.47787274231E+02  0.20000014531E+02 0.  0.
         12    1    1    2    0    0  0.22854716293E+02 -0.30722394040E+02 -0.20430845427E+02  0.43400725769E+02  0.00000000000E+00 0. -1.
         11    1    3    3    0    0  0.18833371679E+01 -0.10365557052E+01  0.22644028522E+01  0.31223272020E+01  0.51100000000E-03 0. -1.
        -11    1    3    3    0    0 -0.31342060081E+01  0.36965944579E+01  0.47723615604E+01  0.68017272080E+01  0.51100000000E-03 0.  1.
        -12    1    3    3    0    0 -0.21603847453E+02  0.28062355287E+02  0.13394081014E+02  0.37863219821E+02  0.00000000000E+00 0.  1.
</event>
<event>
 7    1  0.2328615E-009  0.4778727E+02  0.7816164E-02  0.1312668E+00
        -11   -1    0    0    0    0  0.00000000000E+00  0.00000000000E+00  0.45593999997E+02  0.45594000000E+02  0.51100000000E-03 0.  1.
         11   -1    0    0    0    0 -0.00000000000E+00 -0.00000000000E+00 -0.45593999997E+02  0.45594000000E+02  0.51100000000E-03 0. -1.
    9900012    2    1    2    0    0  0.21582425612E+02 -0.18670729021E+02  0.32699018091E+02  0.47787274182E+02  0.20000014304E+02 0.  0.
         12    1    1    2    0    0 -0.21582425612E+02  0.18670729021E+02 -0.32699018091E+02  0.43400725818E+02  0.00000000000E+00 0. -1.
         11    1    3    3    0    0  0.77319069898E+01  0.67260047628E+00  0.69022842286E+01  0.10386351859E+02  0.51100000000E-03 0. -1.
        -11    1    3    3    0    0  0.15963060417E+02 -0.14625848830E+02  0.18615910662E+02  0.28553228923E+02  0.51100000000E-03 0.  1.
        -12    1    3    3    0    0 -0.21125417943E+01 -0.47174806674E+01  0.71808231998E+01  0.88476934004E+01  0.00000000000E+00 0.  1.
</event>
<event>
 7    1  0.2328615E-009  0.4778729E+02  0.7816164E-02  0.1312668E+00
        -11   -1    0    0    0    0  0.00000000000E+00  0.00000000000E+00  0.45593999997E+02  0.45594000000E+02  0.51100000000E-03 0. -1.
         11   -1    0    0    0    0 -0.00000000000E+00 -0.00000000000E+00 -0.45593999997E+02  0.45594000000E+02  0.51100000000E-03 0.  1.
    9900012    2    1    2    0    0 -0.20266061650E+01 -0.41029620430E+02 -0.14003039198E+02  0.47787285813E+02  0.20000067335E+02 0.  0.
         12    1    1    2    0    0  0.20266061650E+01  0.41029620430E+02  0.14003039198E+02  0.43400714187E+02  0.00000000000E+00 0. -1.
         11    1    3    3    0    0  0.43238765407E+01 -0.47017221025E+01  0.83176799691E-01  0.63881936187E+01  0.51100000000E-03 0. -1.
        -11    1    3    3    0    0 -0.61898442539E+01 -0.60817991342E+01 -0.28727383600E+01  0.91408467082E+01  0.51100000000E-03 0.  1.
         12    1    3    3    0    0 -0.16063845182E+00 -0.30246099193E+02 -0.11213477638E+02  0.32258245486E+02  0.00000000000E+00 0. -1.
</event>
<event>
 7    1  0.2328615E-009  0.4778727E+02  0.7816164E-02  0.1312668E+00
        -11   -1    0    0    0    0  0.00000000000E+00  0.00000000000E+00  0.45593999997E+02  0.45594000000E+02  0.51100000000E-03 0.  1.
         11   -1    0    0    0    0 -0.00000000000E+00 -0.00000000000E+00 -0.45593999997E+02  0.45594000000E+02  0.51100000000E-03 0. -1.
    9900012    2    1    2    0    0  0.13575838842E+02 -0.91072243165E+01  0.40204209633E+02  0.47787269508E+02  0.19999992996E+02 0.  0.
         12    1    1    2    0    0 -0.13575838842E+02  0.91072243165E+01 -0.40204209633E+02  0.43400730492E+02  0.00000000000E+00 0. -1.
         11    1    3    3    0    0 -0.25867726360E+01 -0.55269697281E+00  0.18399747833E+00  0.26515508570E+01  0.51100000000E-03 0. -1.
        -11    1    3    3    0    0  0.53090102026E+01  0.18899545820E+01  0.84580063957E+01  0.10163433972E+02  0.51100000000E-03 0.  1.
        -12    1    3    3    0    0  0.10853601275E+02 -0.10444481926E+02  0.31562205759E+02  0.34972284679E+02  0.00000000000E+00 0.  1.
</event>
<event>
 7    1  0.2328615E-009  0.4778730E+02  0.7816164E-02  0.1312668E+00
        -11   -1    0    0    0    0  0.00000000000E+00  0.00000000000E+00  0.45593999997E+02  0.45594000000E+02  0.51100000000E-03 0.  1.
         11   -1    0    0    0    0 -0.00000000000E+00 -0.00000000000E+00 -0.45593999997E+02  0.45594000000E+02  0.51100000000E-03 0. -1.
    9900012    2    1    2    0    0  0.20009425490E+02  0.16857775345E+02  0.34627434733E+02  0.47787297999E+02  0.20000122898E+02 0.  0.
         12    1    1    2    0    0 -0.20009425490E+02 -0.16857775345E+02 -0.34627434733E+02  0.43400702001E+02  0.00000000000E+00 0. -1.
         11    1    3    3    0    0  0.10504926002E+01 -0.78523669440E+00 -0.92763543088E+00  0.16064367784E+01  0.51100000000E-03 0. -1.
        -11    1    3    3    0    0  0.66825018419E+00  0.11952572888E+01  0.12149746275E+02  0.12226673019E+02  0.51100000000E-03 0.  1.
        -12    1    3    3    0    0  0.18290682705E+02  0.16447754750E+02  0.23405323888E+02  0.33954188202E+02  0.00000000000E+00 0.  1.
</event>
<event>
 7    1  0.2328615E-009  0.4778727E+02  0.7816164E-02  0.1312668E+00
        -11   -1    0    0    0    0  0.00000000000E+00  0.00000000000E+00  0.45593999997E+02  0.45594000000E+02  0.51100000000E-03 0.  1.
         11   -1    0    0    0    0 -0.00000000000E+00 -0.00000000000E+00 -0.45593999997E+02  0.45594000000E+02  0.51100000000E-03 0. -1.
    9900012    2    1    2    0    0 -0.29130955962E+02 -0.11159027405E+02 -0.30174275823E+02  0.47787269484E+02  0.19999992885E+02 0.  0.
         12    1    1    2    0    0  0.29130955962E+02  0.11159027405E+02  0.30174275823E+02  0.43400730516E+02  0.00000000000E+00 0. -1.
         11    1    3    3    0    0 -0.81686651175E+01 -0.88620539873E+01 -0.17375145069E+02  0.21146128655E+02  0.51100000000E-03 0. -1.
        -11    1    3    3    0    0 -0.10537563285E+02 -0.61733469549E+01 -0.60195753381E+01  0.13615643214E+02  0.51100000000E-03 0.  1.
         12    1    3    3    0    0 -0.10424727559E+02  0.38763735369E+01 -0.67795554166E+01  0.13025497615E+02  0.00000000000E+00 0. -1.
</event>
<event>
 7    1  0.2328615E-009  0.4778727E+02  0.7816164E-02  0.1312668E+00
        -11   -1    0    0    0    0  0.00000000000E+00  0.00000000000E+00  0.45593999997E+02  0.45594000000E+02  0.51100000000E-03 0.  1.
         11   -1    0    0    0    0 -0.00000000000E+00 -0.00000000000E+00 -0.45593999997E+02  0.45594000000E+02  0.51100000000E-03 0. -1.
    9900012    2    1    2    0    0 -0.28132243807E+02  0.28801031239E+02  0.16208043139E+02  0.47787271845E+02  0.20000003648E+02 0.  0.
         12    1    1    2    0    0  0.28132243807E+02 -0.28801031239E+02 -0.16208043139E+02  0.43400728155E+02  0.00000000000E+00 0. -1.
         11    1    3    3    0    0 -0.59730966517E+00 -0.85176058040E+00  0.17945827950E+01  0.20743197902E+01  0.51100000000E-03 0. -1.
        -11    1    3    3    0    0 -0.21594580687E+02  0.21872298763E+02  0.17599638182E+02  0.35418506922E+02  0.51100000000E-03 0.  1.
         12    1    3    3    0    0 -0.59403534552E+01  0.77804930562E+01 -0.31861778377E+01  0.10294445132E+02  0.00000000000E+00 0. -1.
</event>
<event>
 7    1  0.2328615E-009  0.4778727E+02  0.7816164E-02  0.1312668E+00
        -11   -1    0    0    0    0  0.00000000000E+00  0.00000000000E+00  0.45593999997E+02  0.45594000000E+02  0.51100000000E-03 0. -1.
         11   -1    0    0    0    0 -0.00000000000E+00 -0.00000000000E+00 -0.45593999997E+02  0.45594000000E+02  0.51100000000E-03 0.  1.
    9900012    2    1    2    0    0  0.22727652731E+02  0.32127446897E+02 -0.18300399221E+02  0.47787266660E+02  0.19999980011E+02 0.  0.
         12    1    1    2    0    0 -0.22727652731E+02 -0.32127446897E+02  0.18300399221E+02  0.43400733340E+02  0.00000000000E+00 0. -1.
         11    1    3    3    0    0  0.48479441601E+01  0.14996409525E+02 -0.18396781190E+01  0.15867554224E+02  0.51100000000E-03 0. -1.
        -11    1    3    3    0    0  0.34351895576E+01  0.11208081428E+02 -0.75584117575E+01  0.13948161354E+02  0.51100000000E-03 0.  1.
        -12    1    3    3    0    0  0.14444519013E+02  0.59229559439E+01 -0.89023093445E+01  0.17971551082E+02  0.00000000000E+00 0.  1.
</event>
<event>
 7    1  0.2328615E-009  0.4778728E+02  0.7816164E-02  0.1312668E+00
        -11   -1    0    0    0    0  0.00000000000E+00  0.00000000000E+00  0.45593999997E+02  0.45594000000E+02  0.51100000000E-03 0.  1.
         11   -1    0    0    0    0 -0.00000000000E+00 -0.00000000000E+00 -0.45593999997E+02  0.45594000000E+02  0.51100000000E-03 0. -1.
    9900012    2    1    2    0    0 -0.25093010203E+02 -0.38720481062E+01  0.35199017189E+02  0.47787277325E+02  0.20000028637E+02 0.  0.
         12    1    1    2    0    0  0.25093010203E+02  0.38720481062E+01 -0.35199017189E+02  0.43400722675E+02  0.00000000000E+00 0. -1.
         11    1    3    3    0    0 -0.32452688775E+01  0.24647822300E+01 -0.11826989642E+01  0.42433122239E+01  0.51100000000E-03 0. -1.
        -11    1    3    3    0    0 -0.70863523551E+01  0.13693983770E+01  0.96598985558E+01  0.12058411255E+02  0.51100000000E-03 0.  1.
        -12    1    3    3    0    0 -0.14761388970E+02 -0.77062287133E+01  0.26721817598E+02  0.31485553847E+02  0.00000000000E+00 0.  1.
</event>
<event>
 7    1  0.2328615E-009  0.4778727E+02  0.7816164E-02  0.1312668E+00
        -11   -1    0    0    0    0  0.00000000000E+00  0.00000000000E+00  0.45593999997E+02  0.45594000000E+02  0.51100000000E-03 0.  1.
         11   -1    0    0    0    0 -0.00000000000E+00 -0.00000000000E+00 -0.45593999997E+02  0.45594000000E+02  0.51100000000E-03 0. -1.
    9900012    2    1    2    0    0 -0.30614616229E+01 -0.43288744933E+00  0.43290457109E+02  0.47787267108E+02  0.19999982053E+02 0.  0.
         12    1    1    2    0    0  0.30614616229E+01  0.43288744933E+00 -0.43290457109E+02  0.43400732892E+02  0.00000000000E+00 0. -1.
         11    1    3    3    0    0  0.29308279229E+00 -0.40471137784E+01  0.30663154729E+01  0.50859923613E+01  0.51100000000E-03 0. -1.
        -11    1    3    3    0    0 -0.22156752489E+01  0.25009551796E+01  0.10608634810E+01  0.35056276479E+01  0.51100000000E-03 0.  1.
        -12    1    3    3    0    0 -0.11388691662E+01  0.11132711495E+01  0.39163278155E+02  0.39195647099E+02  0.00000000000E+00 0.  1.
</event>
<event>
 7    1  0.2328615E-009  0.4778727E+02  0.7816164E-02  0.1312668E+00
        -11   -1    0    0    0    0  0.00000000000E+00  0.00000000000E+00  0.45593999997E+02  0.45594000000E+02  0.51100000000E-03 0.  1.
         11   -1    0    0    0    0 -0.00000000000E+00 -0.00000000000E+00 -0.45593999997E+02  0.45594000000E+02  0.51100000000E-03 0. -1.
    9900012    2    1    2    0    0 -0.14750394626E+02 -0.27325821668E+02  0.30320761352E+02  0.47787271430E+02  0.20000001759E+02 0.  0.
         12    1    1    2    0    0  0.14750394626E+02  0.27325821668E+02 -0.30320761352E+02  0.43400728570E+02  0.00000000000E+00 0. -1.
         11    1    3    3    0    0 -0.90161985595E+01 -0.12998216504E+02  0.13878995656E+02  0.21044523977E+02  0.51100000000E-03 0. -1.
        -11    1    3    3    0    0 -0.79915025409E+01 -0.87314814457E+01  0.16964759085E+02  0.20685887270E+02  0.51100000000E-03 0.  1.
         12    1    3    3    0    0  0.22573064744E+01 -0.55961237180E+01 -0.52299338874E+00  0.60568601826E+01  0.00000000000E+00 0. -1.
</event>
<event>
 7    1  0.2328615E-009  0.4778727E+02  0.7816164E-02  0.1312668E+00
        -11   -1    0    0    0    0  0.00000000000E+00  0.00000000000E+00  0.45593999997E+02  0.45594000000E+02  0.51100000000E-03 0.  1.
         11   -1    0    0    0    0 -0.00000000000E+00 -0.00000000000E+00 -0.45593999997E+02  0.45594000000E+02  0.51100000000E-03 0. -1.
    9900012    2    1    2    0    0 -0.16692890627E+02 -0.31880046296E+02  0.24261777215E+02  0.47787265180E+02  0.19999973261E+02 0.  0.
         12    1    1    2    0    0  0.16692890627E+02  0.31880046296E+02 -0.24261777215E+02  0.43400734820E+02  0.00000000000E+00 0. -1.
         11    1    3    3    0    0 -0.15093341964E+02 -0.21002239790E+02  0.15441373995E+02  0.30122069633E+02  0.51100000000E-03 0. -1.
        -11    1    3    3    0    0 -0.52112249674E+01 -0.90250848615E+01  0.87462412437E+01  0.13605357716E+02  0.51100000000E-03 0.  1.
         12    1    3    3    0    0  0.36116763044E+01 -0.18527216437E+01  0.74161975980E-01  0.40598378312E+01  0.00000000000E+00 0. -1.
</event>
<event>
 7    1  0.2328615E-009  0.4778727E+02  0.7816164E-02  0.1312668E+00
        -11   -1    0    0    0    0  0.00000000000E+00  0.00000000000E+00  0.45593999997E+02  0.45594000000E+02  0.51100000000E-03 0.  1.
         11   -1    0    0    0    0 -0.00000000000E+00 -0.00000000000E+00 -0.45593999997E+02  0.45594000000E+02  0.51100000000E-03 0. -1.
    9900012    2    1    2    0    0 -0.35533086272E+02  0.20952620817E+02  0.13491130728E+02  0.47787272501E+02  0.20000006640E+02 0.  0.
         12    1    1    2    0    0  0.35533086272E+02 -0.20952620817E+02 -0.13491130728E+02  0.43400727499E+02  0.00000000000E+00 0. -1.
         11    1    3    3    0    0 -0.44228690584E+01  0.30222568333E+01 -0.17188313423E+01  0.56258500263E+01  0.51100000000E-03 0. -1.
        -11    1    3    3    0    0 -0.19769531287E+01 -0.42873601087E+00  0.62644595275E+01  0.65829789361E+01  0.51100000000E-03 0.  1.
         12    1    3    3    0    0 -0.29133264085E+02  0.18359099994E+02  0.89455025429E+01  0.35578443538E+02  0.00000000000E+00 0. -1.
</event>
<event>
 7    1  0.2328615E-009  0.4778727E+02  0.7816164E-02  0.1312668E+00
        -11   -1    0    0    0    0  0.00000000000E+00  0.00000000000E+00  0.45593999997E+02  0.45594000000E+02  0.51100000000E-03 0.  1.
         11   -1    0    0    0    0 -0.00000000000E+00 -0.00000000000E+00 -0.45593999997E+02  0.45594000000E+02  0.51100000000E-03 0. -1.
    9900012    2    1    2    0    0 -0.23255860135E+02 -0.24629617712E+02  0.27132458628E+02  0.47787269471E+02  0.19999992825E+02 0.  0.
         12    1    1    2    0    0  0.23255860135E+02  0.24629617712E+02 -0.27132458628E+02  0.43400730529E+02  0.00000000000E+00 0. -1.
         11    1    3    3    0    0 -0.50648428858E+01 -0.36333862234E+01  0.96644682492E+01  0.11500264158E+02  0.51100000000E-03 0. -1.
        -11    1    3    3    0    0  0.40915701822E+00 -0.77125031155E+01  0.91264596253E+01  0.11955851259E+02  0.51100000000E-03 0.  1.
         12    1    3    3    0    0 -0.18600174267E+02 -0.13283728373E+02  0.83415307535E+01  0.24331154054E+02  0.00000000000E+00 0. -1.
</event>
<event>
 7    1  0.2328615E-009  0.4778727E+02  0.7816164E-02  0.1312668E+00
        -11   -1    0    0    0    0  0.00000000000E+00  0.00000000000E+00  0.45593999997E+02  0.45594000000E+02  0.51100000000E-03 0.  1.
         11   -1    0    0    0    0 -0.00000000000E+00 -0.00000000000E+00 -0.45593999997E+02  0.45594000000E+02  0.51100000000E-03 0. -1.
    9900012    2    1    2    0    0 -0.35708018954E+02  0.24370926251E+02 -0.38234302724E+01  0.47787270939E+02  0.19999999519E+02 0.  0.
         12    1    1    2    0    0  0.35708018954E+02 -0.24370926251E+02  0.38234302724E+01  0.43400729061E+02  0.00000000000E+00 0. -1.
         11    1    3    3    0    0 -0.10080628944E+02 -0.16961594163E+01 -0.11446866442E+01  0.10286221096E+02  0.51100000000E-03 0. -1.
        -11    1    3    3    0    0 -0.84712685051E+01  0.13204294957E+02 -0.33757015191E+01  0.16047154153E+02  0.51100000000E-03 0.  1.
        -12    1    3    3    0    0 -0.17156121506E+02  0.12862790711E+02  0.69695789091E+00  0.21453895690E+02  0.00000000000E+00 0.  1.
</event>
<event>
 7    1  0.2328615E-009  0.4778727E+02  0.7816164E-02  0.1312668E+00
        -11   -1    0    0    0    0  0.00000000000E+00  0.00000000000E+00  0.45593999997E+02  0.45594000000E+02  0.51100000000E-03 0.  1.
         11   -1    0    0    0    0 -0.00000000000E+00 -0.00000000000E+00 -0.45593999997E+02  0.45594000000E+02  0.51100000000E-03 0. -1.
    9900012    2    1    2    0    0 -0.21055243251E+02  0.32070038757E+02 -0.20293172209E+02  0.47787268525E+02  0.19999988514E+02 0.  0.
         12    1    1    2    0    0  0.21055243251E+02 -0.32070038757E+02  0.20293172209E+02  0.43400731475E+02  0.00000000000E+00 0. -1.
         11    1    3    3    0    0 -0.19402853975E+01 -0.10017926519E+01  0.61340867587E+00  0.22681636639E+01  0.51100000000E-03 0.  1.
        -11    1    3    3    0    0 -0.13186432206E+01  0.21632662922E+01  0.19158467241E+01  0.31763201862E+01  0.51100000000E-03 0. -1.
        -12    1    3    3    0    0 -0.17796314633E+02  0.30908565116E+02 -0.22822427609E+02  0.42342784675E+02  0.00000000000E+00 0.  1.
</event>
<event>
 7    1  0.2328615E-009  0.4778721E+02  0.7816164E-02  0.1312668E+00
        -11   -1    0    0    0    0  0.00000000000E+00  0.00000000000E+00  0.45593999997E+02  0.45594000000E+02  0.51100000000E-03 0. -1.
         11   -1    0    0    0    0 -0.00000000000E+00 -0.00000000000E+00 -0.45593999997E+02  0.45594000000E+02  0.51100000000E-03 0.  1.
    9900012    2    1    2    0    0  0.10600715219E+01  0.32397170734E+02  0.28860495014E+02  0.47787209735E+02  0.19999720464E+02 0.  0.
         12    1    1    2    0    0 -0.10600715219E+01 -0.32397170734E+02 -0.28860495014E+02  0.43400790265E+02  0.00000000000E+00 0. -1.
         11    1    3    3    0    0 -0.18150437280E+01 -0.74961952285E+00  0.33990299917E+00  0.19929494408E+01  0.51100000000E-03 0. -1.
        -11    1    3    3    0    0 -0.48181299922E+01  0.20093085788E+02  0.17082185665E+02  0.26809467366E+02  0.51100000000E-03 0.  1.
        -12    1    3    3    0    0  0.76932452421E+01  0.13053704469E+02  0.11438406350E+02  0.18984792929E+02  0.00000000000E+00 0.  1.
</event>
<event>
 7    1  0.2328615E-009  0.4778727E+02  0.7816164E-02  0.1312668E+00
        -11   -1    0    0    0    0  0.00000000000E+00  0.00000000000E+00  0.45593999997E+02  0.45594000000E+02  0.51100000000E-03 0. -1.
         11   -1    0    0    0    0 -0.00000000000E+00 -0.00000000000E+00 -0.45593999997E+02  0.45594000000E+02  0.51100000000E-03 0.  1.
    9900012    2    1    2    0    0 -0.35425847206E+02 -0.93960124903E+01 -0.23245375561E+02  0.47787272058E+02  0.20000004620E+02 0.  0.
         12    1    1    2    0    0  0.35425847206E+02  0.93960124903E+01  0.23245375561E+02  0.43400727942E+02  0.00000000000E+00 0. -1.
         11    1    3    3    0    0 -0.27359397973E+01 -0.30143628591E+01 -0.81537843162E+01  0.91135036598E+01  0.51100000000E-03 0. -1.
        -11    1    3    3    0    0 -0.35132731668E+01 -0.32379558040E+01 -0.65557326854E+01  0.81120328795E+01  0.51100000000E-03 0.  1.
        -12    1    3    3    0    0 -0.29176634242E+02 -0.31436938272E+01 -0.85358585591E+01  0.30561735518E+02  0.00000000000E+00 0.  1.
</event>
<event>
 7    1  0.2328615E-009  0.4778727E+02  0.7816164E-02  0.1312668E+00
        -11   -1    0    0    0    0  0.00000000000E+00  0.00000000000E+00  0.45593999997E+02  0.45594000000E+02  0.51100000000E-03 0.  1.
         11   -1    0    0    0    0 -0.00000000000E+00 -0.00000000000E+00 -0.45593999997E+02  0.45594000000E+02  0.51100000000E-03 0. -1.
    9900012    2    1    2    0    0 -0.16207417325E+02  0.19903767998E+01  0.40211702873E+02  0.47787273923E+02  0.20000013122E+02 0.  0.
         12    1    1    2    0    0  0.16207417325E+02 -0.19903767998E+01 -0.40211702873E+02  0.43400726077E+02  0.00000000000E+00 0. -1.
         11    1    3    3    0    0 -0.11695835872E+02  0.27803654684E+01  0.16943769871E+02  0.20775330240E+02  0.51100000000E-03 0. -1.
        -11    1    3    3    0    0 -0.37178557981E+01  0.20863143827E+01  0.23625242364E+02  0.24006816458E+02  0.51100000000E-03 0.  1.
         12    1    3    3    0    0 -0.79372565437E+00 -0.28763030514E+01 -0.35730936164E+00  0.30051272249E+01  0.00000000000E+00 0. -1.
</event>
<event>
 7    1  0.2328615E-009  0.4778727E+02  0.7816164E-02  0.1312668E+00
        -11   -1    0    0    0    0  0.00000000000E+00  0.00000000000E+00  0.45593999997E+02  0.45594000000E+02  0.51100000000E-03 0.  1.
         11   -1    0    0    0    0 -0.00000000000E+00 -0.00000000000E+00 -0.45593999997E+02  0.45594000000E+02  0.51100000000E-03 0. -1.
    9900012    2    1    2    0    0 -0.17493506656E+02 -0.35447099157E+02  0.17919363554E+02  0.47787271850E+02  0.20000003672E+02 0.  0.
         12    1    1    2    0    0  0.17493506656E+02  0.35447099157E+02 -0.17919363554E+02  0.43400728150E+02  0.00000000000E+00 0. -1.
         11    1    3    3    0    0 -0.56045888564E+01 -0.43155420623E+01  0.93854864633E+01  0.11752560400E+02  0.51100000000E-03 0. -1.
        -11    1    3    3    0    0 -0.50117432667E+01 -0.17761719081E+02  0.98910254270E+01  0.20938687149E+02  0.51100000000E-03 0.  1.
         12    1    3    3    0    0 -0.68771745333E+01 -0.13369838014E+02 -0.13571483358E+01  0.15096024301E+02  0.00000000000E+00 0. -1.
</event>
<event>
 7    1  0.2328615E-009  0.4778727E+02  0.7816164E-02  0.1312668E+00
        -11   -1    0    0    0    0  0.00000000000E+00  0.00000000000E+00  0.45593999997E+02  0.45594000000E+02  0.51100000000E-03 0.  1.
         11   -1    0    0    0    0 -0.00000000000E+00 -0.00000000000E+00 -0.45593999997E+02  0.45594000000E+02  0.51100000000E-03 0. -1.
    9900012    2    1    2    0    0 -0.34287326648E+02 -0.26016807161E+02 -0.55792570322E+01  0.47787272673E+02  0.20000007425E+02 0.  0.
         12    1    1    2    0    0  0.34287326648E+02  0.26016807161E+02  0.55792570322E+01  0.43400727327E+02  0.00000000000E+00 0. -1.
         11    1    3    3    0    0 -0.11943556334E+02 -0.17522324851E+02 -0.40175432632E+01  0.21582888134E+02  0.51100000000E-03 0. -1.
        -11    1    3    3    0    0 -0.13094467944E+02 -0.94479808104E+01 -0.39107145216E+01  0.16613943555E+02  0.51100000000E-03 0.  1.
         12    1    3    3    0    0 -0.92493023699E+01  0.95349850084E+00  0.23490007526E+01  0.95904409834E+01  0.00000000000E+00 0. -1.
</event>
<event>
 7    1  0.2328615E-009  0.4778727E+02  0.7816164E-02  0.1312668E+00
        -11   -1    0    0    0    0  0.00000000000E+00  0.00000000000E+00  0.45593999997E+02  0.45594000000E+02  0.51100000000E-03 0. -1.
         11   -1    0    0    0    0 -0.00000000000E+00 -0.00000000000E+00 -0.45593999997E+02  0.45594000000E+02  0.51100000000E-03 0.  1.
    9900012    2    1    2    0    0  0.10544652947E+02  0.36960199309E+02 -0.20158806230E+02  0.47787268355E+02  0.19999987738E+02 0.  0.
         12    1    1    2    0    0 -0.10544652947E+02 -0.36960199309E+02  0.20158806230E+02  0.43400731645E+02  0.00000000000E+00 0. -1.
         11    1    3    3    0    0  0.29238112211E+01  0.20344992123E+02 -0.24919704732E+01  0.20704523507E+02  0.51100000000E-03 0. -1.
        -11    1    3    3    0    0  0.86462688823E+01  0.11437678597E+02 -0.89796143289E+01  0.16917799237E+02  0.51100000000E-03 0.  1.
        -12    1    3    3    0    0 -0.10254271568E+01  0.51775285881E+01 -0.86872214279E+01  0.10164945611E+02  0.00000000000E+00 0.  1.
</event>
<event>
 7    1  0.2328615E-009  0.4778727E+02  0.7816164E-02  0.1312668E+00
        -11   -1    0    0    0    0  0.00000000000E+00  0.00000000000E+00  0.45593999997E+02  0.45594000000E+02  0.51100000000E-03 0.  1.
         11   -1    0    0    0    0 -0.00000000000E+00 -0.00000000000E+00 -0.45593999997E+02  0.45594000000E+02  0.51100000000E-03 0. -1.
    9900012    2    1    2    0    0 -0.12589515347E+02 -0.38943705411E+02  0.14440051716E+02  0.47787272110E+02  0.20000004857E+02 0.  0.
         12    1    1    2    0    0  0.12589515347E+02  0.38943705411E+02 -0.14440051716E+02  0.43400727890E+02  0.00000000000E+00 0. -1.
         11    1    3    3    0    0 -0.10566827029E+01 -0.12377389792E+01 -0.18588385738E+01  0.24705985549E+01  0.51100000000E-03 0. -1.
        -11    1    3    3    0    0 -0.77468452090E+01 -0.14727961357E+02  0.14303571958E+02  0.21943532702E+02  0.51100000000E-03 0.  1.
         12    1    3    3    0    0 -0.37859874355E+01 -0.22978005075E+02  0.19953183325E+01  0.23373140853E+02  0.00000000000E+00 0. -1.
</event>
<event>
 7    1  0.2328615E-009  0.4778727E+02  0.7816164E-02  0.1312668E+00
        -11   -1    0    0    0    0  0.00000000000E+00  0.00000000000E+00  0.45593999997E+02  0.45594000000E+02  0.51100000000E-03 0.  1.
         11   -1    0    0    0    0 -0.00000000000E+00 -0.00000000000E+00 -0.45593999997E+02  0.45594000000E+02  0.51100000000E-03 0. -1.
    9900012    2    1    2    0    0  0.22652491568E+02 -0.33140430026E+02  0.16498481635E+02  0.47787269905E+02  0.19999994805E+02 0.  0.
         12    1    1    2    0    0 -0.22652491568E+02  0.33140430026E+02 -0.16498481635E+02  0.43400730095E+02  0.00000000000E+00 0. -1.
         11    1    3    3    0    0 -0.12134980016E+01  0.18564747715E+00  0.17486388834E+01  0.21365347157E+01  0.51100000000E-03 0. -1.
        -11    1    3    3    0    0 -0.16863967043E+01 -0.11566232679E+01  0.14850904707E+00  0.20503088612E+01  0.51100000000E-03 0.  1.
        -12    1    3    3    0    0  0.25552386274E+02 -0.32169454235E+02  0.14601333704E+02  0.43600426328E+02  0.00000000000E+00 0.  1.
</event>
<event>
 7    1  0.2328615E-009  0.4778727E+02  0.7816164E-02  0.1312668E+00
        -11   -1    0    0    0    0  0.00000000000E+00  0.00000000000E+00  0.45593999997E+02  0.45594000000E+02  0.51100000000E-03 0.  1.
         11   -1    0    0    0    0 -0.00000000000E+00 -0.00000000000E+00 -0.45593999997E+02  0.45594000000E+02  0.51100000000E-03 0. -1.
    9900012    2    1    2    0    0 -0.11865275729E+02 -0.39759320289E+01  0.41557554568E+02  0.47787272525E+02  0.20000006752E+02 0.  0.
         12    1    1    2    0    0  0.11865275729E+02  0.39759320289E+01 -0.41557554568E+02  0.43400727475E+02  0.00000000000E+00 0. -1.
         11    1    3    3    0    0  0.33875355109E+01 -0.10164185078E+01  0.92810589016E+01  0.99320973625E+01  0.51100000000E-03 0. -1.
        -11    1    3    3    0    0  0.13525125152E+01  0.11689651356E+01  0.77260885138E+01  0.79302089238E+01  0.51100000000E-03 0.  1.
        -12    1    3    3    0    0 -0.16605323755E+02 -0.41284786567E+01  0.24550407153E+02  0.29924966239E+02  0.00000000000E+00 0.  1.
</event>
<event>
 7    1  0.2328615E-009  0.4778727E+02  0.7816164E-02  0.1312668E+00
        -11   -1    0    0    0    0  0.00000000000E+00  0.00000000000E+00  0.45593999997E+02  0.45594000000E+02  0.51100000000E-03 0.  1.
         11   -1    0    0    0    0 -0.00000000000E+00 -0.00000000000E+00 -0.45593999997E+02  0.45594000000E+02  0.51100000000E-03 0. -1.
    9900012    2    1    2    0    0  0.36099989479E+02 -0.17803779491E+02  0.16230816270E+02  0.47787271880E+02  0.20000003811E+02 0.  0.
         12    1    1    2    0    0 -0.36099989479E+02  0.17803779491E+02 -0.16230816270E+02  0.43400728120E+02  0.00000000000E+00 0. -1.
         11    1    3    3    0    0  0.44171186536E+01  0.22030429094E+01  0.16559564876E+00  0.49388012149E+01  0.51100000000E-03 0. -1.
        -11    1    3    3    0    0  0.55066047624E+01 -0.62871839257E+01  0.93509438339E+01  0.12541591947E+02  0.51100000000E-03 0.  1.
         12    1    3    3    0    0  0.26176266063E+02 -0.13719638475E+02  0.67142767877E+01  0.30306878718E+02  0.00000000000E+00 0. -1.
</event>
<event>
 7    1  0.2328615E-009  0.4778727E+02  0.7816164E-02  0.1312668E+00
        -11   -1    0    0    0    0  0.00000000000E+00  0.00000000000E+00  0.45593999997E+02  0.45594000000E+02  0.51100000000E-03 0.  1.
         11   -1    0    0    0    0 -0.00000000000E+00 -0.00000000000E+00 -0.45593999997E+02  0.45594000000E+02  0.51100000000E-03 0. -1.
    9900012    2    1    2    0    0  0.34924196488E+02 -0.25728741087E+02 -0.13985595126E+01  0.47787267438E+02  0.19999983557E+02 0.  0.
         12    1    1    2    0    0 -0.34924196488E+02  0.25728741087E+02  0.13985595126E+01  0.43400732562E+02  0.00000000000E+00 0. -1.
         11    1    3    3    0    0  0.62430501668E+00  0.91064492720E+00  0.28211535922E+01  0.30295113119E+01  0.51100000000E-03 0. -1.
        -11    1    3    3    0    0  0.25770640418E+02 -0.15496523461E+02  0.11404130248E+00  0.30071267892E+02  0.51100000000E-03 0.  1.
        -12    1    3    3    0    0  0.85292510530E+01 -0.11142862553E+02 -0.43337544072E+01  0.14686488234E+02  0.00000000000E+00 0.  1.
</event>
<event>
 7    1  0.2328615E-009  0.4778727E+02  0.7816164E-02  0.1312668E+00
        -11   -1    0    0    0    0  0.00000000000E+00  0.00000000000E+00  0.45593999997E+02  0.45594000000E+02  0.51100000000E-03 0.  1.
         11   -1    0    0    0    0 -0.00000000000E+00 -0.00000000000E+00 -0.45593999997E+02  0.45594000000E+02  0.51100000000E-03 0. -1.
    9900012    2    1    2    0    0 -0.28167988539E+02 -0.32131921184E+02 -0.75978532663E+01  0.47787270610E+02  0.19999998019E+02 0.  0.
         12    1    1    2    0    0  0.28167988539E+02  0.32131921184E+02  0.75978532663E+01  0.43400729390E+02  0.00000000000E+00 0. -1.
         11    1    3    3    0    0 -0.13252968848E+02 -0.17178260188E+02 -0.12462038295E+02  0.25020715520E+02  0.51100000000E-03 0. -1.
        -11    1    3    3    0    0 -0.67265222917E+01 -0.99338879388E+01 -0.75143442093E-02  0.11997011647E+02  0.51100000000E-03 0.  1.
         12    1    3    3    0    0 -0.81884973996E+01 -0.50197730571E+01  0.48716993729E+01  0.10769543444E+02  0.00000000000E+00 0. -1.
</event>
<event>
 7    1  0.2328615E-009  0.4778727E+02  0.7816164E-02  0.1312668E+00
        -11   -1    0    0    0    0  0.00000000000E+00  0.00000000000E+00  0.45593999997E+02  0.45594000000E+02  0.51100000000E-03 0.  1.
         11   -1    0    0    0    0 -0.00000000000E+00 -0.00000000000E+00 -0.45593999997E+02  0.45594000000E+02  0.51100000000E-03 0. -1.
    9900012    2    1    2    0    0  0.30928493754E+02 -0.83644578850E+01  0.29276052525E+02  0.47787272667E+02  0.20000007397E+02 0.  0.
         12    1    1    2    0    0 -0.30928493754E+02  0.83644578850E+01 -0.29276052525E+02  0.43400727333E+02  0.00000000000E+00 0. -1.
         11    1    3    3    0    0  0.20166569530E+02  0.20567095418E+01  0.11673947269E+02  0.23392341179E+02  0.51100000000E-03 0. -1.
        -11    1    3    3    0    0  0.42790950505E+01 -0.28411576916E+00  0.76913787164E+01  0.88061730077E+01  0.51100000000E-03 0.  1.
         12    1    3    3    0    0  0.64828291735E+01 -0.10137051658E+02  0.99107265396E+01  0.15588758480E+02  0.00000000000E+00 0. -1.
</event>
<event>
 7    1  0.2328615E-009  0.4778727E+02  0.7816164E-02  0.1312668E+00
        -11   -1    0    0    0    0  0.00000000000E+00  0.00000000000E+00  0.45593999997E+02  0.45594000000E+02  0.51100000000E-03 0.  1.
         11   -1    0    0    0    0 -0.00000000000E+00 -0.00000000000E+00 -0.45593999997E+02  0.45594000000E+02  0.51100000000E-03 0. -1.
    9900012    2    1    2    0    0  0.41519050965E+02 -0.47733047977E+00 -0.12631854776E+02  0.47787271981E+02  0.20000004272E+02 0.  0.
         12    1    1    2    0    0 -0.41519050965E+02  0.47733047977E+00  0.12631854776E+02  0.43400728019E+02  0.00000000000E+00 0. -1.
         11    1    3    3    0    0  0.11559964897E+02  0.43864833415E+01 -0.94632541587E+01  0.15570073990E+02  0.51100000000E-03 0. -1.
        -11    1    3    3    0    0  0.22282974768E+02  0.86554591778E+00 -0.37855940345E+01  0.22618816430E+02  0.51100000000E-03 0.  1.
        -12    1    3    3    0    0  0.76761113001E+01 -0.57293597390E+01  0.61699341726E+00  0.95983815609E+01  0.00000000000E+00 0.  1.
</event>
<event>
 7    1  0.2328615E-009  0.4778727E+02  0.7816164E-02  0.1312668E+00
        -11   -1    0    0    0    0  0.00000000000E+00  0.00000000000E+00  0.45593999997E+02  0.45594000000E+02  0.51100000000E-03 0. -1.
         11   -1    0    0    0    0 -0.00000000000E+00 -0.00000000000E+00 -0.45593999997E+02  0.45594000000E+02  0.51100000000E-03 0.  1.
    9900012    2    1    2    0    0 -0.34241304854E+02  0.40164197878E+01 -0.26363317199E+02  0.47787273280E+02  0.20000010195E+02 0.  0.
         12    1    1    2    0    0  0.34241304854E+02 -0.40164197878E+01  0.26363317199E+02  0.43400726720E+02  0.00000000000E+00 0. -1.
         11    1    3    3    0    0 -0.10198685950E+02  0.84602104658E+01 -0.39158971909E+01  0.13817474708E+02  0.51100000000E-03 0. -1.
        -11    1    3    3    0    0 -0.15460656685E+01 -0.12203037123E+01 -0.48251291260E+01  0.52116534367E+01  0.51100000000E-03 0.  1.
        -12    1    3    3    0    0 -0.22496553236E+02 -0.32234869657E+01 -0.17622290882E+02  0.28758145136E+02  0.00000000000E+00 0.  1.
</event>
<event>
 7    1  0.2328615E-009  0.4778729E+02  0.7816164E-02  0.1312668E+00
        -11   -1    0    0    0    0  0.00000000000E+00  0.00000000000E+00  0.45593999997E+02  0.45594000000E+02  0.51100000000E-03 0.  1.
         11   -1    0    0    0    0 -0.00000000000E+00 -0.00000000000E+00 -0.45593999997E+02  0.45594000000E+02  0.51100000000E-03 0. -1.
    9900012    2    1    2    0    0  0.14228305930E+02 -0.40385572245E+02  0.70839415106E+01  0.47787293065E+02  0.20000100398E+02 0.  0.
         12    1    1    2    0    0 -0.14228305930E+02  0.40385572245E+02 -0.70839415106E+01  0.43400706935E+02  0.00000000000E+00 0. -1.
         11    1    3    3    0    0  0.29995403561E+00 -0.36771111337E+01 -0.37051591848E+01  0.52287019000E+01  0.51100000000E-03 0. -1.
        -11    1    3    3    0    0  0.82630169989E+01 -0.67273623699E+01  0.26416321000E+01  0.10977844724E+02  0.51100000000E-03 0.  1.
        -12    1    3    3    0    0  0.56653348957E+01 -0.29981098741E+02  0.81474685955E+01  0.31580746440E+02  0.00000000000E+00 0.  1.
</event>
<event>
 7    1  0.2328615E-009  0.4778728E+02  0.7816164E-02  0.1312668E+00
        -11   -1    0    0    0    0  0.00000000000E+00  0.00000000000E+00  0.45593999997E+02  0.45594000000E+02  0.51100000000E-03 0.  1.
         11   -1    0    0    0    0 -0.00000000000E+00 -0.00000000000E+00 -0.45593999997E+02  0.45594000000E+02  0.51100000000E-03 0. -1.
    9900012    2    1    2    0    0  0.38836080039E+02 -0.17559244726E+02  0.81886506006E+01  0.47787283568E+02  0.20000057101E+02 0.  0.
         12    1    1    2    0    0 -0.38836080039E+02  0.17559244726E+02 -0.81886506006E+01  0.43400716432E+02  0.00000000000E+00 0. -1.
         11    1    3    3    0    0  0.16663441146E+02 -0.11461884509E+02  0.26930731130E+01  0.20403374975E+02  0.51100000000E-03 0. -1.
        -11    1    3    3    0    0  0.14534748465E+02 -0.10564765415E+02  0.40273961839E+01  0.18414480755E+02  0.51100000000E-03 0.  1.
         12    1    3    3    0    0  0.76378904278E+01  0.44674051981E+01  0.14681813037E+01  0.89694278375E+01  0.00000000000E+00 0. -1.
</event>
<event>
 7    1  0.2328615E-009  0.4778727E+02  0.7816164E-02  0.1312668E+00
        -11   -1    0    0    0    0  0.00000000000E+00  0.00000000000E+00  0.45593999997E+02  0.45594000000E+02  0.51100000000E-03 0.  1.
         11   -1    0    0    0    0 -0.00000000000E+00 -0.00000000000E+00 -0.45593999997E+02  0.45594000000E+02  0.51100000000E-03 0. -1.
    9900012    2    1    2    0    0 -0.12540224510E+02  0.40892063436E+02  0.73624192215E+01  0.47787270748E+02  0.19999998647E+02 0.  0.
         12    1    1    2    0    0  0.12540224510E+02 -0.40892063436E+02 -0.73624192215E+01  0.43400729252E+02  0.00000000000E+00 0. -1.
         11    1    3    3    0    0 -0.60384583669E+01  0.15984971198E+02 -0.57726393368E+01  0.18036231559E+02  0.51100000000E-03 0. -1.
        -11    1    3    3    0    0 -0.26740706244E+00  0.28077855365E+01 -0.74864003657E+00  0.29181549516E+01  0.51100000000E-03 0.  1.
        -12    1    3    3    0    0 -0.62343590802E+01  0.22099306701E+02  0.13883698595E+02  0.26832884237E+02  0.00000000000E+00 0.  1.
</event>
<event>
 7    1  0.2328615E-009  0.4778727E+02  0.7816164E-02  0.1312668E+00
        -11   -1    0    0    0    0  0.00000000000E+00  0.00000000000E+00  0.45593999997E+02  0.45594000000E+02  0.51100000000E-03 0.  1.
         11   -1    0    0    0    0 -0.00000000000E+00 -0.00000000000E+00 -0.45593999997E+02  0.45594000000E+02  0.51100000000E-03 0. -1.
    9900012    2    1    2    0    0 -0.20412730518E+02  0.10497399480E+02  0.36834069790E+02  0.47787266592E+02  0.19999979701E+02 0.  0.
         12    1    1    2    0    0  0.20412730518E+02 -0.10497399480E+02 -0.36834069790E+02  0.43400733408E+02  0.00000000000E+00 0. -1.
         11    1    3    3    0    0  0.18516446482E+01 -0.25371936965E+00  0.21221182176E+01  0.28277813586E+01  0.51100000000E-03 0. -1.
        -11    1    3    3    0    0 -0.41394091894E+01  0.65732096331E+01  0.32709102819E+01  0.84285614224E+01  0.51100000000E-03 0.  1.
        -12    1    3    3    0    0 -0.18124965977E+02  0.41779092164E+01  0.31441041290E+02  0.36530923811E+02  0.00000000000E+00 0.  1.
</event>
<event>
 7    1  0.2328615E-009  0.4778728E+02  0.7816164E-02  0.1312668E+00
        -11   -1    0    0    0    0  0.00000000000E+00  0.00000000000E+00  0.45593999997E+02  0.45594000000E+02  0.51100000000E-03 0.  1.
         11   -1    0    0    0    0 -0.00000000000E+00 -0.00000000000E+00 -0.45593999997E+02  0.45594000000E+02  0.51100000000E-03 0. -1.
    9900012    2    1    2    0    0  0.17140190124E+02  0.34830615329E+02  0.19407853233E+02  0.47787278245E+02  0.20000032831E+02 0.  0.
         12    1    1    2    0    0 -0.17140190124E+02 -0.34830615329E+02 -0.19407853233E+02  0.43400721755E+02  0.00000000000E+00 0. -1.
         11    1    3    3    0    0  0.60777699424E+01  0.70929668916E+00  0.14475806076E+01  0.62879153256E+01  0.51100000000E-03 0. -1.
        -11    1    3    3    0    0 -0.10004431682E+01  0.12765849086E+02  0.48870512599E+01  0.13705876831E+02  0.51100000000E-03 0.  1.
        -12    1    3    3    0    0  0.12062863350E+02  0.21355469554E+02  0.13073221366E+02  0.27793486089E+02  0.00000000000E+00 0.  1.
</event>
<event>
 7    1  0.2328615E-009  0.4778726E+02  0.7816164E-02  0.1312668E+00
        -11   -1    0    0    0    0  0.00000000000E+00  0.00000000000E+00  0.45593999997E+02  0.45594000000E+02  0.51100000000E-03 0. -1.
         11   -1    0    0    0    0 -0.00000000000E+00 -0.00000000000E+00 -0.45593999997E+02  0.45594000000E+02  0.51100000000E-03 0.  1.
    9900012    2    1    2    0    0 -0.14871933185E+02  0.16793516488E+02 -0.37154102933E+02  0.47787263170E+02  0.19999964095E+02 0.  0.
         12    1    1    2    0    0  0.14871933185E+02 -0.16793516488E+02  0.37154102933E+02  0.43400736830E+02  0.00000000000E+00 0. -1.
         11    1    3    3    0    0 -0.27714219632E+01  0.65483892962E+01 -0.53827204533E+01  0.89182880539E+01  0.51100000000E-03 0. -1.
        -11    1    3    3    0    0 -0.15564462912E+02  0.88786499110E+01 -0.29474291494E+02  0.34493721012E+02  0.51100000000E-03 0.  1.
        -12    1    3    3    0    0  0.34639516902E+01  0.13664772807E+01 -0.22970909860E+01  0.43752541033E+01  0.00000000000E+00 0.  1.
</event>
<event>
 7    1  0.2328615E-009  0.4778727E+02  0.7816164E-02  0.1312668E+00
        -11   -1    0    0    0    0  0.00000000000E+00  0.00000000000E+00  0.45593999997E+02  0.45594000000E+02  0.51100000000E-03 0.  1.
         11   -1    0    0    0    0 -0.00000000000E+00 -0.00000000000E+00 -0.45593999997E+02  0.45594000000E+02  0.51100000000E-03 0. -1.
    9900012    2    1    2    0    0 -0.22360079972E+02 -0.95473779102E+01  0.35951322687E+02  0.47787271846E+02  0.20000003656E+02 0.  0.
         12    1    1    2    0    0  0.22360079972E+02  0.95473779102E+01 -0.35951322687E+02  0.43400728154E+02  0.00000000000E+00 0. -1.
         11    1    3    3    0    0 -0.12300356053E+02 -0.41851495617E+01  0.16648401532E+02  0.21118321659E+02  0.51100000000E-03 0.  1.
        -11    1    3    3    0    0 -0.62567341771E+01  0.41580957697E+01  0.11705638026E+02  0.13908933994E+02  0.51100000000E-03 0. -1.
         12    1    3    3    0    0 -0.38029897426E+01 -0.95203241182E+01  0.75972831289E+01  0.12760016193E+02  0.00000000000E+00 0. -1.
</event>
<event>
 7    1  0.2328615E-009  0.4778727E+02  0.7816164E-02  0.1312668E+00
        -11   -1    0    0    0    0  0.00000000000E+00  0.00000000000E+00  0.45593999997E+02  0.45594000000E+02  0.51100000000E-03 0.  1.
         11   -1    0    0    0    0 -0.00000000000E+00 -0.00000000000E+00 -0.45593999997E+02  0.45594000000E+02  0.51100000000E-03 0. -1.
    9900012    2    1    2    0    0 -0.17041102615E+02 -0.25769727420E+02  0.30481890762E+02  0.47787266204E+02  0.19999977928E+02 0.  0.
         12    1    1    2    0    0  0.17041102615E+02  0.25769727420E+02 -0.30481890762E+02  0.43400733796E+02  0.00000000000E+00 0. -1.
         11    1    3    3    0    0  0.12828281338E+01 -0.18689521626E+01  0.88624053128E+00  0.24339377041E+01  0.51100000000E-03 0. -1.
        -11    1    3    3    0    0  0.10645972093E+01 -0.10442714817E+02  0.11809826217E+02  0.15800495419E+02  0.51100000000E-03 0.  1.
         12    1    3    3    0    0 -0.19388527958E+02 -0.13458060440E+02  0.17785824015E+02  0.29552833080E+02  0.00000000000E+00 0. -1.
</event>
<event>
 7    1  0.2328615E-009  0.4778727E+02  0.7816164E-02  0.1312668E+00
        -11   -1    0    0    0    0  0.00000000000E+00  0.00000000000E+00  0.45593999997E+02  0.45594000000E+02  0.51100000000E-03 0.  1.
         11   -1    0    0    0    0 -0.00000000000E+00 -0.00000000000E+00 -0.45593999997E+02  0.45594000000E+02  0.51100000000E-03 0. -1.
    9900012    2    1    2    0    0 -0.19401503192E+02 -0.18483873932E+02  0.34140179313E+02  0.47787265384E+02  0.19999974193E+02 0.  0.
         12    1    1    2    0    0  0.19401503192E+02  0.18483873932E+02 -0.34140179313E+02  0.43400734616E+02  0.00000000000E+00 0. -1.
         11    1    3    3    0    0 -0.74268602256E+01 -0.79314458169E+01  0.10921997901E+02  0.15406366345E+02  0.51100000000E-03 0.  1.
        -11    1    3    3    0    0 -0.64939624810E+01 -0.63368338619E+01  0.23771604664E+02  0.25444374637E+02  0.51100000000E-03 0. -1.
         12    1    3    3    0    0 -0.54806804853E+01 -0.42155942532E+01 -0.55342325107E+00  0.69365244023E+01  0.00000000000E+00 0. -1.
</event>
<event>
 7    1  0.2328615E-009  0.4778727E+02  0.7816164E-02  0.1312668E+00
        -11   -1    0    0    0    0  0.00000000000E+00  0.00000000000E+00  0.45593999997E+02  0.45594000000E+02  0.51100000000E-03 0. -1.
         11   -1    0    0    0    0 -0.00000000000E+00 -0.00000000000E+00 -0.45593999997E+02  0.45594000000E+02  0.51100000000E-03 0.  1.
    9900012    2    1    2    0    0 -0.20086301034E+02 -0.37335981407E+02 -0.92837841566E+01  0.47787266768E+02  0.19999980502E+02 0.  0.
         12    1    1    2    0    0  0.20086301034E+02  0.37335981407E+02  0.92837841566E+01  0.43400733232E+02  0.00000000000E+00 0. -1.
         11    1    3    3    0    0 -0.11795352245E+02 -0.18504099578E+02 -0.16664528704E+01  0.22007023906E+02  0.51100000000E-03 0. -1.
        -11    1    3    3    0    0 -0.11518276628E+02 -0.17774669883E+02 -0.71360599422E+01  0.22350233504E+02  0.51100000000E-03 0.  1.
         12    1    3    3    0    0  0.32273278398E+01 -0.10572119455E+01 -0.48127134398E+00  0.34300093571E+01  0.00000000000E+00 0. -1.
</event>
<event>
 7    1  0.2328615E-009  0.4778727E+02  0.7816164E-02  0.1312668E+00
        -11   -1    0    0    0    0  0.00000000000E+00  0.00000000000E+00  0.45593999997E+02  0.45594000000E+02  0.51100000000E-03 0.  1.
         11   -1    0    0    0    0 -0.00000000000E+00 -0.00000000000E+00 -0.45593999997E+02  0.45594000000E+02  0.51100000000E-03 0. -1.
    9900012    2    1    2    0    0  0.13214281158E+01  0.52843877984E+01  0.43057545746E+02  0.47787272214E+02  0.20000005333E+02 0.  0.
         12    1    1    2    0    0 -0.13214281158E+01 -0.52843877984E+01 -0.43057545746E+02  0.43400727786E+02  0.00000000000E+00 0. -1.
         11    1    3    3    0    0  0.23743333663E+01  0.25349185332E+01  0.30882853230E+01  0.46476636498E+01  0.51100000000E-03 0. -1.
        -11    1    3    3    0    0  0.95774597833E+00  0.92904512385E+01  0.21386426814E+02  0.23336859551E+02  0.51100000000E-03 0.  1.
         12    1    3    3    0    0 -0.20106512289E+01 -0.65409819733E+01  0.18582833609E+02  0.19802749013E+02  0.00000000000E+00 0. -1.
</event>
<event>
 7    1  0.2328615E-009  0.4778726E+02  0.7816164E-02  0.1312668E+00
        -11   -1    0    0    0    0  0.00000000000E+00  0.00000000000E+00  0.45593999997E+02  0.45594000000E+02  0.51100000000E-03 0.  1.
         11   -1    0    0    0    0 -0.00000000000E+00 -0.00000000000E+00 -0.45593999997E+02  0.45594000000E+02  0.51100000000E-03 0. -1.
    9900012    2    1    2    0    0  0.41998916449E+02  0.89682257300E+01  0.62678962507E+01  0.47787256008E+02  0.19999931445E+02 0.  0.
         12    1    1    2    0    0 -0.41998916449E+02 -0.89682257300E+01 -0.62678962507E+01  0.43400743992E+02  0.00000000000E+00 0. -1.
         11    1    3    3    0    0  0.54686074814E+01  0.41693828815E+01  0.76888064373E+01  0.10315384922E+02  0.51100000000E-03 0.  1.
        -11    1    3    3    0    0  0.31180614515E+01  0.11695712418E+01 -0.19496601987E+01  0.38589349899E+01  0.51100000000E-03 0. -1.
        -12    1    3    3    0    0  0.33412247516E+02  0.36292716067E+01  0.52875001223E+00  0.33612936097E+02  0.00000000000E+00 0.  1.
</event>
<event>
 7    1  0.2328615E-009  0.4778727E+02  0.7816164E-02  0.1312668E+00
        -11   -1    0    0    0    0  0.00000000000E+00  0.00000000000E+00  0.45593999997E+02  0.45594000000E+02  0.51100000000E-03 0.  1.
         11   -1    0    0    0    0 -0.00000000000E+00 -0.00000000000E+00 -0.45593999997E+02  0.45594000000E+02  0.51100000000E-03 0. -1.
    9900012    2    1    2    0    0  0.42021281210E+02  0.10823001679E+02  0.83536620068E+00  0.47787271013E+02  0.19999999857E+02 0.  0.
         12    1    1    2    0    0 -0.42021281210E+02 -0.10823001679E+02 -0.83536620068E+00  0.43400728987E+02  0.00000000000E+00 0. -1.
         11    1    3    3    0    0  0.83980745677E+01 -0.22494893702E+01  0.59116152979E+01  0.10513565264E+02  0.51100000000E-03 0. -1.
        -11    1    3    3    0    0  0.13157889959E+02  0.57541672658E+01  0.18093687321E+01  0.14474609652E+02  0.51100000000E-03 0.  1.
        -12    1    3    3    0    0  0.20465316683E+02  0.73183237835E+01 -0.68856178294E+01  0.22799096097E+02  0.00000000000E+00 0.  1.
</event>
<event>
 7    1  0.2328615E-009  0.4778727E+02  0.7816164E-02  0.1312668E+00
        -11   -1    0    0    0    0  0.00000000000E+00  0.00000000000E+00  0.45593999997E+02  0.45594000000E+02  0.51100000000E-03 0.  1.
         11   -1    0    0    0    0 -0.00000000000E+00 -0.00000000000E+00 -0.45593999997E+02  0.45594000000E+02  0.51100000000E-03 0. -1.
    9900012    2    1    2    0    0  0.56210835560E+01  0.24270874739E+02  0.35538026604E+02  0.47787271021E+02  0.19999999895E+02 0.  0.
         12    1    1    2    0    0 -0.56210835560E+01 -0.24270874739E+02 -0.35538026604E+02  0.43400728979E+02  0.00000000000E+00 0. -1.
         11    1    3    3    0    0 -0.19215391487E+01  0.53592848149E+01  0.11365773959E+02  0.12712004735E+02  0.51100000000E-03 0.  1.
        -11    1    3    3    0    0  0.92455912832E+01  0.18868975196E+02  0.15177353812E+02  0.25920479396E+02  0.51100000000E-03 0. -1.
         12    1    3    3    0    0 -0.17029685786E+01  0.42614728234E-01  0.89948988335E+01  0.91547868910E+01  0.00000000000E+00 0. -1.
</event>
<event>
 7    1  0.2328615E-009  0.4778732E+02  0.7816164E-02  0.1312668E+00
        -11   -1    0    0    0    0  0.00000000000E+00  0.00000000000E+00  0.45593999997E+02  0.45594000000E+02  0.51100000000E-03 0.  1.
         11   -1    0    0    0    0 -0.00000000000E+00 -0.00000000000E+00 -0.45593999997E+02  0.45594000000E+02  0.51100000000E-03 0. -1.
    9900012    2    1    2    0    0 -0.17744413461E+02 -0.20523268043E+02  0.33875516550E+02  0.47787316114E+02  0.20000205489E+02 0.  0.
         12    1    1    2    0    0  0.17744413461E+02  0.20523268043E+02 -0.33875516550E+02  0.43400683886E+02  0.00000000000E+00 0. -1.
         11    1    3    3    0    0 -0.20225250882E+01 -0.10535956280E+02  0.98483779650E+01  0.14563225304E+02  0.51100000000E-03 0. -1.
        -11    1    3    3    0    0 -0.12481210147E+01 -0.44636132381E+00  0.12122103634E+02  0.12194361044E+02  0.51100000000E-03 0.  1.
        -12    1    3    3    0    0 -0.14473767358E+02 -0.95409504398E+01  0.11905034951E+02  0.21029729766E+02  0.00000000000E+00 0.  1.
</event>
<event>
 7    1  0.2328615E-009  0.4778727E+02  0.7816164E-02  0.1312668E+00
        -11   -1    0    0    0    0  0.00000000000E+00  0.00000000000E+00  0.45593999997E+02  0.45594000000E+02  0.51100000000E-03 0. -1.
         11   -1    0    0    0    0 -0.00000000000E+00 -0.00000000000E+00 -0.45593999997E+02  0.45594000000E+02  0.51100000000E-03 0.  1.
    9900012    2    1    2    0    0  0.40729922990E+02  0.14933379679E+02  0.13002640134E+01  0.47787272565E+02  0.20000006933E+02 0.  0.
         12    1    1    2    0    0 -0.40729922990E+02 -0.14933379679E+02 -0.13002640134E+01  0.43400727435E+02  0.00000000000E+00 0. -1.
         11    1    3    3    0    0  0.13191365832E+01  0.12808561114E+01 -0.39599915092E+01  0.43660332932E+01  0.51100000000E-03 0. -1.
        -11    1    3    3    0    0  0.10918424472E+02 -0.11306825633E+01  0.19920079335E+01  0.11156098417E+02  0.51100000000E-03 0.  1.
        -12    1    3    3    0    0  0.28492361934E+02  0.14783206131E+02  0.32682475890E+01  0.32265140855E+02  0.00000000000E+00 0.  1.
</event>
<event>
 7    1  0.2328615E-009  0.4778727E+02  0.7816164E-02  0.1312668E+00
        -11   -1    0    0    0    0  0.00000000000E+00  0.00000000000E+00  0.45593999997E+02  0.45594000000E+02  0.51100000000E-03 0. -1.
         11   -1    0    0    0    0 -0.00000000000E+00 -0.00000000000E+00 -0.45593999997E+02  0.45594000000E+02  0.51100000000E-03 0.  1.
    9900012    2    1    2    0    0 -0.26046403159E+02 -0.34526921367E+02 -0.36193470490E+01  0.47787273166E+02  0.20000009674E+02 0.  0.
         12    1    1    2    0    0  0.26046403159E+02  0.34526921367E+02  0.36193470490E+01  0.43400726834E+02  0.00000000000E+00 0. -1.
         11    1    3    3    0    0 -0.16713714812E+01 -0.71211909862E+01 -0.63878728088E+01  0.97113213814E+01  0.51100000000E-03 0. -1.
        -11    1    3    3    0    0 -0.14742607252E+02 -0.12679902416E+02 -0.27399063629E+01  0.19637501903E+02  0.51100000000E-03 0.  1.
        -12    1    3    3    0    0 -0.96324244256E+01 -0.14725827965E+02  0.55084321227E+01  0.18438449881E+02  0.00000000000E+00 0.  1.
</event>
<event>
 7    1  0.2328615E-009  0.4778727E+02  0.7816164E-02  0.1312668E+00
        -11   -1    0    0    0    0  0.00000000000E+00  0.00000000000E+00  0.45593999997E+02  0.45594000000E+02  0.51100000000E-03 0.  1.
         11   -1    0    0    0    0 -0.00000000000E+00 -0.00000000000E+00 -0.45593999997E+02  0.45594000000E+02  0.51100000000E-03 0. -1.
    9900012    2    1    2    0    0  0.52444145122E+01  0.53137539864E+01  0.42753749402E+02  0.47787274742E+02  0.20000016860E+02 0.  0.
         12    1    1    2    0    0 -0.52444145122E+01 -0.53137539864E+01 -0.42753749402E+02  0.43400725258E+02  0.00000000000E+00 0. -1.
         11    1    3    3    0    0 -0.11021550093E+01  0.18962551807E+01  0.29330698249E+01  0.36624347412E+01  0.51100000000E-03 0. -1.
        -11    1    3    3    0    0 -0.38914322739E+00  0.22094001929E+01  0.36409533660E+02  0.36478583076E+02  0.51100000000E-03 0.  1.
        -12    1    3    3    0    0  0.67357127489E+01  0.12080986128E+01  0.34111459166E+01  0.76462569246E+01  0.00000000000E+00 0.  1.
</event>
<event>
 7    1  0.2328615E-009  0.4778726E+02  0.7816164E-02  0.1312668E+00
        -11   -1    0    0    0    0  0.00000000000E+00  0.00000000000E+00  0.45593999997E+02  0.45594000000E+02  0.51100000000E-03 0.  1.
         11   -1    0    0    0    0 -0.00000000000E+00 -0.00000000000E+00 -0.45593999997E+02  0.45594000000E+02  0.51100000000E-03 0. -1.
    9900012    2    1    2    0    0  0.23054848508E+02 -0.25832821985E+02  0.26167980518E+02  0.47787263419E+02  0.19999965230E+02 0.  0.
         12    1    1    2    0    0 -0.23054848508E+02  0.25832821985E+02 -0.26167980518E+02  0.43400736581E+02  0.00000000000E+00 0. -1.
         11    1    3    3    0    0  0.22391835073E+02 -0.14298918679E+02  0.17256988975E+02  0.31680546430E+02  0.51100000000E-03 0.  1.
        -11    1    3    3    0    0  0.35669371131E+01 -0.54347878052E+01  0.56166738899E+01  0.85910991556E+01  0.51100000000E-03 0. -1.
         12    1    3    3    0    0 -0.29039236781E+01 -0.60991155007E+01  0.32943176527E+01  0.75156178333E+01  0.00000000000E+00 0. -1.
</event>
<event>
 7    1  0.2328615E-009  0.4778727E+02  0.7816164E-02  0.1312668E+00
        -11   -1    0    0    0    0  0.00000000000E+00  0.00000000000E+00  0.45593999997E+02  0.45594000000E+02  0.51100000000E-03 0.  1.
         11   -1    0    0    0    0 -0.00000000000E+00 -0.00000000000E+00 -0.45593999997E+02  0.45594000000E+02  0.51100000000E-03 0. -1.
    9900012    2    1    2    0    0 -0.68699649644E+01  0.30512636815E+02  0.30089964273E+02  0.47787269892E+02  0.19999994744E+02 0.  0.
         12    1    1    2    0    0  0.68699649644E+01 -0.30512636815E+02 -0.30089964273E+02  0.43400730108E+02  0.00000000000E+00 0. -1.
         11    1    3    3    0    0  0.18081696354E+01  0.34113035493E+01  0.67138977218E+01  0.77448623110E+01  0.51100000000E-03 0. -1.
        -11    1    3    3    0    0  0.35169044222E+01  0.54394145840E+01  0.97175635435E+01  0.11678479748E+02  0.51100000000E-03 0.  1.
        -12    1    3    3    0    0 -0.12195039022E+02  0.21661918681E+02  0.13658503008E+02  0.28363927833E+02  0.00000000000E+00 0.  1.
</event>
<event>
 7    1  0.2328615E-009  0.4778727E+02  0.7816164E-02  0.1312668E+00
        -11   -1    0    0    0    0  0.00000000000E+00  0.00000000000E+00  0.45593999997E+02  0.45594000000E+02  0.51100000000E-03 0.  1.
         11   -1    0    0    0    0 -0.00000000000E+00 -0.00000000000E+00 -0.45593999997E+02  0.45594000000E+02  0.51100000000E-03 0. -1.
    9900012    2    1    2    0    0  0.11804905990E+01  0.41574524843E+02  0.12401161138E+02  0.47787268767E+02  0.19999989619E+02 0.  0.
         12    1    1    2    0    0 -0.11804905990E+01 -0.41574524843E+02 -0.12401161138E+02  0.43400731233E+02  0.00000000000E+00 0. -1.
         11    1    3    3    0    0  0.67725867849E-01  0.14103145694E+02 -0.26115921982E+01  0.14343072172E+02  0.51100000000E-03 0. -1.
        -11    1    3    3    0    0  0.14109055927E+00  0.15814662083E+02  0.19908465528E+01  0.15940103939E+02  0.51100000000E-03 0.  1.
         12    1    3    3    0    0  0.97167417187E+00  0.11656717066E+02  0.13021906783E+02  0.17504092656E+02  0.00000000000E+00 0. -1.
</event>
<event>
 7    1  0.2328615E-009  0.4778727E+02  0.7816164E-02  0.1312668E+00
        -11   -1    0    0    0    0  0.00000000000E+00  0.00000000000E+00  0.45593999997E+02  0.45594000000E+02  0.51100000000E-03 0. -1.
         11   -1    0    0    0    0 -0.00000000000E+00 -0.00000000000E+00 -0.45593999997E+02  0.45594000000E+02  0.51100000000E-03 0.  1.
    9900012    2    1    2    0    0  0.14874960909E+02 -0.28951746012E+02 -0.28708100659E+02  0.47787273017E+02  0.20000008993E+02 0.  0.
         12    1    1    2    0    0 -0.14874960909E+02  0.28951746012E+02  0.28708100659E+02  0.43400726983E+02  0.00000000000E+00 0. -1.
         11    1    3    3    0    0  0.41767802205E+01 -0.63381881769E+00 -0.39584152940E+01  0.57893238988E+01  0.51100000000E-03 0. -1.
        -11    1    3    3    0    0  0.92396412544E+01 -0.22123454991E+02 -0.26154736598E+02  0.35480818452E+02  0.51100000000E-03 0.  1.
         12    1    3    3    0    0  0.14585394338E+01 -0.61944722035E+01  0.14050512321E+01  0.65171306665E+01  0.00000000000E+00 0. -1.
</event>
<event>
 7    1  0.2328615E-009  0.4778728E+02  0.7816164E-02  0.1312668E+00
        -11   -1    0    0    0    0  0.00000000000E+00  0.00000000000E+00  0.45593999997E+02  0.45594000000E+02  0.51100000000E-03 0.  1.
         11   -1    0    0    0    0 -0.00000000000E+00 -0.00000000000E+00 -0.45593999997E+02  0.45594000000E+02  0.51100000000E-03 0. -1.
    9900012    2    1    2    0    0 -0.65139571125E+01  0.39674036605E+02  0.16345086946E+02  0.47787277828E+02  0.20000030927E+02 0.  0.
         12    1    1    2    0    0  0.65139571125E+01 -0.39674036605E+02 -0.16345086946E+02  0.43400722172E+02  0.00000000000E+00 0. -1.
         11    1    3    3    0    0  0.29573546935E+00 -0.14379692683E+01  0.17330102362E+01  0.22712419124E+01  0.51100000000E-03 0. -1.
        -11    1    3    3    0    0 -0.33906140393E+01  0.81567521845E+01  0.75936090050E+01  0.11648680944E+02  0.51100000000E-03 0.  1.
        -12    1    3    3    0    0 -0.34190785425E+01  0.32955253689E+02  0.70184677048E+01  0.33867354971E+02  0.00000000000E+00 0.  1.
</event>
<event>
 7    1  0.2328615E-009  0.4778727E+02  0.7816164E-02  0.1312668E+00
        -11   -1    0    0    0    0  0.00000000000E+00  0.00000000000E+00  0.45593999997E+02  0.45594000000E+02  0.51100000000E-03 0. -1.
         11   -1    0    0    0    0 -0.00000000000E+00 -0.00000000000E+00 -0.45593999997E+02  0.45594000000E+02  0.51100000000E-03 0.  1.
    9900012    2    1    2    0    0  0.16136334628E+02  0.39113811076E+02  0.96618720496E+01  0.47787270932E+02  0.19999999488E+02 0.  0.
         12    1    1    2    0    0 -0.16136334628E+02 -0.39113811076E+02 -0.96618720496E+01  0.43400729068E+02  0.00000000000E+00 0. -1.
         11    1    3    3    0    0  0.11012136901E+02  0.19174378227E+02  0.94156192551E+01  0.24032848890E+02  0.51100000000E-03 0. -1.
        -11    1    3    3    0    0 -0.10377627787E+01  0.44204907287E+01  0.46362822430E+01  0.64894378158E+01  0.51100000000E-03 0.  1.
        -12    1    3    3    0    0  0.61619605062E+01  0.15518942120E+02 -0.43900294485E+01  0.17264984227E+02  0.00000000000E+00 0.  1.
</event>
<event>
 7    1  0.2328615E-009  0.4778727E+02  0.7816164E-02  0.1312668E+00
        -11   -1    0    0    0    0  0.00000000000E+00  0.00000000000E+00  0.45593999997E+02  0.45594000000E+02  0.51100000000E-03 0. -1.
         11   -1    0    0    0    0 -0.00000000000E+00 -0.00000000000E+00 -0.45593999997E+02  0.45594000000E+02  0.51100000000E-03 0.  1.
    9900012    2    1    2    0    0 -0.30807938750E+02 -0.28592767385E+02 -0.10814239545E+02  0.47787271737E+02  0.20000003160E+02 0.  0.
         12    1    1    2    0    0  0.30807938750E+02  0.28592767385E+02  0.10814239545E+02  0.43400728263E+02  0.00000000000E+00 0. -1.
         11    1    3    3    0    0 -0.91453050013E+01 -0.12246253025E+02  0.42863720734E+01  0.15873887442E+02  0.51100000000E-03 0. -1.
        -11    1    3    3    0    0 -0.13334550859E+02 -0.14126048097E+02 -0.94061506533E+01  0.21583121920E+02  0.51100000000E-03 0.  1.
         12    1    3    3    0    0 -0.83280828905E+01 -0.22204662628E+01 -0.56944609647E+01  0.10330262375E+02  0.00000000000E+00 0. -1.
</event>
<event>
 7    1  0.2328615E-009  0.4778727E+02  0.7816164E-02  0.1312668E+00
        -11   -1    0    0    0    0  0.00000000000E+00  0.00000000000E+00  0.45593999997E+02  0.45594000000E+02  0.51100000000E-03 0.  1.
         11   -1    0    0    0    0 -0.00000000000E+00 -0.00000000000E+00 -0.45593999997E+02  0.45594000000E+02  0.51100000000E-03 0. -1.
    9900012    2    1    2    0    0 -0.80952228143E+01  0.17245927693E+02  0.38995754216E+02  0.47787268424E+02  0.19999988054E+02 0.  0.
         12    1    1    2    0    0  0.80952228143E+01 -0.17245927693E+02 -0.38995754216E+02  0.43400731576E+02  0.00000000000E+00 0. -1.
         11    1    3    3    0    0 -0.61632422612E+01  0.99306845512E+01  0.10971575354E+02  0.16030580677E+02  0.51100000000E-03 0. -1.
        -11    1    3    3    0    0 -0.29945165473E+01  0.10699817390E+02  0.18339219422E+02  0.21442485649E+02  0.51100000000E-03 0.  1.
         12    1    3    3    0    0  0.10625359941E+01 -0.33845742481E+01  0.96849594395E+01  0.10314202098E+02  0.00000000000E+00 0. -1.
</event>
<event>
 7    1  0.2328615E-009  0.4778727E+02  0.7816164E-02  0.1312668E+00
        -11   -1    0    0    0    0  0.00000000000E+00  0.00000000000E+00  0.45593999997E+02  0.45594000000E+02  0.51100000000E-03 0.  1.
         11   -1    0    0    0    0 -0.00000000000E+00 -0.00000000000E+00 -0.45593999997E+02  0.45594000000E+02  0.51100000000E-03 0. -1.
    9900012    2    1    2    0    0 -0.15649857605E+02  0.12822659946E+02  0.38396415575E+02  0.47787269820E+02  0.19999994418E+02 0.  0.
         12    1    1    2    0    0  0.15649857605E+02 -0.12822659946E+02 -0.38396415575E+02  0.43400730180E+02  0.00000000000E+00 0. -1.
         11    1    3    3    0    0 -0.39328432365E+01  0.66409158154E+01  0.17904192478E+02  0.19496900455E+02  0.51100000000E-03 0. -1.
        -11    1    3    3    0    0 -0.68781095045E+01  0.18503280876E+01  0.20598491598E+02  0.21795182053E+02  0.51100000000E-03 0.  1.
         12    1    3    3    0    0 -0.48389048642E+01  0.43314160430E+01 -0.10626850104E+00  0.64951873119E+01  0.00000000000E+00 0. -1.
</event>
<event>
 7    1  0.2328615E-009  0.4778727E+02  0.7816164E-02  0.1312668E+00
        -11   -1    0    0    0    0  0.00000000000E+00  0.00000000000E+00  0.45593999997E+02  0.45594000000E+02  0.51100000000E-03 0.  1.
         11   -1    0    0    0    0 -0.00000000000E+00 -0.00000000000E+00 -0.45593999997E+02  0.45594000000E+02  0.51100000000E-03 0. -1.
    9900012    2    1    2    0    0  0.15607757980E+02  0.40472242705E+02  0.14208147816E+01  0.47787271281E+02  0.20000001078E+02 0.  0.
         12    1    1    2    0    0 -0.15607757980E+02 -0.40472242705E+02 -0.14208147816E+01  0.43400728719E+02  0.00000000000E+00 0. -1.
         11    1    3    3    0    0  0.39767918031E+00 -0.91118354543E+00  0.65660097348E+00  0.11914400041E+01  0.51100000000E-03 0. -1.
        -11    1    3    3    0    0  0.11765596444E+02  0.21365381832E+02  0.69517328025E+01  0.25362085674E+02  0.51100000000E-03 0.  1.
        -12    1    3    3    0    0  0.34444823562E+01  0.20018044418E+02 -0.61875189945E+01  0.21233745603E+02  0.00000000000E+00 0.  1.
</event>
<event>
 7    1  0.2328615E-009  0.4778727E+02  0.7816164E-02  0.1312668E+00
        -11   -1    0    0    0    0  0.00000000000E+00  0.00000000000E+00  0.45593999997E+02  0.45594000000E+02  0.51100000000E-03 0. -1.
         11   -1    0    0    0    0 -0.00000000000E+00 -0.00000000000E+00 -0.45593999997E+02  0.45594000000E+02  0.51100000000E-03 0.  1.
    9900012    2    1    2    0    0  0.21934201997E+01  0.24508645539E+02 -0.35751065333E+02  0.47787268776E+02  0.19999989659E+02 0.  0.
         12    1    1    2    0    0 -0.21934201997E+01 -0.24508645539E+02  0.35751065333E+02  0.43400731224E+02  0.00000000000E+00 0. -1.
         11    1    3    3    0    0  0.13359667133E+01  0.47844749024E+01 -0.19504008510E+02  0.20126657829E+02  0.51100000000E-03 0. -1.
        -11    1    3    3    0    0  0.54404139436E+01  0.10367549635E+02 -0.10681065116E+02  0.15848322990E+02  0.51100000000E-03 0.  1.
         12    1    3    3    0    0 -0.45829604572E+01  0.93566210013E+01 -0.55659917072E+01  0.11812287958E+02  0.00000000000E+00 0. -1.
</event>
<event>
 7    1  0.2328615E-009  0.4778727E+02  0.7816164E-02  0.1312668E+00
        -11   -1    0    0    0    0  0.00000000000E+00  0.00000000000E+00  0.45593999997E+02  0.45594000000E+02  0.51100000000E-03 0.  1.
         11   -1    0    0    0    0 -0.00000000000E+00 -0.00000000000E+00 -0.45593999997E+02  0.45594000000E+02  0.51100000000E-03 0. -1.
    9900012    2    1    2    0    0 -0.37939751442E+02  0.21070817538E+02 -0.46808410599E+00  0.47787271965E+02  0.20000004199E+02 0.  0.
         12    1    1    2    0    0  0.37939751442E+02 -0.21070817538E+02  0.46808410599E+00  0.43400728035E+02  0.00000000000E+00 0. -1.
         11    1    3    3    0    0 -0.19281074216E+02  0.30755620884E+01 -0.91372223267E-01  0.19525041722E+02  0.51100000000E-03 0. -1.
        -11    1    3    3    0    0 -0.98674890941E+01  0.20909174448E+01 -0.31464735628E-01  0.10086638046E+02  0.51100000000E-03 0.  1.
         12    1    3    3    0    0 -0.87911881319E+01  0.15904338005E+02 -0.34524714710E+00  0.18175592198E+02  0.00000000000E+00 0. -1.
</event>
<event>
 7    1  0.2328615E-009  0.4778727E+02  0.7816164E-02  0.1312668E+00
        -11   -1    0    0    0    0  0.00000000000E+00  0.00000000000E+00  0.45593999997E+02  0.45594000000E+02  0.51100000000E-03 0.  1.
         11   -1    0    0    0    0 -0.00000000000E+00 -0.00000000000E+00 -0.45593999997E+02  0.45594000000E+02  0.51100000000E-03 0. -1.
    9900012    2    1    2    0    0 -0.50646837941E+01  0.51251399016E+01  0.42798428387E+02  0.47787267825E+02  0.19999985319E+02 0.  0.
         12    1    1    2    0    0  0.50646837941E+01 -0.51251399016E+01 -0.42798428387E+02  0.43400732175E+02  0.00000000000E+00 0. -1.
         11    1    3    3    0    0 -0.35023349312E+00  0.54207246606E+01  0.68906549057E+01  0.87742831409E+01  0.51100000000E-03 0. -1.
        -11    1    3    3    0    0  0.47308601345E+01  0.13864381820E+00  0.19590868280E+02  0.20154463028E+02  0.51100000000E-03 0.  1.
         12    1    3    3    0    0 -0.94453104354E+01 -0.43422857719E+00  0.16316905201E+02  0.18858521655E+02  0.00000000000E+00 0. -1.
</event>
<event>
 7    1  0.2328615E-009  0.4778722E+02  0.7816164E-02  0.1312668E+00
        -11   -1    0    0    0    0  0.00000000000E+00  0.00000000000E+00  0.45593999997E+02  0.45594000000E+02  0.51100000000E-03 0. -1.
         11   -1    0    0    0    0 -0.00000000000E+00 -0.00000000000E+00 -0.45593999997E+02  0.45594000000E+02  0.51100000000E-03 0.  1.
    9900012    2    1    2    0    0 -0.35984803800E+02 -0.15901803653E+02 -0.18326323926E+02  0.47787221061E+02  0.19999772102E+02 0.  0.
         12    1    1    2    0    0  0.35984803800E+02  0.15901803653E+02  0.18326323926E+02  0.43400778939E+02  0.00000000000E+00 0. -1.
         11    1    3    3    0    0 -0.10057666791E+02  0.85452509531E+00 -0.11849866943E+02  0.15566188398E+02  0.51100000000E-03 0. -1.
        -11    1    3    3    0    0 -0.93604074951E+01 -0.49668593000E+01 -0.53141573857E+01  0.11854416424E+02  0.51100000000E-03 0.  1.
        -12    1    3    3    0    0 -0.16566729514E+02 -0.11789469448E+02 -0.11622995975E+01  0.20366616238E+02  0.00000000000E+00 0.  1.
</event>
<event>
 7    1  0.2328615E-009  0.4778727E+02  0.7816164E-02  0.1312668E+00
        -11   -1    0    0    0    0  0.00000000000E+00  0.00000000000E+00  0.45593999997E+02  0.45594000000E+02  0.51100000000E-03 0.  1.
         11   -1    0    0    0    0 -0.00000000000E+00 -0.00000000000E+00 -0.45593999997E+02  0.45594000000E+02  0.51100000000E-03 0. -1.
    9900012    2    1    2    0    0 -0.10768499787E+02 -0.78268434731E+01  0.41308634026E+02  0.47787270611E+02  0.19999998023E+02 0.  0.
         12    1    1    2    0    0  0.10768499787E+02  0.78268434731E+01 -0.41308634026E+02  0.43400729389E+02  0.00000000000E+00 0. -1.
         11    1    3    3    0    0 -0.13209306361E+01 -0.26243324523E+01  0.20476371750E+01  0.35811725492E+01  0.51100000000E-03 0.  1.
        -11    1    3    3    0    0 -0.32269671708E+01  0.53923443122E+01  0.57649123278E+01  0.85278900504E+01  0.51100000000E-03 0. -1.
         12    1    3    3    0    0 -0.62206019800E+01 -0.10594855333E+02  0.33496084523E+02  0.35678208011E+02  0.00000000000E+00 0. -1.
</event>
<event>
 7    1  0.2328615E-009  0.4778727E+02  0.7816164E-02  0.1312668E+00
        -11   -1    0    0    0    0  0.00000000000E+00  0.00000000000E+00  0.45593999997E+02  0.45594000000E+02  0.51100000000E-03 0.  1.
         11   -1    0    0    0    0 -0.00000000000E+00 -0.00000000000E+00 -0.45593999997E+02  0.45594000000E+02  0.51100000000E-03 0. -1.
    9900012    2    1    2    0    0 -0.27885542217E+02  0.33059464602E+02 -0.36182481965E+01  0.47787269770E+02  0.19999994188E+02 0.  0.
         12    1    1    2    0    0  0.27885542217E+02 -0.33059464602E+02  0.36182481965E+01  0.43400730230E+02  0.00000000000E+00 0. -1.
         11    1    3    3    0    0 -0.56192317630E+01  0.23799841702E+00 -0.38771781426E+00  0.56376177786E+01  0.51100000000E-03 0. -1.
        -11    1    3    3    0    0 -0.64649212477E+01  0.14980811629E+01  0.13391538676E+01  0.67699916730E+01  0.51100000000E-03 0.  1.
        -12    1    3    3    0    0 -0.15801389206E+02  0.31323385022E+02 -0.45696842498E+01  0.35379660318E+02  0.00000000000E+00 0.  1.
</event>
<event>
 7    1  0.2328615E-009  0.4778725E+02  0.7816164E-02  0.1312668E+00
        -11   -1    0    0    0    0  0.00000000000E+00  0.00000000000E+00  0.45593999997E+02  0.45594000000E+02  0.51100000000E-03 0. -1.
         11   -1    0    0    0    0 -0.00000000000E+00 -0.00000000000E+00 -0.45593999997E+02  0.45594000000E+02  0.51100000000E-03 0.  1.
    9900012    2    1    2    0    0  0.10914281272E+02 -0.93824926591E+01 -0.40944743191E+02  0.47787254624E+02  0.19999925134E+02 0.  0.
         12    1    1    2    0    0 -0.10914281272E+02  0.93824926591E+01  0.40944743191E+02  0.43400745376E+02  0.00000000000E+00 0. -1.
         11    1    3    3    0    0 -0.66275366732E+00  0.26766198612E+00 -0.51026343515E+01  0.51524521297E+01  0.51100000000E-03 0.  1.
        -11    1    3    3    0    0 -0.58341425557E+00 -0.88790200085E+01 -0.69904286305E+01  0.11315629068E+02  0.51100000000E-03 0. -1.
         12    1    3    3    0    0  0.12160449195E+02 -0.77113463675E+00 -0.28851680209E+02  0.31319173427E+02  0.00000000000E+00 0. -1.
</event>
<event>
 7    1  0.2328615E-009  0.4778727E+02  0.7816164E-02  0.1312668E+00
        -11   -1    0    0    0    0  0.00000000000E+00  0.00000000000E+00  0.45593999997E+02  0.45594000000E+02  0.51100000000E-03 0. -1.
         11   -1    0    0    0    0 -0.00000000000E+00 -0.00000000000E+00 -0.45593999997E+02  0.45594000000E+02  0.51100000000E-03 0.  1.
    9900012    2    1    2    0    0 -0.50229963799E+01 -0.25367549757E+02 -0.34855138492E+02  0.47787265529E+02  0.19999974852E+02 0.  0.
         12    1    1    2    0    0  0.50229963799E+01  0.25367549757E+02  0.34855138492E+02  0.43400734471E+02  0.00000000000E+00 0. -1.
         11    1    3    3    0    0 -0.40901048202E+01  0.21427915030E+01 -0.30612116548E+01  0.55399936753E+01  0.51100000000E-03 0. -1.
        -11    1    3    3    0    0  0.10145421786E+01 -0.53228183030E+01 -0.79274557726E+01  0.96024083337E+01  0.51100000000E-03 0.  1.
         12    1    3    3    0    0 -0.19474337384E+01 -0.22187522957E+02 -0.23866471065E+02  0.32644863520E+02  0.00000000000E+00 0. -1.
</event>
<event>
 7    1  0.2328615E-009  0.4778727E+02  0.7816164E-02  0.1312668E+00
        -11   -1    0    0    0    0  0.00000000000E+00  0.00000000000E+00  0.45593999997E+02  0.45594000000E+02  0.51100000000E-03 0.  1.
         11   -1    0    0    0    0 -0.00000000000E+00 -0.00000000000E+00 -0.45593999997E+02  0.45594000000E+02  0.51100000000E-03 0. -1.
    9900012    2    1    2    0    0 -0.21074495705E+02 -0.11253474002E+02  0.36233251031E+02  0.47787268133E+02  0.19999986725E+02 0.  0.
         12    1    1    2    0    0  0.21074495705E+02  0.11253474002E+02 -0.36233251031E+02  0.43400731867E+02  0.00000000000E+00 0. -1.
         11    1    3    3    0    0 -0.87986879802E+01 -0.54039856274E+01  0.96809537014E+01  0.14154180855E+02  0.51100000000E-03 0. -1.
        -11    1    3    3    0    0 -0.87381293032E+01 -0.95884395840E+01  0.10237988573E+02  0.16526024557E+02  0.51100000000E-03 0.  1.
        -12    1    3    3    0    0 -0.35376784215E+01  0.37389512088E+01  0.16314308756E+02  0.17107062721E+02  0.00000000000E+00 0.  1.
</event>
<event>
 7    1  0.2328615E-009  0.4778729E+02  0.7816164E-02  0.1312668E+00
        -11   -1    0    0    0    0  0.00000000000E+00  0.00000000000E+00  0.45593999997E+02  0.45594000000E+02  0.51100000000E-03 0.  1.
         11   -1    0    0    0    0 -0.00000000000E+00 -0.00000000000E+00 -0.45593999997E+02  0.45594000000E+02  0.51100000000E-03 0. -1.
    9900012    2    1    2    0    0 -0.25286761145E+02  0.26898339221E+02  0.22818433796E+02  0.47787287299E+02  0.20000074112E+02 0.  0.
         12    1    1    2    0    0  0.25286761145E+02 -0.26898339221E+02 -0.22818433796E+02  0.43400712701E+02  0.00000000000E+00 0. -1.
         11    1    3    3    0    0 -0.17057648458E+02  0.10159147965E+02  0.15453882329E+02  0.25159374746E+02  0.51100000000E-03 0.  1.
        -11    1    3    3    0    0 -0.21296236061E-01  0.94329740464E+01  0.67931629969E+01  0.11624479199E+02  0.51100000000E-03 0. -1.
         12    1    3    3    0    0 -0.82078164507E+01  0.73062172096E+01  0.57138846981E+00  0.11003433354E+02  0.00000000000E+00 0. -1.
</event>
<event>
 7    1  0.2328615E-009  0.4778727E+02  0.7816164E-02  0.1312668E+00
        -11   -1    0    0    0    0  0.00000000000E+00  0.00000000000E+00  0.45593999997E+02  0.45594000000E+02  0.51100000000E-03 0.  1.
         11   -1    0    0    0    0 -0.00000000000E+00 -0.00000000000E+00 -0.45593999997E+02  0.45594000000E+02  0.51100000000E-03 0. -1.
    9900012    2    1    2    0    0 -0.14008246228E+02  0.18756305989E+02  0.36545770669E+02  0.47787270391E+02  0.19999997022E+02 0.  0.
         12    1    1    2    0    0  0.14008246228E+02 -0.18756305989E+02 -0.36545770669E+02  0.43400729609E+02  0.00000000000E+00 0. -1.
         11    1    3    3    0    0  0.13507754388E+01  0.86839403054E+01  0.10124487479E+02  0.13406739368E+02  0.51100000000E-03 0. -1.
        -11    1    3    3    0    0 -0.10384031177E+02  0.11350338935E+02  0.24432955545E+02  0.28872610106E+02  0.51100000000E-03 0.  1.
         12    1    3    3    0    0 -0.49749904894E+01 -0.12779732513E+01  0.19883276461E+01  0.55079209171E+01  0.00000000000E+00 0. -1.
</event>
<event>
 7    1  0.2328615E-009  0.4778727E+02  0.7816164E-02  0.1312668E+00
        -11   -1    0    0    0    0  0.00000000000E+00  0.00000000000E+00  0.45593999997E+02  0.45594000000E+02  0.51100000000E-03 0.  1.
         11   -1    0    0    0    0 -0.00000000000E+00 -0.00000000000E+00 -0.45593999997E+02  0.45594000000E+02  0.51100000000E-03 0. -1.
    9900012    2    1    2    0    0  0.48636164363E+01 -0.12771415322E+02  0.41192956239E+02  0.47787268925E+02  0.19999990336E+02 0.  0.
         12    1    1    2    0    0 -0.48636164363E+01  0.12771415322E+02 -0.41192956239E+02  0.43400731075E+02  0.00000000000E+00 0. -1.
         11    1    3    3    0    0  0.31889386042E+01  0.20101121243E+01  0.48901739176E+01  0.61744377379E+01  0.51100000000E-03 0. -1.
        -11    1    3    3    0    0  0.46492970705E+01 -0.24486878784E+01  0.31761978689E+01  0.61400544574E+01  0.51100000000E-03 0.  1.
         12    1    3    3    0    0 -0.29746192384E+01 -0.12332839568E+02  0.33126584452E+02  0.35472776730E+02  0.00000000000E+00 0. -1.
</event>
<event>
 7    1  0.2328615E-009  0.4778727E+02  0.7816164E-02  0.1312668E+00
        -11   -1    0    0    0    0  0.00000000000E+00  0.00000000000E+00  0.45593999997E+02  0.45594000000E+02  0.51100000000E-03 0. -1.
         11   -1    0    0    0    0 -0.00000000000E+00 -0.00000000000E+00 -0.45593999997E+02  0.45594000000E+02  0.51100000000E-03 0.  1.
    9900012    2    1    2    0    0 -0.23990381006E+02  0.30012977163E+02 -0.20181823094E+02  0.47787272329E+02  0.20000005856E+02 0.  0.
         12    1    1    2    0    0  0.23990381006E+02 -0.30012977163E+02  0.20181823094E+02  0.43400727671E+02  0.00000000000E+00 0. -1.
         11    1    3    3    0    0 -0.15688907563E+02  0.12065937772E+02 -0.13942293543E+02  0.24209837346E+02  0.51100000000E-03 0. -1.
        -11    1    3    3    0    0 -0.10738560921E+02  0.13616664755E+02 -0.28795624175E+01  0.17579025276E+02  0.51100000000E-03 0.  1.
        -12    1    3    3    0    0  0.24370874779E+01  0.43303746362E+01 -0.33599671338E+01  0.59984097063E+01  0.00000000000E+00 0.  1.
</event>
<event>
 7    1  0.2328615E-009  0.4778727E+02  0.7816164E-02  0.1312668E+00
        -11   -1    0    0    0    0  0.00000000000E+00  0.00000000000E+00  0.45593999997E+02  0.45594000000E+02  0.51100000000E-03 0.  1.
         11   -1    0    0    0    0 -0.00000000000E+00 -0.00000000000E+00 -0.45593999997E+02  0.45594000000E+02  0.51100000000E-03 0. -1.
    9900012    2    1    2    0    0  0.28516312993E+02  0.31119974590E+02  0.10099024150E+02  0.47787271735E+02  0.20000003147E+02 0.  0.
         12    1    1    2    0    0 -0.28516312993E+02 -0.31119974590E+02 -0.10099024150E+02  0.43400728265E+02  0.00000000000E+00 0. -1.
         11    1    3    3    0    0  0.11832005040E+02  0.61379401929E+01 -0.11241122009E+00  0.13329789556E+02  0.51100000000E-03 0. -1.
        -11    1    3    3    0    0  0.12215520106E+02  0.69155111575E+01  0.22554658188E+01  0.14217255444E+02  0.51100000000E-03 0.  1.
        -12    1    3    3    0    0  0.44687878474E+01  0.18066523239E+02  0.79559695508E+01  0.20240226735E+02  0.00000000000E+00 0.  1.
</event>
<event>
 7    1  0.2328615E-009  0.4778727E+02  0.7816164E-02  0.1312668E+00
        -11   -1    0    0    0    0  0.00000000000E+00  0.00000000000E+00  0.45593999997E+02  0.45594000000E+02  0.51100000000E-03 0.  1.
         11   -1    0    0    0    0 -0.00000000000E+00 -0.00000000000E+00 -0.45593999997E+02  0.45594000000E+02  0.51100000000E-03 0. -1.
    9900012    2    1    2    0    0  0.35296323096E+02  0.80518424534E+01  0.23936599391E+02  0.47787269806E+02  0.19999994353E+02 0.  0.
         12    1    1    2    0    0 -0.35296323096E+02 -0.80518424534E+01 -0.23936599391E+02  0.43400730194E+02  0.00000000000E+00 0. -1.
         11    1    3    3    0    0  0.33345380309E+00 -0.75796538791E+00 -0.15631025470E+01  0.17688959273E+01  0.51100000000E-03 0. -1.
        -11    1    3    3    0    0  0.56900524321E+01  0.61559360713E+01  0.90484650768E+01  0.12334786828E+02  0.51100000000E-03 0.  1.
         12    1    3    3    0    0  0.29272816861E+02  0.26538717701E+01  0.16451236861E+02  0.33683587050E+02  0.00000000000E+00 0. -1.
</event>
<event>
 7    1  0.2328615E-009  0.4778727E+02  0.7816164E-02  0.1312668E+00
        -11   -1    0    0    0    0  0.00000000000E+00  0.00000000000E+00  0.45593999997E+02  0.45594000000E+02  0.51100000000E-03 0.  1.
         11   -1    0    0    0    0 -0.00000000000E+00 -0.00000000000E+00 -0.45593999997E+02  0.45594000000E+02  0.51100000000E-03 0. -1.
    9900012    2    1    2    0    0 -0.19287987025E+02 -0.20376770786E+02  0.33111693714E+02  0.47787268534E+02  0.19999988555E+02 0.  0.
         12    1    1    2    0    0  0.19287987025E+02  0.20376770786E+02 -0.33111693714E+02  0.43400731466E+02  0.00000000000E+00 0. -1.
         11    1    3    3    0    0  0.15291481923E+01 -0.12346430921E+00  0.10381327866E+01  0.18523653995E+01  0.51100000000E-03 0. -1.
        -11    1    3    3    0    0 -0.85236202446E+01 -0.97897950526E+01  0.40563727029E+01  0.13599498116E+02  0.51100000000E-03 0.  1.
        -12    1    3    3    0    0 -0.12293514972E+02 -0.10463511425E+02  0.28017188225E+02  0.32335405019E+02  0.00000000000E+00 0.  1.
</event>
<event>
 7    1  0.2328615E-009  0.4778727E+02  0.7816164E-02  0.1312668E+00
        -11   -1    0    0    0    0  0.00000000000E+00  0.00000000000E+00  0.45593999997E+02  0.45594000000E+02  0.51100000000E-03 0. -1.
         11   -1    0    0    0    0 -0.00000000000E+00 -0.00000000000E+00 -0.45593999997E+02  0.45594000000E+02  0.51100000000E-03 0.  1.
    9900012    2    1    2    0    0 -0.15249283804E+02  0.29588947808E+01 -0.40525642869E+02  0.47787269076E+02  0.19999991023E+02 0.  0.
         12    1    1    2    0    0  0.15249283804E+02 -0.29588947808E+01  0.40525642869E+02  0.43400730924E+02  0.00000000000E+00 0. -1.
         11    1    3    3    0    0 -0.33924792266E+01  0.41911354342E+00 -0.22263921367E+02  0.22524803359E+02  0.51100000000E-03 0.  1.
        -11    1    3    3    0    0 -0.21449629414E+01 -0.37329218536E+01 -0.10469747507E+02  0.11320388010E+02  0.51100000000E-03 0. -1.
        -12    1    3    3    0    0 -0.97118416362E+01  0.62727030910E+01 -0.77919739948E+01  0.13942077706E+02  0.00000000000E+00 0.  1.
</event>
<event>
 7    1  0.2328615E-009  0.4778726E+02  0.7816164E-02  0.1312668E+00
        -11   -1    0    0    0    0  0.00000000000E+00  0.00000000000E+00  0.45593999997E+02  0.45594000000E+02  0.51100000000E-03 0.  1.
         11   -1    0    0    0    0 -0.00000000000E+00 -0.00000000000E+00 -0.45593999997E+02  0.45594000000E+02  0.51100000000E-03 0. -1.
    9900012    2    1    2    0    0 -0.22160567279E+02  0.24653317717E+02  0.28013335796E+02  0.47787264995E+02  0.19999972416E+02 0.  0.
         12    1    1    2    0    0  0.22160567279E+02 -0.24653317717E+02 -0.28013335796E+02  0.43400735005E+02  0.00000000000E+00 0. -1.
         11    1    3    3    0    0 -0.20114468076E+01  0.17000605281E+01  0.10596273088E+02  0.10918659610E+02  0.51100000000E-03 0. -1.
        -11    1    3    3    0    0 -0.10964546168E+02  0.12060898800E+02  0.15498877365E+02  0.22492259833E+02  0.51100000000E-03 0.  1.
         12    1    3    3    0    0 -0.91845743040E+01  0.10892358389E+02  0.19181853424E+01  0.14376345552E+02  0.00000000000E+00 0. -1.
</event>
<event>
 7    1  0.2328615E-009  0.4778727E+02  0.7816164E-02  0.1312668E+00
        -11   -1    0    0    0    0  0.00000000000E+00  0.00000000000E+00  0.45593999997E+02  0.45594000000E+02  0.51100000000E-03 0.  1.
         11   -1    0    0    0    0 -0.00000000000E+00 -0.00000000000E+00 -0.45593999997E+02  0.45594000000E+02  0.51100000000E-03 0. -1.
    9900012    2    1    2    0    0 -0.85441493271E+01 -0.29695178549E+02  0.30476504343E+02  0.47787269203E+02  0.19999991602E+02 0.  0.
         12    1    1    2    0    0  0.85441493271E+01  0.29695178549E+02 -0.30476504343E+02  0.43400730797E+02  0.00000000000E+00 0. -1.
         11    1    3    3    0    0  0.77188814812E+00 -0.43906803665E+01  0.91744898626E+01  0.10200252443E+02  0.51100000000E-03 0. -1.
        -11    1    3    3    0    0  0.99743287341E+00 -0.14061739054E+02  0.16256927822E+02  0.21517785202E+02  0.51100000000E-03 0.  1.
        -12    1    3    3    0    0 -0.10313470349E+02 -0.11242759129E+02  0.50450866587E+01  0.16069231558E+02  0.00000000000E+00 0.  1.
</event>
<event>
 7    1  0.2328615E-009  0.4778726E+02  0.7816164E-02  0.1312668E+00
        -11   -1    0    0    0    0  0.00000000000E+00  0.00000000000E+00  0.45593999997E+02  0.45594000000E+02  0.51100000000E-03 0.  1.
         11   -1    0    0    0    0 -0.00000000000E+00 -0.00000000000E+00 -0.45593999997E+02  0.45594000000E+02  0.51100000000E-03 0. -1.
    9900012    2    1    2    0    0 -0.42523786381E+02 -0.64555266563E+01  0.58032552860E+01  0.47787262627E+02  0.19999961620E+02 0.  0.
         12    1    1    2    0    0  0.42523786381E+02  0.64555266563E+01 -0.58032552860E+01  0.43400737373E+02  0.00000000000E+00 0. -1.
         11    1    3    3    0    0 -0.11217053851E+02  0.44914130916E+00 -0.32941705483E+01  0.11699383952E+02  0.51100000000E-03 0. -1.
        -11    1    3    3    0    0 -0.24659446958E+02 -0.51095156805E+01  0.65242747373E+00  0.25191687848E+02  0.51100000000E-03 0.  1.
         12    1    3    3    0    0 -0.66472855730E+01 -0.17951522850E+01  0.84449983605E+01  0.10896190826E+02  0.00000000000E+00 0. -1.
</event>
<event>
 7    1  0.2328615E-009  0.4778727E+02  0.7816164E-02  0.1312668E+00
        -11   -1    0    0    0    0  0.00000000000E+00  0.00000000000E+00  0.45593999997E+02  0.45594000000E+02  0.51100000000E-03 0.  1.
         11   -1    0    0    0    0 -0.00000000000E+00 -0.00000000000E+00 -0.45593999997E+02  0.45594000000E+02  0.51100000000E-03 0. -1.
    9900012    2    1    2    0    0  0.10688595482E+02 -0.58509325922E+01  0.41655056360E+02  0.47787271827E+02  0.20000003568E+02 0.  0.
         12    1    1    2    0    0 -0.10688595482E+02  0.58509325922E+01 -0.41655056360E+02  0.43400728173E+02  0.00000000000E+00 0. -1.
         11    1    3    3    0    0  0.10782396589E+02 -0.21858844656E+01  0.11393158249E+02  0.15837999313E+02  0.51100000000E-03 0. -1.
        -11    1    3    3    0    0 -0.17982284194E+01  0.13007385162E+01  0.14230083796E+01  0.26363799509E+01  0.51100000000E-03 0.  1.
        -12    1    3    3    0    0  0.17044273123E+01 -0.49657866428E+01  0.28838889732E+02  0.29312892563E+02  0.00000000000E+00 0.  1.
</event>
<event>
 7    1  0.2328615E-009  0.4778727E+02  0.7816164E-02  0.1312668E+00
        -11   -1    0    0    0    0  0.00000000000E+00  0.00000000000E+00  0.45593999997E+02  0.45594000000E+02  0.51100000000E-03 0.  1.
         11   -1    0    0    0    0 -0.00000000000E+00 -0.00000000000E+00 -0.45593999997E+02  0.45594000000E+02  0.51100000000E-03 0. -1.
    9900012    2    1    2    0    0  0.31108399221E+02  0.61252426398E+01  0.29637340386E+02  0.47787273686E+02  0.20000012042E+02 0.  0.
         12    1    1    2    0    0 -0.31108399221E+02 -0.61252426398E+01 -0.29637340386E+02  0.43400726314E+02  0.00000000000E+00 0. -1.
         11    1    3    3    0    0  0.52362404310E+01 -0.10998544690E+01 -0.11967773714E+01  0.54827155719E+01  0.51100000000E-03 0. -1.
        -11    1    3    3    0    0  0.10585943762E+02  0.66214367397E+01  0.80335457728E+01  0.14847339418E+02  0.51100000000E-03 0.  1.
         12    1    3    3    0    0  0.15286215027E+02  0.60366036918E+00  0.22800571984E+02  0.27457218696E+02  0.00000000000E+00 0. -1.
</event>
<event>
 7    1  0.2328615E-009  0.4778730E+02  0.7816164E-02  0.1312668E+00
        -11   -1    0    0    0    0  0.00000000000E+00  0.00000000000E+00  0.45593999997E+02  0.45594000000E+02  0.51100000000E-03 0.  1.
         11   -1    0    0    0    0 -0.00000000000E+00 -0.00000000000E+00 -0.45593999997E+02  0.45594000000E+02  0.51100000000E-03 0. -1.
    9900012    2    1    2    0    0 -0.41613104176E+01  0.27693116255E+02  0.33157134765E+02  0.47787299797E+02  0.20000131095E+02 0.  0.
         12    1    1    2    0    0  0.41613104176E+01 -0.27693116255E+02 -0.33157134765E+02  0.43400700203E+02  0.00000000000E+00 0. -1.
         11    1    3    3    0    0 -0.38288903772E+01  0.24109088596E+02  0.31924698284E+02  0.40188243495E+02  0.51100000000E-03 0. -1.
        -11    1    3    3    0    0 -0.29604178442E+01  0.11767157307E+01  0.22412403369E+01  0.38951113247E+01  0.51100000000E-03 0.  1.
         12    1    3    3    0    0  0.26279978038E+01  0.24073119276E+01 -0.10088038562E+01  0.37039449771E+01  0.00000000000E+00 0. -1.
</event>
<event>
 7    1  0.2328615E-009  0.4778727E+02  0.7816164E-02  0.1312668E+00
        -11   -1    0    0    0    0  0.00000000000E+00  0.00000000000E+00  0.45593999997E+02  0.45594000000E+02  0.51100000000E-03 0.  1.
         11   -1    0    0    0    0 -0.00000000000E+00 -0.00000000000E+00 -0.45593999997E+02  0.45594000000E+02  0.51100000000E-03 0. -1.
    9900012    2    1    2    0    0  0.31247595164E+02 -0.94440330809E+00  0.30105138134E+02  0.47787269094E+02  0.19999991105E+02 0.  0.
         12    1    1    2    0    0 -0.31247595164E+02  0.94440330809E+00 -0.30105138134E+02  0.43400730906E+02  0.00000000000E+00 0. -1.
         11    1    3    3    0    0  0.58698680151E+00  0.16935490794E+01  0.20097760094E+01  0.26929281198E+01  0.51100000000E-03 0. -1.
        -11    1    3    3    0    0  0.28961033854E+02  0.13037384440E+00  0.17108167807E+02  0.33637001728E+02  0.51100000000E-03 0.  1.
         12    1    3    3    0    0  0.16995745084E+01 -0.27683262319E+01  0.10987194317E+02  0.11457339246E+02  0.00000000000E+00 0. -1.
</event>
<event>
 7    1  0.2328615E-009  0.4778728E+02  0.7816164E-02  0.1312668E+00
        -11   -1    0    0    0    0  0.00000000000E+00  0.00000000000E+00  0.45593999997E+02  0.45594000000E+02  0.51100000000E-03 0.  1.
         11   -1    0    0    0    0 -0.00000000000E+00 -0.00000000000E+00 -0.45593999997E+02  0.45594000000E+02  0.51100000000E-03 0. -1.
    9900012    2    1    2    0    0 -0.15667443080E+02  0.25290137618E+01  0.40395027372E+02  0.47787275125E+02  0.20000018604E+02 0.  0.
         12    1    1    2    0    0  0.15667443080E+02 -0.25290137618E+01 -0.40395027372E+02  0.43400724875E+02  0.00000000000E+00 0. -1.
         11    1    3    3    0    0 -0.56999758918E+01 -0.28810787315E+01  0.29889271745E+02  0.30564013243E+02  0.51100000000E-03 0. -1.
        -11    1    3    3    0    0 -0.66780903561E+01 -0.53943421228E+00  0.64883238712E+01  0.93266407132E+01  0.51100000000E-03 0.  1.
        -12    1    3    3    0    0 -0.32893768322E+01  0.59495267056E+01  0.40174317567E+01  0.78966211688E+01  0.00000000000E+00 0.  1.
</event>
<event>
 7    1  0.2328615E-009  0.4778727E+02  0.7816164E-02  0.1312668E+00
        -11   -1    0    0    0    0  0.00000000000E+00  0.00000000000E+00  0.45593999997E+02  0.45594000000E+02  0.51100000000E-03 0.  1.
         11   -1    0    0    0    0 -0.00000000000E+00 -0.00000000000E+00 -0.45593999997E+02  0.45594000000E+02  0.51100000000E-03 0. -1.
    9900012    2    1    2    0    0 -0.21590328299E+02 -0.36412644298E+02  0.95708089553E+01  0.47787270456E+02  0.19999997319E+02 0.  0.
         12    1    1    2    0    0  0.21590328299E+02  0.36412644298E+02 -0.95708089553E+01  0.43400729544E+02  0.00000000000E+00 0. -1.
         11    1    3    3    0    0 -0.55235220729E+01 -0.36636159888E+01  0.54970880862E+01  0.86110020260E+01  0.51100000000E-03 0. -1.
        -11    1    3    3    0    0 -0.40616885342E+01 -0.57239718185E+01  0.64197555582E+01  0.95118047087E+01  0.51100000000E-03 0.  1.
         12    1    3    3    0    0 -0.12005117692E+02 -0.27025056491E+02 -0.23460346892E+01  0.29664463722E+02  0.00000000000E+00 0. -1.
</event>
<event>
 7    1  0.2328615E-009  0.4778727E+02  0.7816164E-02  0.1312668E+00
        -11   -1    0    0    0    0  0.00000000000E+00  0.00000000000E+00  0.45593999997E+02  0.45594000000E+02  0.51100000000E-03 0. -1.
         11   -1    0    0    0    0 -0.00000000000E+00 -0.00000000000E+00 -0.45593999997E+02  0.45594000000E+02  0.51100000000E-03 0.  1.
    9900012    2    1    2    0    0  0.41092513679E+02 -0.63146305792E+01 -0.12456071900E+02  0.47787274580E+02  0.20000016121E+02 0.  0.
         12    1    1    2    0    0 -0.41092513679E+02  0.63146305792E+01  0.12456071900E+02  0.43400725420E+02  0.00000000000E+00 0. -1.
         11    1    3    3    0    0  0.45615221412E+01  0.42934363904E+01  0.67419392710E+00  0.63004458569E+01  0.51100000000E-03 0. -1.
        -11    1    3    3    0    0  0.13757491965E+02  0.99163203726E+00 -0.48677551617E+01  0.14626925850E+02  0.51100000000E-03 0.  1.
        -12    1    3    3    0    0  0.22773499573E+02 -0.11599699007E+02 -0.82625106652E+01  0.26859902873E+02  0.00000000000E+00 0.  1.
</event>
<event>
 7    1  0.2328615E-009  0.4778727E+02  0.7816164E-02  0.1312668E+00
        -11   -1    0    0    0    0  0.00000000000E+00  0.00000000000E+00  0.45593999997E+02  0.45594000000E+02  0.51100000000E-03 0. -1.
         11   -1    0    0    0    0 -0.00000000000E+00 -0.00000000000E+00 -0.45593999997E+02  0.45594000000E+02  0.51100000000E-03 0.  1.
    9900012    2    1    2    0    0 -0.30605071981E+02 -0.12603237612E+02 -0.28073320185E+02  0.47787270335E+02  0.19999996764E+02 0.  0.
         12    1    1    2    0    0  0.30605071981E+02  0.12603237612E+02  0.28073320185E+02  0.43400729665E+02  0.00000000000E+00 0. -1.
         11    1    3    3    0    0 -0.58650778674E+01 -0.42539748457E+01 -0.66804354618E+01  0.98551336165E+01  0.51100000000E-03 0. -1.
        -11    1    3    3    0    0 -0.16841219402E+02 -0.43616532135E+01 -0.31820151307E+01  0.17685471728E+02  0.51100000000E-03 0.  1.
         12    1    3    3    0    0 -0.78987747119E+01 -0.39876095530E+01 -0.18210869593E+02  0.20246664990E+02  0.00000000000E+00 0. -1.
</event>
<event>
 7    1  0.2328615E-009  0.4778727E+02  0.7816164E-02  0.1312668E+00
        -11   -1    0    0    0    0  0.00000000000E+00  0.00000000000E+00  0.45593999997E+02  0.45594000000E+02  0.51100000000E-03 0.  1.
         11   -1    0    0    0    0 -0.00000000000E+00 -0.00000000000E+00 -0.45593999997E+02  0.45594000000E+02  0.51100000000E-03 0. -1.
    9900012    2    1    2    0    0 -0.19112880777E+02  0.22299988277E+02  0.31953591655E+02  0.47787266038E+02  0.19999977175E+02 0.  0.
         12    1    1    2    0    0  0.19112880777E+02 -0.22299988277E+02 -0.31953591655E+02  0.43400733962E+02  0.00000000000E+00 0. -1.
         11    1    3    3    0    0  0.18663398905E+01  0.68315085606E+00  0.15580949647E+01  0.25253870712E+01  0.51100000000E-03 0. -1.
        -11    1    3    3    0    0 -0.57935190425E+01  0.16348597267E+02  0.17674794732E+02  0.24763680352E+02  0.51100000000E-03 0.  1.
         12    1    3    3    0    0 -0.15185701625E+02  0.52682401548E+01  0.12720701958E+02  0.20498198616E+02  0.00000000000E+00 0. -1.
</event>
<event>
 7    1  0.2328615E-009  0.4778727E+02  0.7816164E-02  0.1312668E+00
        -11   -1    0    0    0    0  0.00000000000E+00  0.00000000000E+00  0.45593999997E+02  0.45594000000E+02  0.51100000000E-03 0.  1.
         11   -1    0    0    0    0 -0.00000000000E+00 -0.00000000000E+00 -0.45593999997E+02  0.45594000000E+02  0.51100000000E-03 0. -1.
    9900012    2    1    2    0    0 -0.23213616001E+02  0.28916043168E+02 -0.22552464890E+02  0.47787271976E+02  0.20000004249E+02 0.  0.
         12    1    1    2    0    0  0.23213616001E+02 -0.28916043168E+02  0.22552464890E+02  0.43400728024E+02  0.00000000000E+00 0. -1.
         11    1    3    3    0    0 -0.98253626213E+00 -0.21981244555E+01 -0.48753821189E+01  0.54375067535E+01  0.51100000000E-03 0. -1.
        -11    1    3    3    0    0 -0.55245643036E+01  0.60398074408E+01 -0.21947261538E+01  0.84744856964E+01  0.51100000000E-03 0.  1.
         12    1    3    3    0    0 -0.16706515435E+02  0.25074360183E+02 -0.15482356618E+02  0.33875279527E+02  0.00000000000E+00 0. -1.
</event>
<event>
 7    1  0.2328615E-009  0.4778728E+02  0.7816164E-02  0.1312668E+00
        -11   -1    0    0    0    0  0.00000000000E+00  0.00000000000E+00  0.45593999997E+02  0.45594000000E+02  0.51100000000E-03 0.  1.
         11   -1    0    0    0    0 -0.00000000000E+00 -0.00000000000E+00 -0.45593999997E+02  0.45594000000E+02  0.51100000000E-03 0. -1.
    9900012    2    1    2    0    0  0.10767910346E+02  0.40860148889E+02 -0.99057171862E+01  0.47787275427E+02  0.20000019983E+02 0.  0.
         12    1    1    2    0    0 -0.10767910346E+02 -0.40860148889E+02  0.99057171862E+01  0.43400724573E+02  0.00000000000E+00 0. -1.
         11    1    3    3    0    0 -0.50091847092E+00 -0.66864318862E+00 -0.63157176081E+00  0.10473233399E+01  0.51100000000E-03 0. -1.
        -11    1    3    3    0    0 -0.34253322984E+01  0.15293062122E+02 -0.19716035414E+01  0.15795501613E+02  0.51100000000E-03 0.  1.
         12    1    3    3    0    0  0.14694161115E+02  0.26235729956E+02 -0.73025418840E+01  0.30944450475E+02  0.00000000000E+00 0. -1.
</event>
<event>
 7    1  0.2328615E-009  0.4778727E+02  0.7816164E-02  0.1312668E+00
        -11   -1    0    0    0    0  0.00000000000E+00  0.00000000000E+00  0.45593999997E+02  0.45594000000E+02  0.51100000000E-03 0.  1.
         11   -1    0    0    0    0 -0.00000000000E+00 -0.00000000000E+00 -0.45593999997E+02  0.45594000000E+02  0.51100000000E-03 0. -1.
    9900012    2    1    2    0    0 -0.68040946288E+01  0.13473302118E+02  0.40691491306E+02  0.47787273757E+02  0.20000012368E+02 0.  0.
         12    1    1    2    0    0  0.68040946288E+01 -0.13473302118E+02 -0.40691491306E+02  0.43400726243E+02  0.00000000000E+00 0. -1.
         11    1    3    3    0    0  0.11773980864E+01  0.31929125077E+01  0.12112072595E+02  0.12581067496E+02  0.51100000000E-03 0. -1.
        -11    1    3    3    0    0 -0.64594385590E+01 -0.27694849998E+01  0.13394933704E+02  0.15126752555E+02  0.51100000000E-03 0.  1.
        -12    1    3    3    0    0 -0.15220541562E+01  0.13049874610E+02  0.15184485008E+02  0.20079453706E+02  0.00000000000E+00 0.  1.
</event>
<event>
 7    1  0.2328615E-009  0.4778727E+02  0.7816164E-02  0.1312668E+00
        -11   -1    0    0    0    0  0.00000000000E+00  0.00000000000E+00  0.45593999997E+02  0.45594000000E+02  0.51100000000E-03 0. -1.
         11   -1    0    0    0    0 -0.00000000000E+00 -0.00000000000E+00 -0.45593999997E+02  0.45594000000E+02  0.51100000000E-03 0.  1.
    9900012    2    1    2    0    0 -0.23245630630E+02 -0.31261547154E+02 -0.19130592270E+02  0.47787271499E+02  0.20000002071E+02 0.  0.
         12    1    1    2    0    0  0.23245630630E+02  0.31261547154E+02  0.19130592270E+02  0.43400728501E+02  0.00000000000E+00 0. -1.
         11    1    3    3    0    0 -0.84054937928E+01 -0.69499940025E+01 -0.14190508054E+01  0.10998565724E+02  0.51100000000E-03 0. -1.
        -11    1    3    3    0    0  0.11148614786E+01 -0.15632504421E+01  0.19604651773E+01  0.27441013162E+01  0.51100000000E-03 0.  1.
        -12    1    3    3    0    0 -0.15954998316E+02 -0.22748302709E+02 -0.19672006642E+02  0.34044604458E+02  0.00000000000E+00 0.  1.
</event>
<event>
 7    1  0.2328615E-009  0.4778727E+02  0.7816164E-02  0.1312668E+00
        -11   -1    0    0    0    0  0.00000000000E+00  0.00000000000E+00  0.45593999997E+02  0.45594000000E+02  0.51100000000E-03 0.  1.
         11   -1    0    0    0    0 -0.00000000000E+00 -0.00000000000E+00 -0.45593999997E+02  0.45594000000E+02  0.51100000000E-03 0. -1.
    9900012    2    1    2    0    0 -0.75904544110E+01  0.14763696022E+02  0.40100389833E+02  0.47787274393E+02  0.20000015269E+02 0.  0.
         12    1    1    2    0    0  0.75904544110E+01 -0.14763696022E+02 -0.40100389833E+02  0.43400725607E+02  0.00000000000E+00 0. -1.
         11    1    3    3    0    0  0.12058900994E+01  0.19722344504E+01  0.13136036066E+02  0.13337890517E+02  0.51100000000E-03 0. -1.
        -11    1    3    3    0    0  0.38210880471E+01  0.12794325163E+01  0.77931017294E+01  0.87732602979E+01  0.51100000000E-03 0.  1.
         12    1    3    3    0    0 -0.12617432558E+02  0.11512029055E+02  0.19171252038E+02  0.25676123579E+02  0.00000000000E+00 0. -1.
</event>
<event>
 7    1  0.2328615E-009  0.4778727E+02  0.7816164E-02  0.1312668E+00
        -11   -1    0    0    0    0  0.00000000000E+00  0.00000000000E+00  0.45593999997E+02  0.45594000000E+02  0.51100000000E-03 0.  1.
         11   -1    0    0    0    0 -0.00000000000E+00 -0.00000000000E+00 -0.45593999997E+02  0.45594000000E+02  0.51100000000E-03 0. -1.
    9900012    2    1    2    0    0 -0.30698045676E+02 -0.11035545870E+02  0.28626392862E+02  0.47787266720E+02  0.19999980282E+02 0.  0.
         12    1    1    2    0    0  0.30698045676E+02  0.11035545870E+02 -0.28626392862E+02  0.43400733280E+02  0.00000000000E+00 0. -1.
         11    1    3    3    0    0 -0.28811384503E+01  0.25021752504E+01  0.91176274380E+01  0.98839754205E+01  0.51100000000E-03 0. -1.
        -11    1    3    3    0    0 -0.16529711076E+02 -0.30661039707E+01  0.12694433070E+02  0.21066109585E+02  0.51100000000E-03 0.  1.
         12    1    3    3    0    0 -0.11287196149E+02 -0.10471617150E+02  0.68143323546E+01  0.16837181714E+02  0.00000000000E+00 0. -1.
</event>
<event>
 7    1  0.2328615E-009  0.4778728E+02  0.7816164E-02  0.1312668E+00
        -11   -1    0    0    0    0  0.00000000000E+00  0.00000000000E+00  0.45593999997E+02  0.45594000000E+02  0.51100000000E-03 0.  1.
         11   -1    0    0    0    0 -0.00000000000E+00 -0.00000000000E+00 -0.45593999997E+02  0.45594000000E+02  0.51100000000E-03 0. -1.
    9900012    2    1    2    0    0  0.22151100531E+02 -0.32064583852E+02  0.19100098207E+02  0.47787279455E+02  0.20000038346E+02 0.  0.
         12    1    1    2    0    0 -0.22151100531E+02  0.32064583852E+02 -0.19100098207E+02  0.43400720545E+02  0.00000000000E+00 0. -1.
         11    1    3    3    0    0  0.80084201011E+01 -0.14044711969E+02  0.57218694676E+01  0.17150175430E+02  0.51100000000E-03 0. -1.
        -11    1    3    3    0    0  0.63367935766E+01 -0.17580918657E+02  0.13084582665E+02  0.22813372338E+02  0.51100000000E-03 0.  1.
         12    1    3    3    0    0  0.78058868532E+01 -0.43895322643E+00  0.29364607465E+00  0.78237316874E+01  0.00000000000E+00 0. -1.
</event>
<event>
 7    1  0.3444922E-009  0.4778727E+02  0.7816164E-02  0.1312668E+00
        -11   -1    0    0    0    0  0.00000000000E+00  0.00000000000E+00  0.45593999997E+02  0.45594000000E+02  0.51100000000E-03 0. -1.
         11   -1    0    0    0    0 -0.00000000000E+00 -0.00000000000E+00 -0.45593999997E+02  0.45594000000E+02  0.51100000000E-03 0.  1.
    9900012    2    1    2    0    0 -0.41997307136E+01 -0.98585414182E+00 -0.43185803849E+02  0.47787270737E+02  0.19999998598E+02 0.  0.
         12    1    1    2    0    0  0.41997307136E+01  0.98585414182E+00  0.43185803849E+02  0.43400729263E+02  0.00000000000E+00 0. -1.
         11    1    3    3    0    0  0.19040126835E+00 -0.37130614160E+01 -0.22052601378E+01  0.43227595652E+01  0.51100000000E-03 0. -1.
        -11    1    3    3    0    0 -0.21144322633E+01  0.31576918436E+01 -0.17814771905E+01  0.41970826554E+01  0.51100000000E-03 0.  1.
        -12    1    3    3    0    0 -0.22756997187E+01 -0.43048456938E+00 -0.39199066521E+02  0.39267428516E+02  0.00000000000E+00 0.  1.
</event>
<event>
 7    1  0.2328615E-009  0.4778727E+02  0.7816164E-02  0.1312668E+00
        -11   -1    0    0    0    0  0.00000000000E+00  0.00000000000E+00  0.45593999997E+02  0.45594000000E+02  0.51100000000E-03 0. -1.
         11   -1    0    0    0    0 -0.00000000000E+00 -0.00000000000E+00 -0.45593999997E+02  0.45594000000E+02  0.51100000000E-03 0.  1.
    9900012    2    1    2    0    0  0.26569906019E+02 -0.19284973487E+02  0.28385792124E+02  0.47787270712E+02  0.19999998484E+02 0.  0.
         12    1    1    2    0    0 -0.26569906019E+02  0.19284973487E+02 -0.28385792124E+02  0.43400729288E+02  0.00000000000E+00 0. -1.
         11    1    3    3    0    0  0.41106914595E+01 -0.92809629948E+00  0.60241099439E+01  0.73518057573E+01  0.51100000000E-03 0. -1.
        -11    1    3    3    0    0  0.14672062067E+02 -0.16501977325E+02  0.23617881498E+02  0.32332475743E+02  0.51100000000E-03 0.  1.
         12    1    3    3    0    0  0.77871524922E+01 -0.18548998623E+01 -0.12561993186E+01  0.81029892116E+01  0.00000000000E+00 0. -1.
</event>
<event>
 7    1  0.2328615E-009  0.4778728E+02  0.7816164E-02  0.1312668E+00
        -11   -1    0    0    0    0  0.00000000000E+00  0.00000000000E+00  0.45593999997E+02  0.45594000000E+02  0.51100000000E-03 0.  1.
         11   -1    0    0    0    0 -0.00000000000E+00 -0.00000000000E+00 -0.45593999997E+02  0.45594000000E+02  0.51100000000E-03 0. -1.
    9900012    2    1    2    0    0 -0.95950313843E+01 -0.18640547723E+02  0.38001153250E+02  0.47787282322E+02  0.20000051418E+02 0.  0.
         12    1    1    2    0    0  0.95950313843E+01  0.18640547723E+02 -0.38001153250E+02  0.43400717678E+02  0.00000000000E+00 0. -1.
         11    1    3    3    0    0  0.32150666496E+01 -0.31940706423E+01  0.96720581179E+01  0.10681172657E+02  0.51100000000E-03 0. -1.
        -11    1    3    3    0    0 -0.16284380109E+01 -0.41063958841E+01  0.16993157509E+02  0.17557952611E+02  0.51100000000E-03 0.  1.
         12    1    3    3    0    0 -0.11181660023E+02 -0.11340081197E+02  0.11335937623E+02  0.19548157054E+02  0.00000000000E+00 0. -1.
</event>
<event>
 7    1  0.2328615E-009  0.4778726E+02  0.7816164E-02  0.1312668E+00
        -11   -1    0    0    0    0  0.00000000000E+00  0.00000000000E+00  0.45593999997E+02  0.45594000000E+02  0.51100000000E-03 0.  1.
         11   -1    0    0    0    0 -0.00000000000E+00 -0.00000000000E+00 -0.45593999997E+02  0.45594000000E+02  0.51100000000E-03 0. -1.
    9900012    2    1    2    0    0 -0.30495027347E+02  0.28799966740E+02  0.11146268917E+02  0.47787261667E+02  0.19999957242E+02 0.  0.
         12    1    1    2    0    0  0.30495027347E+02 -0.28799966740E+02 -0.11146268917E+02  0.43400738333E+02  0.00000000000E+00 0. -1.
         11    1    3    3    0    0 -0.73527324542E+01  0.49068405791E+01  0.49660874823E+01  0.10139121469E+02  0.51100000000E-03 0.  1.
        -11    1    3    3    0    0 -0.40562509667E+01  0.10732483056E+01 -0.43938718379E+01  0.60754542068E+01  0.51100000000E-03 0. -1.
        -12    1    3    3    0    0 -0.19086043926E+02  0.22819877855E+02  0.10574053273E+02  0.31572685991E+02  0.00000000000E+00 0.  1.
</event>
<event>
 7    1  0.2328615E-009  0.4778727E+02  0.7816164E-02  0.1312668E+00
        -11   -1    0    0    0    0  0.00000000000E+00  0.00000000000E+00  0.45593999997E+02  0.45594000000E+02  0.51100000000E-03 0.  1.
         11   -1    0    0    0    0 -0.00000000000E+00 -0.00000000000E+00 -0.45593999997E+02  0.45594000000E+02  0.51100000000E-03 0. -1.
    9900012    2    1    2    0    0  0.28979980108E+02 -0.29422116838E+02 -0.13346276476E+02  0.47787270720E+02  0.19999998521E+02 0.  0.
         12    1    1    2    0    0 -0.28979980108E+02  0.29422116838E+02  0.13346276476E+02  0.43400729280E+02  0.00000000000E+00 0. -1.
         11    1    3    3    0    0  0.98017820588E-01  0.60661297057E+00  0.12242125084E+00  0.62655727032E+00  0.51100000000E-03 0. -1.
        -11    1    3    3    0    0  0.25101282552E+02 -0.31157229861E+02 -0.86538170783E+01  0.40935753427E+02  0.51100000000E-03 0.  1.
        -12    1    3    3    0    0  0.37806797349E+01  0.11285000522E+01 -0.48148806482E+01  0.62249600225E+01  0.00000000000E+00 0.  1.
</event>
<event>
 7    1  0.2328615E-009  0.4778727E+02  0.7816164E-02  0.1312668E+00
        -11   -1    0    0    0    0  0.00000000000E+00  0.00000000000E+00  0.45593999997E+02  0.45594000000E+02  0.51100000000E-03 0.  1.
         11   -1    0    0    0    0 -0.00000000000E+00 -0.00000000000E+00 -0.45593999997E+02  0.45594000000E+02  0.51100000000E-03 0. -1.
    9900012    2    1    2    0    0 -0.32943511313E+01 -0.92388458417E+01  0.42277821887E+02  0.47787271373E+02  0.20000001499E+02 0.  0.
         12    1    1    2    0    0  0.32943511313E+01  0.92388458417E+01 -0.42277821887E+02  0.43400728627E+02  0.00000000000E+00 0. -1.
         11    1    3    3    0    0  0.27234844423E+01 -0.61505383924E+01  0.60513412738E+01  0.90479401798E+01  0.51100000000E-03 0. -1.
        -11    1    3    3    0    0 -0.10197334576E+01 -0.48636111062E+01  0.49420365617E+01  0.70084445460E+01  0.51100000000E-03 0.  1.
        -12    1    3    3    0    0 -0.49981021159E+01  0.17753036569E+01  0.31284444051E+02  0.31730886647E+02  0.00000000000E+00 0.  1.
</event>
<event>
 7    1  0.2328615E-009  0.4778727E+02  0.7816164E-02  0.1312668E+00
        -11   -1    0    0    0    0  0.00000000000E+00  0.00000000000E+00  0.45593999997E+02  0.45594000000E+02  0.51100000000E-03 0.  1.
         11   -1    0    0    0    0 -0.00000000000E+00 -0.00000000000E+00 -0.45593999997E+02  0.45594000000E+02  0.51100000000E-03 0. -1.
    9900012    2    1    2    0    0 -0.13665394925E+02  0.13635940378E+02  0.38870830224E+02  0.47787270389E+02  0.19999997011E+02 0.  0.
         12    1    1    2    0    0  0.13665394925E+02 -0.13635940378E+02 -0.38870830224E+02  0.43400729611E+02  0.00000000000E+00 0. -1.
         11    1    3    3    0    0  0.20970443793E+01  0.36005717432E+01  0.31805378596E+01  0.52419016916E+01  0.51100000000E-03 0. -1.
        -11    1    3    3    0    0 -0.70244272973E+01  0.75131164738E+01  0.69830593219E+01  0.12431919231E+02  0.51100000000E-03 0.  1.
        -12    1    3    3    0    0 -0.87380120069E+01  0.25222521609E+01  0.28707233043E+02  0.30113449467E+02  0.00000000000E+00 0.  1.
</event>
<event>
 7    1  0.2328615E-009  0.4778726E+02  0.7816164E-02  0.1312668E+00
        -11   -1    0    0    0    0  0.00000000000E+00  0.00000000000E+00  0.45593999997E+02  0.45594000000E+02  0.51100000000E-03 0.  1.
         11   -1    0    0    0    0 -0.00000000000E+00 -0.00000000000E+00 -0.45593999997E+02  0.45594000000E+02  0.51100000000E-03 0. -1.
    9900012    2    1    2    0    0  0.38241642611E+02  0.16862991981E+02  0.11697898034E+02  0.47787256383E+02  0.19999933151E+02 0.  0.
         12    1    1    2    0    0 -0.38241642611E+02 -0.16862991981E+02 -0.11697898034E+02  0.43400743617E+02  0.00000000000E+00 0. -1.
         11    1    3    3    0    0  0.14496067631E+02  0.72056581321E+01  0.71610837325E+01  0.17701373008E+02  0.51100000000E-03 0. -1.
        -11    1    3    3    0    0  0.11658441473E+02  0.12738389736E+02  0.25865321263E+01  0.17460698135E+02  0.51100000000E-03 0.  1.
         12    1    3    3    0    0  0.12087133506E+02 -0.30810558872E+01  0.19502821754E+01  0.12625185240E+02  0.00000000000E+00 0. -1.
</event>
<event>
 7    1  0.2328615E-009  0.4778727E+02  0.7816164E-02  0.1312668E+00
        -11   -1    0    0    0    0  0.00000000000E+00  0.00000000000E+00  0.45593999997E+02  0.45594000000E+02  0.51100000000E-03 0.  1.
         11   -1    0    0    0    0 -0.00000000000E+00 -0.00000000000E+00 -0.45593999997E+02  0.45594000000E+02  0.51100000000E-03 0. -1.
    9900012    2    1    2    0    0 -0.35485526699E+02 -0.23399341521E+02  0.87676468548E+01  0.47787269360E+02  0.19999992321E+02 0.  0.
         12    1    1    2    0    0  0.35485526699E+02  0.23399341521E+02 -0.87676468548E+01  0.43400730640E+02  0.00000000000E+00 0. -1.
         11    1    3    3    0    0 -0.60888704803E+01 -0.61163924410E+01  0.17769689698E+01  0.88114822362E+01  0.51100000000E-03 0. -1.
        -11    1    3    3    0    0 -0.14562979101E+02 -0.13624766033E+02  0.11532089807E+02  0.23037007300E+02  0.51100000000E-03 0.  1.
         12    1    3    3    0    0 -0.14833677118E+02 -0.36581830466E+01 -0.45414119221E+01  0.15938779824E+02  0.00000000000E+00 0. -1.
</event>
<event>
 7    1  0.2328615E-009  0.4778727E+02  0.7816164E-02  0.1312668E+00
        -11   -1    0    0    0    0  0.00000000000E+00  0.00000000000E+00  0.45593999997E+02  0.45594000000E+02  0.51100000000E-03 0.  1.
         11   -1    0    0    0    0 -0.00000000000E+00 -0.00000000000E+00 -0.45593999997E+02  0.45594000000E+02  0.51100000000E-03 0. -1.
    9900012    2    1    2    0    0 -0.29660922493E+02 -0.30072636819E+02  0.99744292891E+01  0.47787273647E+02  0.20000011865E+02 0.  0.
         12    1    1    2    0    0  0.29660922493E+02  0.30072636819E+02 -0.99744292891E+01  0.43400726353E+02  0.00000000000E+00 0. -1.
         11    1    3    3    0    0 -0.16494775169E+01 -0.12133632595E+02  0.68500076308E+01  0.14030980751E+02  0.51100000000E-03 0. -1.
        -11    1    3    3    0    0 -0.41870602002E+01 -0.43587771638E+01 -0.63268551061E+00  0.60770636577E+01  0.51100000000E-03 0.  1.
         12    1    3    3    0    0 -0.23824384775E+02 -0.13580227060E+02  0.37571071689E+01  0.27679229238E+02  0.00000000000E+00 0. -1.
</event>
<event>
 7    1  0.2328615E-009  0.4778726E+02  0.7816164E-02  0.1312668E+00
        -11   -1    0    0    0    0  0.00000000000E+00  0.00000000000E+00  0.45593999997E+02  0.45594000000E+02  0.51100000000E-03 0. -1.
         11   -1    0    0    0    0 -0.00000000000E+00 -0.00000000000E+00 -0.45593999997E+02  0.45594000000E+02  0.51100000000E-03 0.  1.
    9900012    2    1    2    0    0  0.23392815909E+02 -0.35323972345E+02  0.94136580401E+01  0.47787264798E+02  0.19999971521E+02 0.  0.
         12    1    1    2    0    0 -0.23392815909E+02  0.35323972345E+02 -0.94136580401E+01  0.43400735202E+02  0.00000000000E+00 0. -1.
         11    1    3    3    0    0  0.70011678572E+01 -0.16426345692E+02  0.12218549427E+01  0.17897880152E+02  0.51100000000E-03 0. -1.
        -11    1    3    3    0    0  0.25556898015E+01 -0.11096275542E+02  0.81545413536E+01  0.14005549836E+02  0.51100000000E-03 0.  1.
         12    1    3    3    0    0  0.13835958250E+02 -0.78013511110E+01  0.37261743703E-01  0.15883834811E+02  0.00000000000E+00 0. -1.
</event>
<event>
 7    1  0.2328615E-009  0.4778726E+02  0.7816164E-02  0.1312668E+00
        -11   -1    0    0    0    0  0.00000000000E+00  0.00000000000E+00  0.45593999997E+02  0.45594000000E+02  0.51100000000E-03 0. -1.
         11   -1    0    0    0    0 -0.00000000000E+00 -0.00000000000E+00 -0.45593999997E+02  0.45594000000E+02  0.51100000000E-03 0.  1.
    9900012    2    1    2    0    0 -0.76719774406E+01  0.37254853781E+02 -0.20900746009E+02  0.47787256322E+02  0.19999932875E+02 0.  0.
         12    1    1    2    0    0  0.76719774406E+01 -0.37254853781E+02  0.20900746009E+02  0.43400743678E+02  0.00000000000E+00 0. -1.
         11    1    3    3    0    0 -0.57705078446E+01  0.97109103504E+01 -0.81481641473E+01  0.13928141292E+02  0.51100000000E-03 0. -1.
        -11    1    3    3    0    0  0.13902467767E+01  0.22545952042E+02 -0.15375412706E+02  0.27325007881E+02  0.51100000000E-03 0.  1.
        -12    1    3    3    0    0 -0.32917163726E+01  0.49979913885E+01  0.26228308444E+01  0.65341071491E+01  0.00000000000E+00 0.  1.
</event>
<event>
 7    1  0.2328615E-009  0.4778727E+02  0.7816164E-02  0.1312668E+00
        -11   -1    0    0    0    0  0.00000000000E+00  0.00000000000E+00  0.45593999997E+02  0.45594000000E+02  0.51100000000E-03 0. -1.
         11   -1    0    0    0    0 -0.00000000000E+00 -0.00000000000E+00 -0.45593999997E+02  0.45594000000E+02  0.51100000000E-03 0.  1.
    9900012    2    1    2    0    0 -0.13986116182E+02 -0.40687229825E+02  0.57062422026E+01  0.47787270550E+02  0.19999997745E+02 0.  0.
         12    1    1    2    0    0  0.13986116182E+02  0.40687229825E+02 -0.57062422026E+01  0.43400729450E+02  0.00000000000E+00 0. -1.
         11    1    3    3    0    0 -0.73825469860E+01 -0.64050494603E+01 -0.22092978809E+01  0.10020362068E+02  0.51100000000E-03 0. -1.
        -11    1    3    3    0    0 -0.28892929547E+01 -0.66407389054E+01 -0.29707535587E+01  0.78276946769E+01  0.51100000000E-03 0.  1.
        -12    1    3    3    0    0 -0.37142762416E+01 -0.27641441460E+02  0.10886293642E+02  0.29939213805E+02  0.00000000000E+00 0.  1.
</event>
<event>
 7    1  0.2328615E-009  0.4778727E+02  0.7816164E-02  0.1312668E+00
        -11   -1    0    0    0    0  0.00000000000E+00  0.00000000000E+00  0.45593999997E+02  0.45594000000E+02  0.51100000000E-03 0. -1.
         11   -1    0    0    0    0 -0.00000000000E+00 -0.00000000000E+00 -0.45593999997E+02  0.45594000000E+02  0.51100000000E-03 0.  1.
    9900012    2    1    2    0    0  0.41592453881E+02 -0.11922731190E+02 -0.33969861563E+01  0.47787271275E+02  0.20000001053E+02 0.  0.
         12    1    1    2    0    0 -0.41592453881E+02  0.11922731190E+02  0.33969861563E+01  0.43400728725E+02  0.00000000000E+00 0. -1.
         11    1    3    3    0    0  0.11075267687E+02 -0.68849431479E+01 -0.44150714437E+01  0.13767964723E+02  0.51100000000E-03 0. -1.
        -11    1    3    3    0    0  0.27421703977E+02 -0.30228197368E+01 -0.39070341987E+01  0.27863097543E+02  0.51100000000E-03 0.  1.
         12    1    3    3    0    0  0.30954822170E+01 -0.20149683048E+01  0.49251194860E+01  0.61562090102E+01  0.00000000000E+00 0. -1.
</event>
<event>
 7    1  0.2328615E-009  0.4778727E+02  0.7816164E-02  0.1312668E+00
        -11   -1    0    0    0    0  0.00000000000E+00  0.00000000000E+00  0.45593999997E+02  0.45594000000E+02  0.51100000000E-03 0.  1.
         11   -1    0    0    0    0 -0.00000000000E+00 -0.00000000000E+00 -0.45593999997E+02  0.45594000000E+02  0.51100000000E-03 0. -1.
    9900012    2    1    2    0    0  0.13785581311E+02  0.34347194479E+02  0.22668284286E+02  0.47787272666E+02  0.20000007391E+02 0.  0.
         12    1    1    2    0    0 -0.13785581311E+02 -0.34347194479E+02 -0.22668284286E+02  0.43400727334E+02  0.00000000000E+00 0. -1.
         11    1    3    3    0    0  0.37294349886E+01  0.11991928922E+02 -0.17442700669E+00  0.12559676335E+02  0.51100000000E-03 0. -1.
        -11    1    3    3    0    0  0.64355609449E+01  0.78467871276E+01  0.34066454013E+01  0.10704846849E+02  0.51100000000E-03 0.  1.
         12    1    3    3    0    0  0.36205853779E+01  0.14508478430E+02  0.19436065891E+02  0.24522749482E+02  0.00000000000E+00 0. -1.
</event>
<event>
 7    1  0.2328615E-009  0.4778727E+02  0.7816164E-02  0.1312668E+00
        -11   -1    0    0    0    0  0.00000000000E+00  0.00000000000E+00  0.45593999997E+02  0.45594000000E+02  0.51100000000E-03 0. -1.
         11   -1    0    0    0    0 -0.00000000000E+00 -0.00000000000E+00 -0.45593999997E+02  0.45594000000E+02  0.51100000000E-03 0.  1.
    9900012    2    1    2    0    0 -0.19833275599E+02 -0.30212508085E+02 -0.24030580633E+02  0.47787271074E+02  0.20000000135E+02 0.  0.
         12    1    1    2    0    0  0.19833275599E+02  0.30212508085E+02  0.24030580633E+02  0.43400728926E+02  0.00000000000E+00 0. -1.
         11    1    3    3    0    0  0.91717167670E+00 -0.30871375056E+01 -0.10549133330E+02  0.11029770448E+02  0.51100000000E-03 0. -1.
        -11    1    3    3    0    0 -0.47690768253E+01 -0.60716838306E+01 -0.22853588813E+01  0.80518509538E+01  0.51100000000E-03 0.  1.
        -12    1    3    3    0    0 -0.15981370450E+02 -0.21053686749E+02 -0.11196088422E+02  0.28705649672E+02  0.00000000000E+00 0.  1.
</event>
<event>
 7    1  0.2328615E-009  0.4778727E+02  0.7816164E-02  0.1312668E+00
        -11   -1    0    0    0    0  0.00000000000E+00  0.00000000000E+00  0.45593999997E+02  0.45594000000E+02  0.51100000000E-03 0. -1.
         11   -1    0    0    0    0 -0.00000000000E+00 -0.00000000000E+00 -0.45593999997E+02  0.45594000000E+02  0.51100000000E-03 0.  1.
    9900012    2    1    2    0    0  0.38535170851E+02 -0.18890487989E+02 -0.64663306611E+01  0.47787270038E+02  0.19999995413E+02 0.  0.
         12    1    1    2    0    0 -0.38535170851E+02  0.18890487989E+02  0.64663306611E+01  0.43400729962E+02  0.00000000000E+00 0. -1.
         11    1    3    3    0    0  0.11567160917E+02 -0.44125862132E+01 -0.23794855690E+01  0.12606826746E+02  0.51100000000E-03 0. -1.
        -11    1    3    3    0    0  0.15860694564E+02 -0.16267550287E+02  0.11958225700E+01  0.22751369547E+02  0.51100000000E-03 0.  1.
         12    1    3    3    0    0  0.11107315370E+02  0.17896485114E+01 -0.52826676621E+01  0.12429073745E+02  0.00000000000E+00 0. -1.
</event>
<event>
 7    1  0.2328615E-009  0.4778727E+02  0.7816164E-02  0.1312668E+00
        -11   -1    0    0    0    0  0.00000000000E+00  0.00000000000E+00  0.45593999997E+02  0.45594000000E+02  0.51100000000E-03 0.  1.
         11   -1    0    0    0    0 -0.00000000000E+00 -0.00000000000E+00 -0.45593999997E+02  0.45594000000E+02  0.51100000000E-03 0. -1.
    9900012    2    1    2    0    0 -0.23421077751E+02  0.13966061408E+02  0.33764264566E+02  0.47787270559E+02  0.19999997788E+02 0.  0.
         12    1    1    2    0    0  0.23421077751E+02 -0.13966061408E+02 -0.33764264566E+02  0.43400729441E+02  0.00000000000E+00 0. -1.
         11    1    3    3    0    0 -0.31234866123E+01 -0.11484855977E+01  0.55071513920E+01  0.64345865836E+01  0.51100000000E-03 0. -1.
        -11    1    3    3    0    0 -0.19492188054E+02  0.64551865432E+01  0.14726714652E+02  0.25268378522E+02  0.51100000000E-03 0.  1.
         12    1    3    3    0    0 -0.80540308516E+00  0.86593604629E+01  0.13530398522E+02  0.16084305453E+02  0.00000000000E+00 0. -1.
</event>
<event>
 7    1  0.2328615E-009  0.4778727E+02  0.7816164E-02  0.1312668E+00
        -11   -1    0    0    0    0  0.00000000000E+00  0.00000000000E+00  0.45593999997E+02  0.45594000000E+02  0.51100000000E-03 0.  1.
         11   -1    0    0    0    0 -0.00000000000E+00 -0.00000000000E+00 -0.45593999997E+02  0.45594000000E+02  0.51100000000E-03 0. -1.
    9900012    2    1    2    0    0  0.11126976630E+02  0.84687518264E+01  0.41086416609E+02  0.47787274243E+02  0.20000014585E+02 0.  0.
         12    1    1    2    0    0 -0.11126976630E+02 -0.84687518264E+01 -0.41086416609E+02  0.43400725757E+02  0.00000000000E+00 0. -1.
         11    1    3    3    0    0  0.13852381264E+01  0.17192358791E+01 -0.89459005506E+00  0.23822149992E+01  0.51100000000E-03 0. -1.
        -11    1    3    3    0    0  0.29151846961E+01  0.13907315543E+01  0.81088894602E+00  0.33301617397E+01  0.51100000000E-03 0.  1.
         12    1    3    3    0    0  0.68265538078E+01  0.53587843931E+01  0.41170117718E+02  0.42074897504E+02  0.00000000000E+00 0. -1.
</event>
<event>
 7    1  0.2328615E-009  0.4778727E+02  0.7816164E-02  0.1312668E+00
        -11   -1    0    0    0    0  0.00000000000E+00  0.00000000000E+00  0.45593999997E+02  0.45594000000E+02  0.51100000000E-03 0. -1.
         11   -1    0    0    0    0 -0.00000000000E+00 -0.00000000000E+00 -0.45593999997E+02  0.45594000000E+02  0.51100000000E-03 0.  1.
    9900012    2    1    2    0    0  0.34908889204E+02  0.34901763958E+01 -0.25550170345E+02  0.47787273262E+02  0.20000010110E+02 0.  0.
         12    1    1    2    0    0 -0.34908889204E+02 -0.34901763958E+01  0.25550170345E+02  0.43400726738E+02  0.00000000000E+00 0. -1.
         11    1    3    3    0    0  0.11607586708E+01  0.43483632605E+01 -0.79259547952E+00  0.45698831048E+01  0.51100000000E-03 0. -1.
        -11    1    3    3    0    0  0.15832771342E+02 -0.42005612695E+01 -0.71379537103E+01  0.17868176929E+02  0.51100000000E-03 0.  1.
        -12    1    3    3    0    0  0.17915359191E+02  0.33423744049E+01 -0.17619621155E+02  0.25349213228E+02  0.00000000000E+00 0.  1.
</event>
<event>
 7    1  0.2328615E-009  0.4778727E+02  0.7816164E-02  0.1312668E+00
        -11   -1    0    0    0    0  0.00000000000E+00  0.00000000000E+00  0.45593999997E+02  0.45594000000E+02  0.51100000000E-03 0. -1.
         11   -1    0    0    0    0 -0.00000000000E+00 -0.00000000000E+00 -0.45593999997E+02  0.45594000000E+02  0.51100000000E-03 0.  1.
    9900012    2    1    2    0    0  0.17018036749E+02 -0.28550670043E+02 -0.27908225197E+02  0.47787269956E+02  0.19999995037E+02 0.  0.
         12    1    1    2    0    0 -0.17018036749E+02  0.28550670043E+02  0.27908225197E+02  0.43400730044E+02  0.00000000000E+00 0. -1.
         11    1    3    3    0    0  0.51775405821E+00  0.60219744393E+00  0.16359260178E+01  0.18185063165E+01  0.51100000000E-03 0. -1.
        -11    1    3    3    0    0 -0.79254796164E+00 -0.47078054064E+01 -0.16650410312E+01  0.50560781158E+01  0.51100000000E-03 0.  1.
         12    1    3    3    0    0  0.17292830653E+02 -0.24445062081E+02 -0.27879110184E+02  0.40912685524E+02  0.00000000000E+00 0. -1.
</event>
<event>
 7    1  0.2328615E-009  0.4778727E+02  0.7816164E-02  0.1312668E+00
        -11   -1    0    0    0    0  0.00000000000E+00  0.00000000000E+00  0.45593999997E+02  0.45594000000E+02  0.51100000000E-03 0. -1.
         11   -1    0    0    0    0 -0.00000000000E+00 -0.00000000000E+00 -0.45593999997E+02  0.45594000000E+02  0.51100000000E-03 0.  1.
    9900012    2    1    2    0    0 -0.10701243694E+02 -0.37160885186E+02 -0.19702155668E+02  0.47787274864E+02  0.20000017414E+02 0.  0.
         12    1    1    2    0    0  0.10701243694E+02  0.37160885186E+02  0.19702155668E+02  0.43400725136E+02  0.00000000000E+00 0. -1.
         11    1    3    3    0    0  0.92461437376E+00  0.77777026262E+00  0.73742331478E+00  0.14154969897E+01  0.51100000000E-03 0. -1.
        -11    1    3    3    0    0 -0.92492401881E+01 -0.26287146205E+02 -0.76280390257E+01  0.28892031415E+02  0.51100000000E-03 0.  1.
         12    1    3    3    0    0 -0.23766178800E+01 -0.11651509243E+02 -0.12811539957E+02  0.17479746459E+02  0.00000000000E+00 0. -1.
</event>
<event>
 7    1  0.2328615E-009  0.4778727E+02  0.7816164E-02  0.1312668E+00
        -11   -1    0    0    0    0  0.00000000000E+00  0.00000000000E+00  0.45593999997E+02  0.45594000000E+02  0.51100000000E-03 0. -1.
         11   -1    0    0    0    0 -0.00000000000E+00 -0.00000000000E+00 -0.45593999997E+02  0.45594000000E+02  0.51100000000E-03 0.  1.
    9900012    2    1    2    0    0 -0.16890648747E+02 -0.34690366598E+02  0.19872286237E+02  0.47787270627E+02  0.19999998098E+02 0.  0.
         12    1    1    2    0    0  0.16890648747E+02  0.34690366598E+02 -0.19872286237E+02  0.43400729373E+02  0.00000000000E+00 0. -1.
         11    1    3    3    0    0 -0.83341145235E+00 -0.44032307341E+01  0.49535213896E+01  0.66798495466E+01  0.51100000000E-03 0. -1.
        -11    1    3    3    0    0  0.82688102537E+00 -0.15968216788E+02  0.82143514204E+01  0.17976185611E+02  0.51100000000E-03 0.  1.
         12    1    3    3    0    0 -0.16884118320E+02 -0.14318919076E+02  0.67044134271E+01  0.23131235470E+02  0.00000000000E+00 0. -1.
</event>
<event>
 7    1  0.2328615E-009  0.4778727E+02  0.7816164E-02  0.1312668E+00
        -11   -1    0    0    0    0  0.00000000000E+00  0.00000000000E+00  0.45593999997E+02  0.45594000000E+02  0.51100000000E-03 0.  1.
         11   -1    0    0    0    0 -0.00000000000E+00 -0.00000000000E+00 -0.45593999997E+02  0.45594000000E+02  0.51100000000E-03 0. -1.
    9900012    2    1    2    0    0  0.42649005864E+02  0.37589631853E+01  0.71102485214E+01  0.47787272593E+02  0.20000007062E+02 0.  0.
         12    1    1    2    0    0 -0.42649005864E+02 -0.37589631853E+01 -0.71102485214E+01  0.43400727407E+02  0.00000000000E+00 0. -1.
         11    1    3    3    0    0  0.17075065502E+02 -0.12246300589E+00 -0.35350418070E+01  0.17437585266E+02  0.51100000000E-03 0. -1.
        -11    1    3    3    0    0  0.42604067090E+01  0.16942011294E+01 -0.24908810206E+01  0.52178416336E+01  0.51100000000E-03 0.  1.
        -12    1    3    3    0    0  0.21313533653E+02  0.21872250618E+01  0.13136171349E+02  0.25131845694E+02  0.00000000000E+00 0.  1.
</event>
<event>
 7    1  0.2328615E-009  0.4778727E+02  0.7816164E-02  0.1312668E+00
        -11   -1    0    0    0    0  0.00000000000E+00  0.00000000000E+00  0.45593999997E+02  0.45594000000E+02  0.51100000000E-03 0.  1.
         11   -1    0    0    0    0 -0.00000000000E+00 -0.00000000000E+00 -0.45593999997E+02  0.45594000000E+02  0.51100000000E-03 0. -1.
    9900012    2    1    2    0    0 -0.28326308691E+02 -0.13820227252E+02  0.29836967903E+02  0.47787273059E+02  0.20000009184E+02 0.  0.
         12    1    1    2    0    0  0.28326308691E+02  0.13820227252E+02 -0.29836967903E+02  0.43400726941E+02  0.00000000000E+00 0. -1.
         11    1    3    3    0    0 -0.12636218162E+02 -0.53202115438E+01  0.47056384766E+01  0.14495574981E+02  0.51100000000E-03 0. -1.
        -11    1    3    3    0    0 -0.65522204828E+01 -0.12542795003E+01  0.13522369777E+01  0.68068609083E+01  0.51100000000E-03 0.  1.
         12    1    3    3    0    0 -0.91378700468E+01 -0.72457362080E+01  0.23779092449E+02  0.26484837169E+02  0.00000000000E+00 0. -1.
</event>
<event>
 7    1  0.2328615E-009  0.4778727E+02  0.7816164E-02  0.1312668E+00
        -11   -1    0    0    0    0  0.00000000000E+00  0.00000000000E+00  0.45593999997E+02  0.45594000000E+02  0.51100000000E-03 0. -1.
         11   -1    0    0    0    0 -0.00000000000E+00 -0.00000000000E+00 -0.45593999997E+02  0.45594000000E+02  0.51100000000E-03 0.  1.
    9900012    2    1    2    0    0 -0.21709662305E+02  0.20185327612E+02 -0.31699626639E+02  0.47787271697E+02  0.20000002975E+02 0.  0.
         12    1    1    2    0    0  0.21709662305E+02 -0.20185327612E+02  0.31699626639E+02  0.43400728303E+02  0.00000000000E+00 0. -1.
         11    1    3    3    0    0 -0.28199274083E+01  0.90680453347E+01 -0.12443291008E+02  0.15653016583E+02  0.51100000000E-03 0. -1.
        -11    1    3    3    0    0 -0.14945202005E+02  0.13675271566E+02 -0.12176268423E+02  0.23635431630E+02  0.51100000000E-03 0.  1.
        -12    1    3    3    0    0 -0.39445328924E+01 -0.25579892893E+01 -0.70800672080E+01  0.84988234840E+01  0.00000000000E+00 0.  1.
</event>
<event>
 7    1  0.2328615E-009  0.4778727E+02  0.7816164E-02  0.1312668E+00
        -11   -1    0    0    0    0  0.00000000000E+00  0.00000000000E+00  0.45593999997E+02  0.45594000000E+02  0.51100000000E-03 0. -1.
         11   -1    0    0    0    0 -0.00000000000E+00 -0.00000000000E+00 -0.45593999997E+02  0.45594000000E+02  0.51100000000E-03 0.  1.
    9900012    2    1    2    0    0 -0.40939381107E+02  0.40179304365E+01 -0.13836425459E+02  0.47787270053E+02  0.19999995481E+02 0.  0.
         12    1    1    2    0    0  0.40939381107E+02 -0.40179304365E+01  0.13836425459E+02  0.43400729947E+02  0.00000000000E+00 0. -1.
         11    1    3    3    0    0  0.37328695611E+00 -0.55999037834E+00  0.11641782180E+01  0.13447094704E+01  0.51100000000E-03 0. -1.
        -11    1    3    3    0    0 -0.42832100351E+01  0.47561023516E+01  0.22555640889E+00  0.64044729477E+01  0.51100000000E-03 0.  1.
        -12    1    3    3    0    0 -0.37029458028E+02 -0.17818153674E+00 -0.15226160086E+02  0.40038087635E+02  0.00000000000E+00 0.  1.
</event>
<event>
 7    1  0.2328615E-009  0.4778727E+02  0.7816164E-02  0.1312668E+00
        -11   -1    0    0    0    0  0.00000000000E+00  0.00000000000E+00  0.45593999997E+02  0.45594000000E+02  0.51100000000E-03 0.  1.
         11   -1    0    0    0    0 -0.00000000000E+00 -0.00000000000E+00 -0.45593999997E+02  0.45594000000E+02  0.51100000000E-03 0. -1.
    9900012    2    1    2    0    0 -0.13690012163E+02  0.26407497199E+02  0.31604602515E+02  0.47787271418E+02  0.20000001702E+02 0.  0.
         12    1    1    2    0    0  0.13690012163E+02 -0.26407497199E+02 -0.31604602515E+02  0.43400728582E+02  0.00000000000E+00 0. -1.
         11    1    3    3    0    0 -0.57382428575E+00 -0.16559209115E+01  0.71510235915E+01  0.73626413089E+01  0.51100000000E-03 0. -1.
        -11    1    3    3    0    0 -0.62745172123E+01  0.88884435641E+01  0.13392415902E+02  0.17254877548E+02  0.51100000000E-03 0.  1.
         12    1    3    3    0    0 -0.68416706651E+01  0.19174974546E+02  0.11061163021E+02  0.23169752561E+02  0.00000000000E+00 0. -1.
</event>
<event>
 7    1  0.2328615E-009  0.4778728E+02  0.7816164E-02  0.1312668E+00
        -11   -1    0    0    0    0  0.00000000000E+00  0.00000000000E+00  0.45593999997E+02  0.45594000000E+02  0.51100000000E-03 0. -1.
         11   -1    0    0    0    0 -0.00000000000E+00 -0.00000000000E+00 -0.45593999997E+02  0.45594000000E+02  0.51100000000E-03 0.  1.
    9900012    2    1    2    0    0  0.32590102730E+02 -0.61660126975E+01 -0.27990859522E+02  0.47787277364E+02  0.20000028815E+02 0.  0.
         12    1    1    2    0    0 -0.32590102730E+02  0.61660126975E+01  0.27990859522E+02  0.43400722636E+02  0.00000000000E+00 0. -1.
         11    1    3    3    0    0  0.26948222206E+01  0.12627067319E+01 -0.79290874182E+01  0.84691748499E+01  0.51100000000E-03 0. -1.
        -11    1    3    3    0    0  0.22835621755E+02 -0.13922911049E+00 -0.17717399604E+02  0.28903135724E+02  0.51100000000E-03 0.  1.
        -12    1    3    3    0    0  0.70596587542E+01 -0.72894903190E+01 -0.23443724996E+01  0.10414966791E+02  0.00000000000E+00 0.  1.
</event>
<event>
 7    1  0.2328615E-009  0.4778727E+02  0.7816164E-02  0.1312668E+00
        -11   -1    0    0    0    0  0.00000000000E+00  0.00000000000E+00  0.45593999997E+02  0.45594000000E+02  0.51100000000E-03 0.  1.
         11   -1    0    0    0    0 -0.00000000000E+00 -0.00000000000E+00 -0.45593999997E+02  0.45594000000E+02  0.51100000000E-03 0. -1.
    9900012    2    1    2    0    0  0.32680953765E+02  0.20034309246E+02  0.20352027366E+02  0.47787270699E+02  0.19999998424E+02 0.  0.
         12    1    1    2    0    0 -0.32680953765E+02 -0.20034309246E+02 -0.20352027366E+02  0.43400729301E+02  0.00000000000E+00 0. -1.
         11    1    3    3    0    0  0.75074017638E+01  0.83480611314E+01  0.10532241439E+02  0.15394132515E+02  0.51100000000E-03 0. -1.
        -11    1    3    3    0    0  0.15375085453E+02  0.53448726779E+01  0.12372210190E+02  0.20445843144E+02  0.51100000000E-03 0.  1.
         12    1    3    3    0    0  0.97984665484E+01  0.63413754371E+01 -0.25524242635E+01  0.11947295039E+02  0.00000000000E+00 0. -1.
</event>
<event>
 7    1  0.2328615E-009  0.4778727E+02  0.7816164E-02  0.1312668E+00
        -11   -1    0    0    0    0  0.00000000000E+00  0.00000000000E+00  0.45593999997E+02  0.45594000000E+02  0.51100000000E-03 0. -1.
         11   -1    0    0    0    0 -0.00000000000E+00 -0.00000000000E+00 -0.45593999997E+02  0.45594000000E+02  0.51100000000E-03 0.  1.
    9900012    2    1    2    0    0 -0.16694705295E+02  0.45719331297E+01 -0.39799590932E+02  0.47787271944E+02  0.20000004102E+02 0.  0.
         12    1    1    2    0    0  0.16694705295E+02 -0.45719331297E+01  0.39799590932E+02  0.43400728056E+02  0.00000000000E+00 0. -1.
         11    1    3    3    0    0  0.67561894371E+00 -0.11455000473E+01  0.14175695698E+01  0.19437425400E+01  0.51100000000E-03 0. -1.
        -11    1    3    3    0    0 -0.59866349567E+01 -0.17526689981E+01 -0.99982680319E+01  0.11784609057E+02  0.51100000000E-03 0.  1.
        -12    1    3    3    0    0 -0.11383689282E+02  0.74701021750E+01 -0.31218892470E+02  0.34058920347E+02  0.00000000000E+00 0.  1.
</event>
<event>
 7    1  0.2328615E-009  0.4778727E+02  0.7816164E-02  0.1312668E+00
        -11   -1    0    0    0    0  0.00000000000E+00  0.00000000000E+00  0.45593999997E+02  0.45594000000E+02  0.51100000000E-03 0.  1.
         11   -1    0    0    0    0 -0.00000000000E+00 -0.00000000000E+00 -0.45593999997E+02  0.45594000000E+02  0.51100000000E-03 0. -1.
    9900012    2    1    2    0    0 -0.21238745505E+02 -0.35038281588E+01  0.37686363750E+02  0.47787272643E+02  0.20000007290E+02 0.  0.
         12    1    1    2    0    0  0.21238745505E+02  0.35038281588E+01 -0.37686363750E+02  0.43400727357E+02  0.00000000000E+00 0. -1.
         11    1    3    3    0    0  0.71671830269E+00 -0.43081295900E-01  0.57196174540E+01  0.57645091035E+01  0.51100000000E-03 0. -1.
        -11    1    3    3    0    0 -0.15599216771E+02 -0.57805798585E+01  0.31008129952E+02  0.35188844692E+02  0.51100000000E-03 0.  1.
         12    1    3    3    0    0 -0.63562470372E+01  0.23198329956E+01  0.95861634350E+00  0.68339188478E+01  0.00000000000E+00 0. -1.
</event>
<event>
 7    1  0.2328615E-009  0.4778727E+02  0.7816164E-02  0.1312668E+00
        -11   -1    0    0    0    0  0.00000000000E+00  0.00000000000E+00  0.45593999997E+02  0.45594000000E+02  0.51100000000E-03 0.  1.
         11   -1    0    0    0    0 -0.00000000000E+00 -0.00000000000E+00 -0.45593999997E+02  0.45594000000E+02  0.51100000000E-03 0. -1.
    9900012    2    1    2    0    0 -0.19547925991E+02 -0.21898343084E+02  0.31968185893E+02  0.47787265563E+02  0.19999975009E+02 0.  0.
         12    1    1    2    0    0  0.19547925991E+02  0.21898343084E+02 -0.31968185893E+02  0.43400734437E+02  0.00000000000E+00 0. -1.
         11    1    3    3    0    0  0.92467200571E+00 -0.36219928634E+01  0.77723343022E+01  0.86245597793E+01  0.51100000000E-03 0. -1.
        -11    1    3    3    0    0  0.17232426058E+01 -0.28534491266E+00  0.34063824014E+01  0.38281102549E+01  0.51100000000E-03 0.  1.
        -12    1    3    3    0    0 -0.22195840602E+02 -0.17991005308E+02  0.20789469190E+02  0.35334595529E+02  0.00000000000E+00 0.  1.
</event>
<event>
 7    1  0.2328615E-009  0.4778727E+02  0.7816164E-02  0.1312668E+00
        -11   -1    0    0    0    0  0.00000000000E+00  0.00000000000E+00  0.45593999997E+02  0.45594000000E+02  0.51100000000E-03 0.  1.
         11   -1    0    0    0    0 -0.00000000000E+00 -0.00000000000E+00 -0.45593999997E+02  0.45594000000E+02  0.51100000000E-03 0. -1.
    9900012    2    1    2    0    0 -0.18204782966E+02 -0.24042280212E+02  0.31211824431E+02  0.47787270226E+02  0.19999996268E+02 0.  0.
         12    1    1    2    0    0  0.18204782966E+02  0.24042280212E+02 -0.31211824431E+02  0.43400729774E+02  0.00000000000E+00 0. -1.
         11    1    3    3    0    0  0.71459342323E+00 -0.79959154522E+01  0.81581820085E+01  0.11445577383E+02  0.51100000000E-03 0. -1.
        -11    1    3    3    0    0 -0.16415674082E+01  0.44679617769E+00 -0.13663396939E+01  0.21820299723E+01  0.51100000000E-03 0.  1.
        -12    1    3    3    0    0 -0.17277808981E+02 -0.16493160937E+02  0.24419982116E+02  0.34159662871E+02  0.00000000000E+00 0.  1.
</event>
<event>
 7    1  0.2328615E-009  0.4778726E+02  0.7816164E-02  0.1312668E+00
        -11   -1    0    0    0    0  0.00000000000E+00  0.00000000000E+00  0.45593999997E+02  0.45594000000E+02  0.51100000000E-03 0. -1.
         11   -1    0    0    0    0 -0.00000000000E+00 -0.00000000000E+00 -0.45593999997E+02  0.45594000000E+02  0.51100000000E-03 0.  1.
    9900012    2    1    2    0    0 -0.38828687256E+02 -0.10053772935E+02 -0.16579467967E+02  0.47787261961E+02  0.19999958587E+02 0.  0.
         12    1    1    2    0    0  0.38828687256E+02  0.10053772935E+02  0.16579467967E+02  0.43400738039E+02  0.00000000000E+00 0. -1.
         11    1    3    3    0    0 -0.13695709955E+02 -0.11279066947E+01 -0.11163867758E+01  0.13787347982E+02  0.51100000000E-03 0. -1.
        -11    1    3    3    0    0 -0.15249010871E+02  0.19976457661E+01 -0.61008277027E+01  0.16545181173E+02  0.51100000000E-03 0.  1.
        -12    1    3    3    0    0 -0.98839664297E+01 -0.10923512006E+02 -0.93622534883E+01  0.17454732806E+02  0.00000000000E+00 0.  1.
</event>
<event>
 7    1  0.2328615E-009  0.4778727E+02  0.7816164E-02  0.1312668E+00
        -11   -1    0    0    0    0  0.00000000000E+00  0.00000000000E+00  0.45593999997E+02  0.45594000000E+02  0.51100000000E-03 0.  1.
         11   -1    0    0    0    0 -0.00000000000E+00 -0.00000000000E+00 -0.45593999997E+02  0.45594000000E+02  0.51100000000E-03 0. -1.
    9900012    2    1    2    0    0  0.37305189064E+02  0.19171606088E+02  0.11153303329E+02  0.47787265142E+02  0.19999973088E+02 0.  0.
         12    1    1    2    0    0 -0.37305189064E+02 -0.19171606088E+02 -0.11153303329E+02  0.43400734858E+02  0.00000000000E+00 0. -1.
         11    1    3    3    0    0  0.57899009357E+01  0.47459460613E+01  0.56692928489E+01  0.93908380100E+01  0.51100000000E-03 0. -1.
        -11    1    3    3    0    0  0.23924253455E+02  0.14803692503E+02  0.96328307078E+01  0.29737361060E+02  0.51100000000E-03 0.  1.
        -12    1    3    3    0    0  0.75910346731E+01 -0.37803247652E+00 -0.41488202274E+01  0.86590660721E+01  0.00000000000E+00 0.  1.
</event>
<event>
 7    1  0.2328615E-009  0.4778727E+02  0.7816164E-02  0.1312668E+00
        -11   -1    0    0    0    0  0.00000000000E+00  0.00000000000E+00  0.45593999997E+02  0.45594000000E+02  0.51100000000E-03 0.  1.
         11   -1    0    0    0    0 -0.00000000000E+00 -0.00000000000E+00 -0.45593999997E+02  0.45594000000E+02  0.51100000000E-03 0. -1.
    9900012    2    1    2    0    0 -0.37814338838E+02  0.65157740321E+01  0.20279156647E+02  0.47787265821E+02  0.19999976183E+02 0.  0.
         12    1    1    2    0    0  0.37814338838E+02 -0.65157740321E+01 -0.20279156647E+02  0.43400734179E+02  0.00000000000E+00 0. -1.
         11    1    3    3    0    0 -0.16349231897E+02 -0.15607110962E+01  0.64516620940E+01  0.17645315151E+02  0.51100000000E-03 0. -1.
        -11    1    3    3    0    0 -0.21871982782E+02  0.38007263816E+01  0.13126078488E+02  0.25789980391E+02  0.51100000000E-03 0.  1.
        -12    1    3    3    0    0  0.40687584051E+00  0.42757587468E+01  0.70141606479E+00  0.43519702786E+01  0.00000000000E+00 0.  1.
</event>
<event>
 7    1  0.2328615E-009  0.4778727E+02  0.7816164E-02  0.1312668E+00
        -11   -1    0    0    0    0  0.00000000000E+00  0.00000000000E+00  0.45593999997E+02  0.45594000000E+02  0.51100000000E-03 0.  1.
         11   -1    0    0    0    0 -0.00000000000E+00 -0.00000000000E+00 -0.45593999997E+02  0.45594000000E+02  0.51100000000E-03 0. -1.
    9900012    2    1    2    0    0  0.16613962522E+02 -0.14160350897E+02  0.37511119643E+02  0.47787269764E+02  0.19999994161E+02 0.  0.
         12    1    1    2    0    0 -0.16613962522E+02  0.14160350897E+02 -0.37511119643E+02  0.43400730236E+02  0.00000000000E+00 0. -1.
         11    1    3    3    0    0  0.17533005128E+02 -0.15156881774E+02  0.36785137140E+02  0.43477392385E+02  0.51100000000E-03 0. -1.
        -11    1    3    3    0    0 -0.13568638590E+01  0.39178501781E-01  0.21477763944E+01  0.25407790514E+01  0.51100000000E-03 0.  1.
         12    1    3    3    0    0  0.43782125272E+00  0.95735237524E+00 -0.14217938919E+01  0.17690983271E+01  0.00000000000E+00 0. -1.
</event>
<event>
 7    1  0.2328615E-009  0.4778727E+02  0.7816164E-02  0.1312668E+00
        -11   -1    0    0    0    0  0.00000000000E+00  0.00000000000E+00  0.45593999997E+02  0.45594000000E+02  0.51100000000E-03 0.  1.
         11   -1    0    0    0    0 -0.00000000000E+00 -0.00000000000E+00 -0.45593999997E+02  0.45594000000E+02  0.51100000000E-03 0. -1.
    9900012    2    1    2    0    0 -0.16961995937E+02 -0.27343682630E+02  0.29124510334E+02  0.47787269729E+02  0.19999994000E+02 0.  0.
         12    1    1    2    0    0  0.16961995937E+02  0.27343682630E+02 -0.29124510334E+02  0.43400730271E+02  0.00000000000E+00 0. -1.
         11    1    3    3    0    0 -0.15659300960E+01 -0.36661242490E+01 -0.89251115280E+00  0.40852393435E+01  0.51100000000E-03 0. -1.
        -11    1    3    3    0    0 -0.13884851282E+02 -0.93651198514E+01  0.11807396668E+02  0.20491685663E+02  0.51100000000E-03 0.  1.
        -12    1    3    3    0    0 -0.15112145584E+01 -0.14312438529E+02  0.18209624818E+02  0.23210344722E+02  0.00000000000E+00 0.  1.
</event>
<event>
 7    1  0.2328615E-009  0.4778727E+02  0.7816164E-02  0.1312668E+00
        -11   -1    0    0    0    0  0.00000000000E+00  0.00000000000E+00  0.45593999997E+02  0.45594000000E+02  0.51100000000E-03 0.  1.
         11   -1    0    0    0    0 -0.00000000000E+00 -0.00000000000E+00 -0.45593999997E+02  0.45594000000E+02  0.51100000000E-03 0. -1.
    9900012    2    1    2    0    0 -0.13069274357E+02  0.38114012244E+02  0.16128843289E+02  0.47787269045E+02  0.19999990884E+02 0.  0.
         12    1    1    2    0    0  0.13069274357E+02 -0.38114012244E+02 -0.16128843289E+02  0.43400730955E+02  0.00000000000E+00 0. -1.
         11    1    3    3    0    0  0.64198347776E-01  0.57205646252E-01 -0.53341949148E+00  0.54030595854E+00  0.51100000000E-03 0. -1.
        -11    1    3    3    0    0 -0.10279134228E+02  0.18946804372E+02  0.17708264149E+02  0.27896677505E+02  0.51100000000E-03 0.  1.
        -12    1    3    3    0    0 -0.28543384772E+01  0.19110002226E+02 -0.10460013684E+01  0.19350285581E+02  0.00000000000E+00 0.  1.
</event>
<event>
 7    1  0.2328615E-009  0.4778728E+02  0.7816164E-02  0.1312668E+00
        -11   -1    0    0    0    0  0.00000000000E+00  0.00000000000E+00  0.45593999997E+02  0.45594000000E+02  0.51100000000E-03 0.  1.
         11   -1    0    0    0    0 -0.00000000000E+00 -0.00000000000E+00 -0.45593999997E+02  0.45594000000E+02  0.51100000000E-03 0. -1.
    9900012    2    1    2    0    0  0.62818077266E+00 -0.24343782152E+02  0.35925040333E+02  0.47787275773E+02  0.20000021558E+02 0.  0.
         12    1    1    2    0    0 -0.62818077266E+00  0.24343782152E+02 -0.35925040333E+02  0.43400724227E+02  0.00000000000E+00 0. -1.
         11    1    3    3    0    0 -0.73603434216E+00 -0.26996633979E+01  0.94135766447E+01  0.98206595767E+01  0.51100000000E-03 0. -1.
        -11    1    3    3    0    0  0.46791486675E+01 -0.21580240150E+02  0.26697104719E+02  0.34645874182E+02  0.51100000000E-03 0.  1.
         12    1    3    3    0    0 -0.33149335527E+01 -0.63878604107E-01 -0.18564103072E+00  0.33207420145E+01  0.00000000000E+00 0. -1.
</event>
<event>
 7    1  0.2328615E-009  0.4778727E+02  0.7816164E-02  0.1312668E+00
        -11   -1    0    0    0    0  0.00000000000E+00  0.00000000000E+00  0.45593999997E+02  0.45594000000E+02  0.51100000000E-03 0.  1.
         11   -1    0    0    0    0 -0.00000000000E+00 -0.00000000000E+00 -0.45593999997E+02  0.45594000000E+02  0.51100000000E-03 0. -1.
    9900012    2    1    2    0    0 -0.39548665249E+01  0.31506995178E+02  0.29585321460E+02  0.47787274658E+02  0.20000016474E+02 0.  0.
         12    1    1    2    0    0  0.39548665249E+01 -0.31506995178E+02 -0.29585321460E+02  0.43400725342E+02  0.00000000000E+00 0. -1.
         11    1    3    3    0    0  0.34068665165E+01  0.72026898180E+01  0.20965943139E+01  0.82390040693E+01  0.51100000000E-03 0. -1.
        -11    1    3    3    0    0 -0.74294907359E+00  0.14888196863E+02  0.80080624910E+01  0.16921567430E+02  0.51100000000E-03 0.  1.
         12    1    3    3    0    0 -0.66187839679E+01  0.94161084968E+01  0.19480664655E+02  0.22626703159E+02  0.00000000000E+00 0. -1.
</event>
<event>
 7    1  0.2328615E-009  0.4778727E+02  0.7816164E-02  0.1312668E+00
        -11   -1    0    0    0    0  0.00000000000E+00  0.00000000000E+00  0.45593999997E+02  0.45594000000E+02  0.51100000000E-03 0.  1.
         11   -1    0    0    0    0 -0.00000000000E+00 -0.00000000000E+00 -0.45593999997E+02  0.45594000000E+02  0.51100000000E-03 0. -1.
    9900012    2    1    2    0    0  0.20659153167E+02  0.36050821029E+02  0.12536383151E+02  0.47787271792E+02  0.20000003409E+02 0.  0.
         12    1    1    2    0    0 -0.20659153167E+02 -0.36050821029E+02 -0.12536383151E+02  0.43400728208E+02  0.00000000000E+00 0. -1.
         11    1    3    3    0    0  0.16944109541E+01  0.49374748019E+01  0.25255174693E+01  0.57989589281E+01  0.51100000000E-03 0. -1.
        -11    1    3    3    0    0 -0.35752422095E+01  0.48180450327E+01  0.24757047500E+00  0.60047652906E+01  0.51100000000E-03 0.  1.
         12    1    3    3    0    0  0.22539984423E+02  0.26295301195E+02  0.97632952066E+01  0.35983547574E+02  0.00000000000E+00 0. -1.
</event>
<event>
 7    1  0.2328615E-009  0.4778727E+02  0.7816164E-02  0.1312668E+00
        -11   -1    0    0    0    0  0.00000000000E+00  0.00000000000E+00  0.45593999997E+02  0.45594000000E+02  0.51100000000E-03 0. -1.
         11   -1    0    0    0    0 -0.00000000000E+00 -0.00000000000E+00 -0.45593999997E+02  0.45594000000E+02  0.51100000000E-03 0.  1.
    9900012    2    1    2    0    0 -0.16201618391E+02 -0.20677929969E+02  0.34547850192E+02  0.47787272135E+02  0.20000004974E+02 0.  0.
         12    1    1    2    0    0  0.16201618391E+02  0.20677929969E+02 -0.34547850192E+02  0.43400727865E+02  0.00000000000E+00 0. -1.
         11    1    3    3    0    0 -0.81163802584E+00  0.12862089635E+01  0.50617070614E+01  0.52852595414E+01  0.51100000000E-03 0. -1.
        -11    1    3    3    0    0  0.27484276046E+01 -0.40853491072E+01  0.67941348116E+01  0.83907210491E+01  0.51100000000E-03 0.  1.
        -12    1    3    3    0    0 -0.18138407970E+02 -0.17878789825E+02  0.22692008319E+02  0.34111291545E+02  0.00000000000E+00 0.  1.
</event>
<event>
 7    1  0.2328615E-009  0.4778727E+02  0.7816164E-02  0.1312668E+00
        -11   -1    0    0    0    0  0.00000000000E+00  0.00000000000E+00  0.45593999997E+02  0.45594000000E+02  0.51100000000E-03 0. -1.
         11   -1    0    0    0    0 -0.00000000000E+00 -0.00000000000E+00 -0.45593999997E+02  0.45594000000E+02  0.51100000000E-03 0.  1.
    9900012    2    1    2    0    0  0.21593315852E+02  0.31474949540E+02  0.20656226302E+02  0.47787269326E+02  0.19999992165E+02 0.  0.
         12    1    1    2    0    0 -0.21593315852E+02 -0.31474949540E+02 -0.20656226302E+02  0.43400730674E+02  0.00000000000E+00 0. -1.
         11    1    3    3    0    0  0.17756378652E+01  0.54516305223E+01  0.11841659123E+02  0.13156673449E+02  0.51100000000E-03 0. -1.
        -11    1    3    3    0    0  0.34051507377E+01  0.17156319166E+01 -0.52685566756E+00  0.38491585542E+01  0.51100000000E-03 0.  1.
         12    1    3    3    0    0  0.16412527249E+02  0.24307687101E+02  0.93414228465E+01  0.30781437323E+02  0.00000000000E+00 0. -1.
</event>
<event>
 7    1  0.2328615E-009  0.4778727E+02  0.7816164E-02  0.1312668E+00
        -11   -1    0    0    0    0  0.00000000000E+00  0.00000000000E+00  0.45593999997E+02  0.45594000000E+02  0.51100000000E-03 0. -1.
         11   -1    0    0    0    0 -0.00000000000E+00 -0.00000000000E+00 -0.45593999997E+02  0.45594000000E+02  0.51100000000E-03 0.  1.
    9900012    2    1    2    0    0  0.31452338734E+02  0.27985698809E+02 -0.10543908112E+02  0.47787274800E+02  0.20000017121E+02 0.  0.
         12    1    1    2    0    0 -0.31452338734E+02 -0.27985698809E+02  0.10543908112E+02  0.43400725200E+02  0.00000000000E+00 0. -1.
         11    1    3    3    0    0  0.67096975726E+01  0.25171748228E+00 -0.44018615799E+00  0.67288310517E+01  0.51100000000E-03 0. -1.
        -11    1    3    3    0    0  0.20375011783E+02  0.12741367255E+02 -0.78515316050E+01  0.25281022398E+02  0.51100000000E-03 0.  1.
        -12    1    3    3    0    0  0.43676293780E+01  0.14992614071E+02 -0.22521903493E+01  0.15777421350E+02  0.00000000000E+00 0.  1.
</event>
<event>
 7    1  0.2328615E-009  0.4778727E+02  0.7816164E-02  0.1312668E+00
        -11   -1    0    0    0    0  0.00000000000E+00  0.00000000000E+00  0.45593999997E+02  0.45594000000E+02  0.51100000000E-03 0.  1.
         11   -1    0    0    0    0 -0.00000000000E+00 -0.00000000000E+00 -0.45593999997E+02  0.45594000000E+02  0.51100000000E-03 0. -1.
    9900012    2    1    2    0    0 -0.39083754479E+02 -0.84270258105E+00  0.18851341376E+02  0.47787273237E+02  0.20000009999E+02 0.  0.
         12    1    1    2    0    0  0.39083754479E+02  0.84270258105E+00 -0.18851341376E+02  0.43400726763E+02  0.00000000000E+00 0. -1.
         11    1    3    3    0    0 -0.38959405014E+01 -0.56975372288E+01  0.13309896602E+01  0.70293539248E+01  0.51100000000E-03 0. -1.
        -11    1    3    3    0    0 -0.58798402340E+01  0.40182105065E+01  0.57905471170E+01  0.91787239324E+01  0.51100000000E-03 0.  1.
        -12    1    3    3    0    0 -0.29307973744E+02  0.83662414125E+00  0.11729804599E+02  0.31579195380E+02  0.00000000000E+00 0.  1.
</event>
<event>
 7    1  0.2328615E-009  0.4778727E+02  0.7816164E-02  0.1312668E+00
        -11   -1    0    0    0    0  0.00000000000E+00  0.00000000000E+00  0.45593999997E+02  0.45594000000E+02  0.51100000000E-03 0.  1.
         11   -1    0    0    0    0 -0.00000000000E+00 -0.00000000000E+00 -0.45593999997E+02  0.45594000000E+02  0.51100000000E-03 0. -1.
    9900012    2    1    2    0    0 -0.35376667741E+02 -0.24910579205E+02 -0.34025967503E+01  0.47787271418E+02  0.20000001705E+02 0.  0.
         12    1    1    2    0    0  0.35376667741E+02  0.24910579205E+02  0.34025967503E+01  0.43400728582E+02  0.00000000000E+00 0. -1.
         11    1    3    3    0    0  0.31258732153E+00  0.16107755085E+01 -0.14526470126E+01  0.21914589152E+01  0.51100000000E-03 0. -1.
        -11    1    3    3    0    0 -0.49875030298E+01 -0.87654866440E+01 -0.23062477206E+00  0.10087721776E+02  0.51100000000E-03 0.  1.
         12    1    3    3    0    0 -0.30701752032E+02 -0.17755868070E+02 -0.17193249656E+01  0.35508090727E+02  0.00000000000E+00 0. -1.
</event>
<event>
 7    1  0.2328615E-009  0.4778728E+02  0.7816164E-02  0.1312668E+00
        -11   -1    0    0    0    0  0.00000000000E+00  0.00000000000E+00  0.45593999997E+02  0.45594000000E+02  0.51100000000E-03 0.  1.
         11   -1    0    0    0    0 -0.00000000000E+00 -0.00000000000E+00 -0.45593999997E+02  0.45594000000E+02  0.51100000000E-03 0. -1.
    9900012    2    1    2    0    0  0.30785866338E+02  0.29263660272E+02  0.89157937718E+01  0.47787276996E+02  0.20000027136E+02 0.  0.
         12    1    1    2    0    0 -0.30785866338E+02 -0.29263660272E+02 -0.89157937718E+01  0.43400723004E+02  0.00000000000E+00 0. -1.
         11    1    3    3    0    0  0.71134721640E+01  0.23021581613E+01  0.15140160847E+01  0.76284771346E+01  0.51100000000E-03 0. -1.
        -11    1    3    3    0    0  0.16614126064E+02  0.24938431400E+02  0.33457299237E+00  0.29967757422E+02  0.51100000000E-03 0.  1.
        -12    1    3    3    0    0  0.70582681099E+01  0.20230707110E+01  0.70672046947E+01  0.10191042440E+02  0.00000000000E+00 0.  1.
</event>
<event>
 7    1  0.2328615E-009  0.4778728E+02  0.7816164E-02  0.1312668E+00
        -11   -1    0    0    0    0  0.00000000000E+00  0.00000000000E+00  0.45593999997E+02  0.45594000000E+02  0.51100000000E-03 0.  1.
         11   -1    0    0    0    0 -0.00000000000E+00 -0.00000000000E+00 -0.45593999997E+02  0.45594000000E+02  0.51100000000E-03 0. -1.
    9900012    2    1    2    0    0  0.36026369793E+02  0.10299076398E+02  0.21900956625E+02  0.47787283460E+02  0.20000056606E+02 0.  0.
         12    1    1    2    0    0 -0.36026369793E+02 -0.10299076398E+02 -0.21900956625E+02  0.43400716540E+02  0.00000000000E+00 0. -1.
         11    1    3    3    0    0  0.23812179456E+02  0.53221969174E+00  0.17381827681E+02  0.29486116768E+02  0.51100000000E-03 0. -1.
        -11    1    3    3    0    0  0.57236602386E+01 -0.24814665182E+00  0.22389829309E+01  0.61510087070E+01  0.51100000000E-03 0.  1.
        -12    1    3    3    0    0  0.64905300982E+01  0.10015003358E+02  0.22801460131E+01  0.12150157985E+02  0.00000000000E+00 0.  1.
</event>
<event>
 7    1  0.2328615E-009  0.4778724E+02  0.7816164E-02  0.1312668E+00
        -11   -1    0    0    0    0  0.00000000000E+00  0.00000000000E+00  0.45593999997E+02  0.45594000000E+02  0.51100000000E-03 0. -1.
         11   -1    0    0    0    0 -0.00000000000E+00 -0.00000000000E+00 -0.45593999997E+02  0.45594000000E+02  0.51100000000E-03 0.  1.
    9900012    2    1    2    0    0  0.22867391749E+02  0.31842626753E+02 -0.18621379376E+02  0.47787236714E+02  0.19999843473E+02 0.  0.
         12    1    1    2    0    0 -0.22867391749E+02 -0.31842626753E+02  0.18621379376E+02  0.43400763286E+02  0.00000000000E+00 0. -1.
         11    1    3    3    0    0  0.74513598480E+00  0.12595777379E+02 -0.21023425484E+01  0.12791742644E+02  0.51100000000E-03 0. -1.
        -11    1    3    3    0    0  0.11781900995E+02  0.12005332780E+02 -0.41572238781E+01  0.17326965022E+02  0.51100000000E-03 0.  1.
        -12    1    3    3    0    0  0.10340354769E+02  0.72415165939E+01 -0.12361812950E+02  0.17668529048E+02  0.00000000000E+00 0.  1.
</event>
<event>
 7    1  0.2328615E-009  0.4778728E+02  0.7816164E-02  0.1312668E+00
        -11   -1    0    0    0    0  0.00000000000E+00  0.00000000000E+00  0.45593999997E+02  0.45594000000E+02  0.51100000000E-03 0.  1.
         11   -1    0    0    0    0 -0.00000000000E+00 -0.00000000000E+00 -0.45593999997E+02  0.45594000000E+02  0.51100000000E-03 0. -1.
    9900012    2    1    2    0    0 -0.30270700295E+02  0.23639145652E+02  0.20211329280E+02  0.47787281863E+02  0.20000049327E+02 0.  0.
         12    1    1    2    0    0  0.30270700295E+02 -0.23639145652E+02 -0.20211329280E+02  0.43400718137E+02  0.00000000000E+00 0. -1.
         11    1    3    3    0    0 -0.33265963392E+01 -0.11950950612E+01  0.34780729323E+01  0.49589804388E+01  0.51100000000E-03 0. -1.
        -11    1    3    3    0    0 -0.16440464695E+01 -0.15785427615E+01  0.29829613176E+01  0.37540304377E+01  0.51100000000E-03 0.  1.
        -12    1    3    3    0    0 -0.25300057486E+02  0.26412783475E+02  0.13750295030E+02  0.39074270987E+02  0.00000000000E+00 0.  1.
</event>
<event>
 7    1  0.2328615E-009  0.4778727E+02  0.7816164E-02  0.1312668E+00
        -11   -1    0    0    0    0  0.00000000000E+00  0.00000000000E+00  0.45593999997E+02  0.45594000000E+02  0.51100000000E-03 0.  1.
         11   -1    0    0    0    0 -0.00000000000E+00 -0.00000000000E+00 -0.45593999997E+02  0.45594000000E+02  0.51100000000E-03 0. -1.
    9900012    2    1    2    0    0  0.82021671853E+01  0.24725019327E+01  0.42546849002E+02  0.47787272214E+02  0.20000005332E+02 0.  0.
         12    1    1    2    0    0 -0.82021671853E+01 -0.24725019327E+01 -0.42546849002E+02  0.43400727786E+02  0.00000000000E+00 0. -1.
         11    1    3    3    0    0  0.28918307293E+01 -0.67353551730E+01  0.23306884442E+02  0.24432326064E+02  0.51100000000E-03 0. -1.
        -11    1    3    3    0    0 -0.82066580107E+00 -0.86843233032E+00  0.34144500173E+01  0.36174765032E+01  0.51100000000E-03 0.  1.
        -12    1    3    3    0    0  0.61310022570E+01  0.10076289436E+02  0.15825514543E+02  0.19737469646E+02  0.00000000000E+00 0.  1.
</event>
<event>
 7    1  0.2328615E-009  0.4778728E+02  0.7816164E-02  0.1312668E+00
        -11   -1    0    0    0    0  0.00000000000E+00  0.00000000000E+00  0.45593999997E+02  0.45594000000E+02  0.51100000000E-03 0.  1.
         11   -1    0    0    0    0 -0.00000000000E+00 -0.00000000000E+00 -0.45593999997E+02  0.45594000000E+02  0.51100000000E-03 0. -1.
    9900012    2    1    2    0    0  0.65325880844E+01 -0.11391379821E+02  0.41366467009E+02  0.47787276110E+02  0.20000023098E+02 0.  0.
         12    1    1    2    0    0 -0.65325880844E+01  0.11391379821E+02 -0.41366467009E+02  0.43400723890E+02  0.00000000000E+00 0. -1.
         11    1    3    3    0    0  0.57097860956E+01 -0.29268067594E+01  0.96340435156E+01  0.11575087463E+02  0.51100000000E-03 0. -1.
        -11    1    3    3    0    0 -0.16252995375E+01  0.39989934717E+01  0.11923023098E+02  0.12680379625E+02  0.51100000000E-03 0.  1.
         12    1    3    3    0    0  0.24481015263E+01 -0.12463566533E+02  0.19809400396E+02  0.23531809022E+02  0.00000000000E+00 0. -1.
</event>
<event>
 7    1  0.2328615E-009  0.4778727E+02  0.7816164E-02  0.1312668E+00
        -11   -1    0    0    0    0  0.00000000000E+00  0.00000000000E+00  0.45593999997E+02  0.45594000000E+02  0.51100000000E-03 0.  1.
         11   -1    0    0    0    0 -0.00000000000E+00 -0.00000000000E+00 -0.45593999997E+02  0.45594000000E+02  0.51100000000E-03 0. -1.
    9900012    2    1    2    0    0  0.55807364852E+00  0.42791641472E+02 -0.72240992315E+01  0.47787266875E+02  0.19999980990E+02 0.  0.
         12    1    1    2    0    0 -0.55807364852E+00 -0.42791641472E+02  0.72240992315E+01  0.43400733125E+02  0.00000000000E+00 0. -1.
         11    1    3    3    0    0  0.59337460338E+01  0.16017992897E+02 -0.62156044890E+01  0.18177435954E+02  0.51100000000E-03 0. -1.
        -11    1    3    3    0    0 -0.49337823558E+01  0.27393118439E+02 -0.24892826240E+01  0.27944975834E+02  0.51100000000E-03 0.  1.
        -12    1    3    3    0    0 -0.44189002949E+00 -0.61946986359E+00  0.14807878815E+01  0.16648550868E+01  0.00000000000E+00 0.  1.
</event>
<event>
 7    1  0.2328615E-009  0.4778727E+02  0.7816164E-02  0.1312668E+00
        -11   -1    0    0    0    0  0.00000000000E+00  0.00000000000E+00  0.45593999997E+02  0.45594000000E+02  0.51100000000E-03 0. -1.
         11   -1    0    0    0    0 -0.00000000000E+00 -0.00000000000E+00 -0.45593999997E+02  0.45594000000E+02  0.51100000000E-03 0.  1.
    9900012    2    1    2    0    0 -0.39801016099E+02  0.38689910551E+01 -0.16868119270E+02  0.47787269338E+02  0.19999992220E+02 0.  0.
         12    1    1    2    0    0  0.39801016099E+02 -0.38689910551E+01  0.16868119270E+02  0.43400730662E+02  0.00000000000E+00 0. -1.
         11    1    3    3    0    0 -0.13089380609E+02  0.64412968131E+01 -0.10294775830E+02  0.17855100084E+02  0.51100000000E-03 0. -1.
        -11    1    3    3    0    0 -0.16103666538E+02 -0.31031877953E+01 -0.94506499964E+01  0.18928091189E+02  0.51100000000E-03 0.  1.
         12    1    3    3    0    0 -0.10607968953E+02  0.53088203722E+00  0.28773065567E+01  0.11004078065E+02  0.00000000000E+00 0. -1.
</event>
<event>
 7    1  0.2328615E-009  0.4778728E+02  0.7816164E-02  0.1312668E+00
        -11   -1    0    0    0    0  0.00000000000E+00  0.00000000000E+00  0.45593999997E+02  0.45594000000E+02  0.51100000000E-03 0. -1.
         11   -1    0    0    0    0 -0.00000000000E+00 -0.00000000000E+00 -0.45593999997E+02  0.45594000000E+02  0.51100000000E-03 0.  1.
    9900012    2    1    2    0    0  0.39629759557E+02 -0.82808044973E+01 -0.15637557537E+02  0.47787276833E+02  0.20000026394E+02 0.  0.
         12    1    1    2    0    0 -0.39629759557E+02  0.82808044973E+01  0.15637557537E+02  0.43400723167E+02  0.00000000000E+00 0. -1.
         11    1    3    3    0    0  0.22925164911E+02 -0.28600500524E+01 -0.41321333490E+01  0.23469503591E+02  0.51100000000E-03 0. -1.
        -11    1    3    3    0    0  0.11040877012E+02  0.57961166808E+00 -0.12072890587E+01  0.11121801204E+02  0.51100000000E-03 0.  1.
         12    1    3    3    0    0  0.56637176337E+01 -0.60003661130E+01 -0.10298135129E+02  0.13195972039E+02  0.00000000000E+00 0. -1.
</event>
<event>
 7    1  0.2328615E-009  0.4778727E+02  0.7816164E-02  0.1312668E+00
        -11   -1    0    0    0    0  0.00000000000E+00  0.00000000000E+00  0.45593999997E+02  0.45594000000E+02  0.51100000000E-03 0. -1.
         11   -1    0    0    0    0 -0.00000000000E+00 -0.00000000000E+00 -0.45593999997E+02  0.45594000000E+02  0.51100000000E-03 0.  1.
    9900012    2    1    2    0    0  0.23093031304E+02 -0.37392520002E+01 -0.36556169121E+02  0.47787267274E+02  0.19999982810E+02 0.  0.
         12    1    1    2    0    0 -0.23093031304E+02  0.37392520002E+01  0.36556169121E+02  0.43400732726E+02  0.00000000000E+00 0. -1.
         11    1    3    3    0    0  0.11976113703E+02 -0.39803491214E+00 -0.51476746089E+01  0.13041636606E+02  0.51100000000E-03 0. -1.
        -11    1    3    3    0    0 -0.93566304508E-01  0.10830459297E+01  0.18224735450E-01  0.10872329747E+01  0.51100000000E-03 0.  1.
        -12    1    3    3    0    0  0.11210483906E+02 -0.44242630177E+01 -0.31426719247E+02  0.33658397694E+02  0.00000000000E+00 0.  1.
</event>
<event>
 7    1  0.2328615E-009  0.4778727E+02  0.7816164E-02  0.1312668E+00
        -11   -1    0    0    0    0  0.00000000000E+00  0.00000000000E+00  0.45593999997E+02  0.45594000000E+02  0.51100000000E-03 0.  1.
         11   -1    0    0    0    0 -0.00000000000E+00 -0.00000000000E+00 -0.45593999997E+02  0.45594000000E+02  0.51100000000E-03 0. -1.
    9900012    2    1    2    0    0  0.21684854418E+02  0.34785705773E+02  0.14259909433E+02  0.47787271270E+02  0.20000001028E+02 0.  0.
         12    1    1    2    0    0 -0.21684854418E+02 -0.34785705773E+02 -0.14259909433E+02  0.43400728730E+02  0.00000000000E+00 0. -1.
         11    1    3    3    0    0  0.17833070378E+02  0.19572418879E+02  0.21064014522E+01  0.26561907070E+02  0.51100000000E-03 0. -1.
        -11    1    3    3    0    0 -0.43261445322E+00  0.12307477198E+01 -0.93053058756E+00  0.16024302326E+01  0.51100000000E-03 0.  1.
        -12    1    3    3    0    0  0.42843984934E+01  0.13982539174E+02  0.13084038569E+02  0.19622933967E+02  0.00000000000E+00 0.  1.
</event>
<event>
 7    1  0.2328615E-009  0.4778727E+02  0.7816164E-02  0.1312668E+00
        -11   -1    0    0    0    0  0.00000000000E+00  0.00000000000E+00  0.45593999997E+02  0.45594000000E+02  0.51100000000E-03 0.  1.
         11   -1    0    0    0    0 -0.00000000000E+00 -0.00000000000E+00 -0.45593999997E+02  0.45594000000E+02  0.51100000000E-03 0. -1.
    9900012    2    1    2    0    0 -0.41595231033E+01  0.19185388650E+01  0.43158320295E+02  0.47787273802E+02  0.20000012573E+02 0.  0.
         12    1    1    2    0    0  0.41595231033E+01 -0.19185388650E+01 -0.43158320295E+02  0.43400726198E+02  0.00000000000E+00 0. -1.
         11    1    3    3    0    0  0.42697674804E+01  0.20891159541E+01  0.12939458477E+02  0.13784952148E+02  0.51100000000E-03 0. -1.
        -11    1    3    3    0    0  0.87311027245E+00 -0.32087934118E+00  0.20597365166E+02  0.20618359225E+02  0.51100000000E-03 0.  1.
         12    1    3    3    0    0 -0.93024008562E+01  0.15030225201E+00  0.96214966526E+01  0.13383962429E+02  0.00000000000E+00 0. -1.
</event>
<event>
 7    1  0.2328615E-009  0.4778727E+02  0.7816164E-02  0.1312668E+00
        -11   -1    0    0    0    0  0.00000000000E+00  0.00000000000E+00  0.45593999997E+02  0.45594000000E+02  0.51100000000E-03 0.  1.
         11   -1    0    0    0    0 -0.00000000000E+00 -0.00000000000E+00 -0.45593999997E+02  0.45594000000E+02  0.51100000000E-03 0. -1.
    9900012    2    1    2    0    0  0.78207929580E+01  0.10183393832E+02  0.41457893300E+02  0.47787271558E+02  0.20000002343E+02 0.  0.
         12    1    1    2    0    0 -0.78207929580E+01 -0.10183393832E+02 -0.41457893300E+02  0.43400728442E+02  0.00000000000E+00 0. -1.
         11    1    3    3    0    0 -0.20075233282E+00 -0.35249582706E+01  0.11543349538E+02  0.12071228236E+02  0.51100000000E-03 0. -1.
        -11    1    3    3    0    0  0.17768763084E+01 -0.16231388441E+01  0.73235236949E+01  0.77088175937E+01  0.51100000000E-03 0.  1.
         12    1    3    3    0    0  0.62446689824E+01  0.15331490947E+02  0.22591020066E+02  0.28007225728E+02  0.00000000000E+00 0. -1.
</event>
<event>
 7    1  0.2328615E-009  0.4778728E+02  0.7816164E-02  0.1312668E+00
        -11   -1    0    0    0    0  0.00000000000E+00  0.00000000000E+00  0.45593999997E+02  0.45594000000E+02  0.51100000000E-03 0.  1.
         11   -1    0    0    0    0 -0.00000000000E+00 -0.00000000000E+00 -0.45593999997E+02  0.45594000000E+02  0.51100000000E-03 0. -1.
    9900012    2    1    2    0    0 -0.77623051622E+00 -0.25022992746E+02  0.35452355958E+02  0.47787282923E+02  0.20000054160E+02 0.  0.
         12    1    1    2    0    0  0.77623051622E+00  0.25022992746E+02 -0.35452355958E+02  0.43400717077E+02  0.00000000000E+00 0. -1.
         11    1    3    3    0    0  0.19594087597E+01  0.71642360565E+00  0.54404073111E+01  0.58267124043E+01  0.51100000000E-03 0. -1.
        -11    1    3    3    0    0  0.25292463622E+01 -0.97750141421E+01  0.37328395422E+01  0.10764853921E+02  0.51100000000E-03 0.  1.
         12    1    3    3    0    0 -0.52648856381E+01 -0.15964402209E+02  0.26279109105E+02  0.31195716598E+02  0.00000000000E+00 0. -1.
</event>
<event>
 7    1  0.2328615E-009  0.4778727E+02  0.7816164E-02  0.1312668E+00
        -11   -1    0    0    0    0  0.00000000000E+00  0.00000000000E+00  0.45593999997E+02  0.45594000000E+02  0.51100000000E-03 0.  1.
         11   -1    0    0    0    0 -0.00000000000E+00 -0.00000000000E+00 -0.45593999997E+02  0.45594000000E+02  0.51100000000E-03 0. -1.
    9900012    2    1    2    0    0  0.34351441980E+02 -0.14884524092E+02  0.21955706032E+02  0.47787266701E+02  0.19999980197E+02 0.  0.
         12    1    1    2    0    0 -0.34351441980E+02  0.14884524092E+02 -0.21955706032E+02  0.43400733299E+02  0.00000000000E+00 0. -1.
         11    1    3    3    0    0  0.19113741712E+02 -0.79032916562E+01  0.16438042937E+02  0.26419810694E+02  0.51100000000E-03 0.  1.
        -11    1    3    3    0    0  0.26619519006E+01 -0.41015749410E+01  0.68297554525E+01  0.83996705126E+01  0.51100000000E-03 0. -1.
         12    1    3    3    0    0  0.12575748366E+02 -0.28796574949E+01 -0.13120923579E+01  0.12967785494E+02  0.00000000000E+00 0. -1.
</event>
<event>
 7    1  0.2328615E-009  0.4778727E+02  0.7816164E-02  0.1312668E+00
        -11   -1    0    0    0    0  0.00000000000E+00  0.00000000000E+00  0.45593999997E+02  0.45594000000E+02  0.51100000000E-03 0. -1.
         11   -1    0    0    0    0 -0.00000000000E+00 -0.00000000000E+00 -0.45593999997E+02  0.45594000000E+02  0.51100000000E-03 0.  1.
    9900012    2    1    2    0    0 -0.42962685000E+02  0.59791328505E+01 -0.14425226294E+01  0.47787271854E+02  0.20000003690E+02 0.  0.
         12    1    1    2    0    0  0.42962685000E+02 -0.59791328505E+01  0.14425226294E+01  0.43400728146E+02  0.00000000000E+00 0. -1.
         11    1    3    3    0    0 -0.86515096877E+01  0.30588544123E+00  0.55028844593E+01  0.10257871291E+02  0.51100000000E-03 0. -1.
        -11    1    3    3    0    0 -0.13741688759E+02  0.53939503564E+01  0.23624575811E+01  0.14950248040E+02  0.51100000000E-03 0.  1.
        -12    1    3    3    0    0 -0.20569486554E+02  0.27929705294E+00 -0.93078646698E+01  0.22579152523E+02  0.00000000000E+00 0.  1.
</event>
<event>
 7    1  0.2328615E-009  0.4778729E+02  0.7816164E-02  0.1312668E+00
        -11   -1    0    0    0    0  0.00000000000E+00  0.00000000000E+00  0.45593999997E+02  0.45594000000E+02  0.51100000000E-03 0.  1.
         11   -1    0    0    0    0 -0.00000000000E+00 -0.00000000000E+00 -0.45593999997E+02  0.45594000000E+02  0.51100000000E-03 0. -1.
    9900012    2    1    2    0    0  0.53307811060E+00 -0.40342404214E+02  0.15994614843E+02  0.47787292010E+02  0.20000095592E+02 0.  0.
         12    1    1    2    0    0 -0.53307811060E+00  0.40342404214E+02 -0.15994614843E+02  0.43400707990E+02  0.00000000000E+00 0. -1.
         11    1    3    3    0    0 -0.47453195074E+01 -0.16517155196E+02  0.59111919341E+01  0.18173515437E+02  0.51100000000E-03 0. -1.
        -11    1    3    3    0    0 -0.44938721665E+00 -0.11844328126E+02 -0.15567977338E+01  0.11954650855E+02  0.51100000000E-03 0.  1.
         12    1    3    3    0    0  0.57277848346E+01 -0.11980920892E+02  0.11640220643E+02  0.17659125719E+02  0.00000000000E+00 0. -1.
</event>
<event>
 7    1  0.2328615E-009  0.4778728E+02  0.7816164E-02  0.1312668E+00
        -11   -1    0    0    0    0  0.00000000000E+00  0.00000000000E+00  0.45593999997E+02  0.45594000000E+02  0.51100000000E-03 0.  1.
         11   -1    0    0    0    0 -0.00000000000E+00 -0.00000000000E+00 -0.45593999997E+02  0.45594000000E+02  0.51100000000E-03 0. -1.
    9900012    2    1    2    0    0  0.28255547555E+02 -0.19037268252E+02  0.26885478310E+02  0.47787280028E+02  0.20000040961E+02 0.  0.
         12    1    1    2    0    0 -0.28255547555E+02  0.19037268252E+02 -0.26885478310E+02  0.43400719972E+02  0.00000000000E+00 0. -1.
         11    1    3    3    0    0  0.23739012689E+01 -0.11474363385E+01 -0.63859952799E+00  0.27129001094E+01  0.51100000000E-03 0.  1.
        -11    1    3    3    0    0  0.14431271647E+02 -0.13748484679E+02  0.68408888689E+01  0.21073210318E+02  0.51100000000E-03 0. -1.
         12    1    3    3    0    0  0.11450374639E+02 -0.41413472340E+01  0.20683188969E+02  0.24001169601E+02  0.00000000000E+00 0. -1.
</event>
<event>
 7    1  0.2328615E-009  0.4778727E+02  0.7816164E-02  0.1312668E+00
        -11   -1    0    0    0    0  0.00000000000E+00  0.00000000000E+00  0.45593999997E+02  0.45594000000E+02  0.51100000000E-03 0. -1.
         11   -1    0    0    0    0 -0.00000000000E+00 -0.00000000000E+00 -0.45593999997E+02  0.45594000000E+02  0.51100000000E-03 0.  1.
    9900012    2    1    2    0    0 -0.33392162871E+02  0.72976522939E+01 -0.26745675660E+02  0.47787269169E+02  0.19999991447E+02 0.  0.
         12    1    1    2    0    0  0.33392162871E+02 -0.72976522939E+01  0.26745675660E+02  0.43400730831E+02  0.00000000000E+00 0. -1.
         11    1    3    3    0    0 -0.52179756351E+01 -0.33838423134E+01 -0.20132646264E+01  0.65368871221E+01  0.51100000000E-03 0. -1.
        -11    1    3    3    0    0 -0.14969079291E+02 -0.17849854701E+00 -0.16484966623E+02  0.22267898898E+02  0.51100000000E-03 0.  1.
        -12    1    3    3    0    0 -0.13205107945E+02  0.10859993154E+02 -0.82474444114E+01  0.18982483148E+02  0.00000000000E+00 0.  1.
</event>
<event>
 7    1  0.2328615E-009  0.4778727E+02  0.7816164E-02  0.1312668E+00
        -11   -1    0    0    0    0  0.00000000000E+00  0.00000000000E+00  0.45593999997E+02  0.45594000000E+02  0.51100000000E-03 0.  1.
         11   -1    0    0    0    0 -0.00000000000E+00 -0.00000000000E+00 -0.45593999997E+02  0.45594000000E+02  0.51100000000E-03 0. -1.
    9900012    2    1    2    0    0  0.31572906714E+02  0.16651309517E+02  0.24688231854E+02  0.47787270294E+02  0.19999996577E+02 0.  0.
         12    1    1    2    0    0 -0.31572906714E+02 -0.16651309517E+02 -0.24688231854E+02  0.43400729706E+02  0.00000000000E+00 0. -1.
         11    1    3    3    0    0  0.46281205108E+00  0.44882574370E+01  0.52501781130E+01  0.69226454694E+01  0.51100000000E-03 0. -1.
        -11    1    3    3    0    0  0.53362237796E+01  0.36364458151E+01 -0.14413004671E+01  0.66163713386E+01  0.51100000000E-03 0.  1.
        -12    1    3    3    0    0  0.25773870883E+02  0.85266062650E+01  0.20879354208E+02  0.34248253486E+02  0.00000000000E+00 0.  1.
</event>
<event>
 7    1  0.2328615E-009  0.4778727E+02  0.7816164E-02  0.1312668E+00
        -11   -1    0    0    0    0  0.00000000000E+00  0.00000000000E+00  0.45593999997E+02  0.45594000000E+02  0.51100000000E-03 0.  1.
         11   -1    0    0    0    0 -0.00000000000E+00 -0.00000000000E+00 -0.45593999997E+02  0.45594000000E+02  0.51100000000E-03 0. -1.
    9900012    2    1    2    0    0 -0.29564377531E+02  0.31126248673E+02  0.63818268154E+01  0.47787268569E+02  0.19999988713E+02 0.  0.
         12    1    1    2    0    0  0.29564377531E+02 -0.31126248673E+02 -0.63818268154E+01  0.43400731431E+02  0.00000000000E+00 0. -1.
         11    1    3    3    0    0 -0.32681231429E+00  0.18403256225E+01 -0.13528205530E+01  0.23073206096E+01  0.51100000000E-03 0. -1.
        -11    1    3    3    0    0 -0.29951151007E+02  0.24989701575E+02  0.10405433975E+02  0.40371149202E+02  0.51100000000E-03 0.  1.
        -12    1    3    3    0    0  0.71358579018E+00  0.42962214758E+01 -0.26707866062E+01  0.51087987575E+01  0.00000000000E+00 0.  1.
</event>
<event>
 7    1  0.2328615E-009  0.4778727E+02  0.7816164E-02  0.1312668E+00
        -11   -1    0    0    0    0  0.00000000000E+00  0.00000000000E+00  0.45593999997E+02  0.45594000000E+02  0.51100000000E-03 0.  1.
         11   -1    0    0    0    0 -0.00000000000E+00 -0.00000000000E+00 -0.45593999997E+02  0.45594000000E+02  0.51100000000E-03 0. -1.
    9900012    2    1    2    0    0 -0.25835005545E+02 -0.77645356975E+01  0.33998345890E+02  0.47787273630E+02  0.20000011791E+02 0.  0.
         12    1    1    2    0    0  0.25835005545E+02  0.77645356975E+01 -0.33998345890E+02  0.43400726370E+02  0.00000000000E+00 0. -1.
         11    1    3    3    0    0 -0.43419536992E+01 -0.47925207623E+01  0.11968368019E+01  0.65767192258E+01  0.51100000000E-03 0. -1.
        -11    1    3    3    0    0 -0.14571981869E+02 -0.63833892047E+01  0.15248758802E+02  0.22036673038E+02  0.51100000000E-03 0.  1.
         12    1    3    3    0    0 -0.69210699770E+01  0.34113742695E+01  0.17552750287E+02  0.19173881367E+02  0.00000000000E+00 0. -1.
</event>
<event>
 7    1  0.2328615E-009  0.4778727E+02  0.7816164E-02  0.1312668E+00
        -11   -1    0    0    0    0  0.00000000000E+00  0.00000000000E+00  0.45593999997E+02  0.45594000000E+02  0.51100000000E-03 0.  1.
         11   -1    0    0    0    0 -0.00000000000E+00 -0.00000000000E+00 -0.45593999997E+02  0.45594000000E+02  0.51100000000E-03 0. -1.
    9900012    2    1    2    0    0  0.39329512198E+02 -0.13194356082E+01  0.18304968622E+02  0.47787270556E+02  0.19999997773E+02 0.  0.
         12    1    1    2    0    0 -0.39329512198E+02  0.13194356082E+01 -0.18304968622E+02  0.43400729444E+02  0.00000000000E+00 0. -1.
         11    1    3    3    0    0  0.64958021456E+01 -0.45582328128E+01 -0.98831482011E+00  0.79968555280E+01  0.51100000000E-03 0. -1.
        -11    1    3    3    0    0  0.17863003990E+02 -0.46460157269E+00  0.45147012367E+01  0.18430553266E+02  0.51100000000E-03 0.  1.
        -12    1    3    3    0    0  0.14970706062E+02  0.37033987773E+01  0.14778582205E+02  0.21359861762E+02  0.00000000000E+00 0.  1.
</event>
<event>
 7    1  0.2328615E-009  0.4778727E+02  0.7816164E-02  0.1312668E+00
        -11   -1    0    0    0    0  0.00000000000E+00  0.00000000000E+00  0.45593999997E+02  0.45594000000E+02  0.51100000000E-03 0.  1.
         11   -1    0    0    0    0 -0.00000000000E+00 -0.00000000000E+00 -0.45593999997E+02  0.45594000000E+02  0.51100000000E-03 0. -1.
    9900012    2    1    2    0    0  0.78734708520E+01 -0.87382557776E+00  0.42671635618E+02  0.47787267279E+02  0.19999982832E+02 0.  0.
         12    1    1    2    0    0 -0.78734708520E+01  0.87382557776E+00 -0.42671635618E+02  0.43400732721E+02  0.00000000000E+00 0. -1.
         11    1    3    3    0    0  0.69843064859E+01  0.57272078489E+01  0.10436846202E+02  0.13802507227E+02  0.51100000000E-03 0. -1.
        -11    1    3    3    0    0  0.35963636387E+00 -0.38408415931E+01  0.38119991647E+01  0.54233513946E+01  0.51100000000E-03 0.  1.
        -12    1    3    3    0    0  0.52952800227E+00 -0.27601918336E+01  0.28422790251E+02  0.28561408658E+02  0.00000000000E+00 0.  1.
</event>
<event>
 7    1  0.2328615E-009  0.4778727E+02  0.7816164E-02  0.1312668E+00
        -11   -1    0    0    0    0  0.00000000000E+00  0.00000000000E+00  0.45593999997E+02  0.45594000000E+02  0.51100000000E-03 0. -1.
         11   -1    0    0    0    0 -0.00000000000E+00 -0.00000000000E+00 -0.45593999997E+02  0.45594000000E+02  0.51100000000E-03 0.  1.
    9900012    2    1    2    0    0 -0.27015568047E+02 -0.88147824084E+01 -0.32803687870E+02  0.47787271393E+02  0.20000001588E+02 0.  0.
         12    1    1    2    0    0  0.27015568047E+02  0.88147824084E+01  0.32803687870E+02  0.43400728607E+02  0.00000000000E+00 0. -1.
         11    1    3    3    0    0 -0.19470985956E+02 -0.87175979372E+00 -0.22312170589E+02  0.29626208261E+02  0.51100000000E-03 0.  1.
        -11    1    3    3    0    0 -0.65108886228E+01 -0.42134191998E+01 -0.11761165149E+02  0.14087923124E+02  0.51100000000E-03 0. -1.
        -12    1    3    3    0    0 -0.10336934675E+01 -0.37296034148E+01  0.12696478684E+01  0.40731400082E+01  0.00000000000E+00 0.  1.
</event>
<event>
 7    1  0.2328615E-009  0.4778727E+02  0.7816164E-02  0.1312668E+00
        -11   -1    0    0    0    0  0.00000000000E+00  0.00000000000E+00  0.45593999997E+02  0.45594000000E+02  0.51100000000E-03 0.  1.
         11   -1    0    0    0    0 -0.00000000000E+00 -0.00000000000E+00 -0.45593999997E+02  0.45594000000E+02  0.51100000000E-03 0. -1.
    9900012    2    1    2    0    0 -0.30546655776E+02  0.13570994881E+02  0.27683084556E+02  0.47787271300E+02  0.20000001165E+02 0.  0.
         12    1    1    2    0    0  0.30546655776E+02 -0.13570994881E+02 -0.27683084556E+02  0.43400728700E+02  0.00000000000E+00 0. -1.
         11    1    3    3    0    0 -0.14731314745E+02  0.48898484605E+01  0.15358954199E+02  0.21836202198E+02  0.51100000000E-03 0. -1.
        -11    1    3    3    0    0 -0.15903802270E+02  0.44529742871E+01  0.13747930732E+02  0.21488729751E+02  0.51100000000E-03 0.  1.
         12    1    3    3    0    0  0.88461239154E-01  0.42281721333E+01 -0.14238003743E+01  0.44623393512E+01  0.00000000000E+00 0. -1.
</event>
<event>
 7    1  0.2328615E-009  0.4778726E+02  0.7816164E-02  0.1312668E+00
        -11   -1    0    0    0    0  0.00000000000E+00  0.00000000000E+00  0.45593999997E+02  0.45594000000E+02  0.51100000000E-03 0.  1.
         11   -1    0    0    0    0 -0.00000000000E+00 -0.00000000000E+00 -0.45593999997E+02  0.45594000000E+02  0.51100000000E-03 0. -1.
    9900012    2    1    2    0    0 -0.13847035526E+02  0.49376155736E+01  0.40835079535E+02  0.47787260824E+02  0.19999953400E+02 0.  0.
         12    1    1    2    0    0  0.13847035526E+02 -0.49376155736E+01 -0.40835079535E+02  0.43400739176E+02  0.00000000000E+00 0. -1.
         11    1    3    3    0    0  0.10245861510E+01 -0.11813084996E+01 -0.40481431233E-02  0.15637401320E+01  0.51100000000E-03 0. -1.
        -11    1    3    3    0    0 -0.31640354177E+01 -0.25801336482E+01  0.22115842451E+02  0.22489524169E+02  0.51100000000E-03 0.  1.
         12    1    3    3    0    0 -0.11707586259E+02  0.86990577213E+01  0.18723285228E+02  0.23733996523E+02  0.00000000000E+00 0. -1.
</event>
<event>
 7    1  0.2328615E-009  0.4778727E+02  0.7816164E-02  0.1312668E+00
        -11   -1    0    0    0    0  0.00000000000E+00  0.00000000000E+00  0.45593999997E+02  0.45594000000E+02  0.51100000000E-03 0.  1.
         11   -1    0    0    0    0 -0.00000000000E+00 -0.00000000000E+00 -0.45593999997E+02  0.45594000000E+02  0.51100000000E-03 0. -1.
    9900012    2    1    2    0    0  0.29687491048E+02 -0.24404041977E+02  0.20167270461E+02  0.47787272040E+02  0.20000004541E+02 0.  0.
         12    1    1    2    0    0 -0.29687491048E+02  0.24404041977E+02 -0.20167270461E+02  0.43400727960E+02  0.00000000000E+00 0. -1.
         11    1    3    3    0    0  0.54701179609E+01 -0.56379808499E+01  0.11411140615E+02  0.13853633060E+02  0.51100000000E-03 0. -1.
        -11    1    3    3    0    0  0.46724021238E+01  0.61553824383E-03  0.45340059043E+01  0.65106491064E+01  0.51100000000E-03 0.  1.
        -12    1    3    3    0    0  0.19544970964E+02 -0.18766676665E+02  0.42221239418E+01  0.27422989874E+02  0.00000000000E+00 0.  1.
</event>
<event>
 7    1  0.2328615E-009  0.4778727E+02  0.7816164E-02  0.1312668E+00
        -11   -1    0    0    0    0  0.00000000000E+00  0.00000000000E+00  0.45593999997E+02  0.45594000000E+02  0.51100000000E-03 0. -1.
         11   -1    0    0    0    0 -0.00000000000E+00 -0.00000000000E+00 -0.45593999997E+02  0.45594000000E+02  0.51100000000E-03 0.  1.
    9900012    2    1    2    0    0  0.37276337913E+02 -0.10043230485E+02  0.19830064861E+02  0.47787270523E+02  0.19999997620E+02 0.  0.
         12    1    1    2    0    0 -0.37276337913E+02  0.10043230485E+02 -0.19830064861E+02  0.43400729477E+02  0.00000000000E+00 0. -1.
         11    1    3    3    0    0  0.19520266686E+01 -0.18404388023E+01  0.17905415519E+00  0.26888071243E+01  0.51100000000E-03 0. -1.
        -11    1    3    3    0    0  0.19005505537E+02  0.23663971185E+01  0.16744551414E+02  0.25439911131E+02  0.51100000000E-03 0.  1.
        -12    1    3    3    0    0  0.16318805708E+02 -0.10569188801E+02  0.29064592923E+01  0.19658552268E+02  0.00000000000E+00 0.  1.
</event>
